<event>
 7    1  0.2855090E-009  0.1460426E+03  0.7561462E-02  0.1205422E+00
          3   -1    0    0  501    0  0.00000000000E+00  0.00000000000E+00  0.77553384069E+03  0.77553384069E+03  0.00000000000E+00 0. -1.
         -3   -1    0    0    0  501 -0.00000000000E+00 -0.00000000000E+00 -0.41537215622E+02  0.41537215622E+02  0.00000000000E+00 0.  1.
         25    2    1    2    0    0  0.45477716361E+02  0.12359517420E+03  0.51136155776E+03  0.54266214175E+03  0.12509023770E+03 0.  0.
          5    1    3    3  502    0  0.66631193411E+01  0.24790933282E+02  0.34032296028E+03  0.34131536330E+03  0.41800000000E+01 0.  1.
         -5    1    3    3    0  502  0.38814597020E+02  0.98804240918E+02  0.17103859748E+03  0.20134677845E+03  0.41800000000E+01 0.  1.
        -11    1    1    2    0    0 -0.69972058647E+02 -0.61760424060E+02  0.14134070204E+03  0.16937423955E+03  0.00000000000E+00 0.  1.
         11    1    1    2    0    0  0.24494342286E+02 -0.61834750140E+02  0.81294365274E+02  0.10503467501E+03  0.00000000000E+00 0. -1.
</event>
<event>
 7    1  0.2855090E-009  0.1525221E+03  0.7561462E-02  0.1197408E+00
         -2   -1    0    0    0  501 -0.00000000000E+00  0.00000000000E+00  0.18039873359E+03  0.18039873359E+03  0.00000000000E+00 0.  1.
          2   -1    0    0  501    0  0.00000000000E+00 -0.00000000000E+00 -0.33430426348E+03  0.33430426348E+03  0.00000000000E+00 0. -1.
         25    2    1    2    0    0  0.11285122684E+03  0.89187551729E+01 -0.27745454123E+03  0.32472037464E+03  0.12508939069E+03 0.  0.
          5    1    3    3  502    0  0.12321031212E+03 -0.30396700763E+02 -0.19506279842E+03  0.23274816467E+03  0.41800000000E+01 0.  1.
         -5    1    3    3    0  502 -0.10359085278E+02  0.39315455935E+02 -0.82391742813E+02  0.91972209971E+02  0.41800000000E+01 0.  1.
        -11    1    1    2    0    0 -0.50144750389E+02 -0.42798349356E+02  0.89052826283E+02  0.11079982206E+03  0.00000000000E+00 0.  1.
         11    1    1    2    0    0 -0.62706476449E+02  0.33879594183E+02  0.34496185062E+02  0.79182800370E+02  0.00000000000E+00 0. -1.
</event>
<event>
 7    1  0.2855090E-009  0.7436999E+02  0.7561462E-02  0.1345833E+00
         -2   -1    0    0    0  501 -0.00000000000E+00  0.00000000000E+00  0.12862948157E+03  0.12862948157E+03  0.00000000000E+00 0.  1.
          2   -1    0    0  501    0  0.00000000000E+00 -0.00000000000E+00 -0.10497410739E+03  0.10497410739E+03  0.00000000000E+00 0. -1.
         25    2    1    2    0    0  0.20226226809E+02 -0.37482392416E+02  0.73809801990E+01  0.13234800299E+03  0.12508990780E+03 0.  0.
          5    1    3    3  502    0  0.40851951128E+01 -0.39263449790E+02  0.62885182833E+02  0.74366161179E+02  0.41800000000E+01 0.  1.
         -5    1    3    3    0  502  0.16141031696E+02  0.17810573740E+01 -0.55504202634E+02  0.57981841810E+02  0.41800000000E+01 0.  1.
        -11    1    1    2    0    0 -0.42382799617E+02 -0.66425641312E+01  0.27052589285E+02  0.50717530979E+02  0.00000000000E+00 0.  1.
         11    1    1    2    0    0  0.22156572808E+02  0.44124956547E+02 -0.10778195305E+02  0.50538054997E+02  0.00000000000E+00 0. -1.
</event>
<event>
 7    1  0.2855090E-009  0.9138650E+02  0.7561462E-02  0.1299528E+00
          1   -1    0    0  501    0  0.00000000000E+00  0.00000000000E+00  0.78161774729E+03  0.78161774729E+03  0.00000000000E+00 0. -1.
         -1   -1    0    0    0  501 -0.00000000000E+00 -0.00000000000E+00 -0.19179308778E+02  0.19179308778E+02  0.00000000000E+00 0.  1.
         25    2    1    2    0    0 -0.38945802327E+02  0.21389247980E+02  0.51942826241E+03  0.53612230010E+03  0.12508847039E+03 0.  0.
          5    1    3    3  502    0 -0.77740673832E+02  0.27813217519E+02  0.23844796124E+03  0.25237291862E+03  0.41800000000E+01 0. -1.
         -5    1    3    3    0  502  0.38794871505E+02 -0.64239695389E+01  0.28098030118E+03  0.28374938148E+03  0.41800000000E+01 0. -1.
        -11    1    1    2    0    0  0.45648662407E+02 -0.90837353735E+01  0.24598517066E+03  0.25034979291E+03  0.00000000000E+00 0. -1.
         11    1    1    2    0    0 -0.67028600803E+01 -0.12305512607E+02 -0.29749945623E+01  0.14324963051E+02  0.00000000000E+00 0.  1.
</event>
<event>
 7    1  0.2855090E-009  0.7169834E+02  0.7561462E-02  0.1354411E+00
          1   -1    0    0  501    0  0.00000000000E+00  0.00000000000E+00  0.67499153203E+02  0.67499153203E+02  0.00000000000E+00 0. -1.
         -1   -1    0    0    0  501 -0.00000000000E+00 -0.00000000000E+00 -0.22989622094E+03  0.22989622094E+03  0.00000000000E+00 0.  1.
         25    2    1    2    0    0  0.41178963007E+02 -0.11997851983E+02 -0.39448829089E+02  0.13800162848E+03  0.12509430003E+03 0.  0.
          5    1    3    3  502    0  0.24505412025E+02  0.71382997112E+01  0.43801648019E+02  0.50867743319E+02  0.41800000000E+01 0. -1.
         -5    1    3    3    0  502  0.16673550983E+02 -0.19136151694E+02 -0.83250477107E+02  0.87133885157E+02  0.41800000000E+01 0. -1.
        -11    1    1    2    0    0 -0.30330506679E+02  0.46569651343E+02 -0.10535413691E+03  0.11911408912E+03  0.00000000000E+00 0.  1.
         11    1    1    2    0    0 -0.10848456328E+02 -0.34571799360E+02 -0.17594101731E+02  0.40279656546E+02  0.00000000000E+00 0. -1.
</event>
<event>
 7    1  0.2855090E-009  0.1566125E+03  0.7561462E-02  0.1192575E+00
          2   -1    0    0  501    0  0.00000000000E+00  0.00000000000E+00  0.13883863029E+04  0.13883863029E+04  0.00000000000E+00 0. -1.
         -2   -1    0    0    0  501 -0.00000000000E+00 -0.00000000000E+00 -0.21042337406E+02  0.21042337406E+02  0.00000000000E+00 0.  1.
         25    2    1    2    0    0  0.45538464830E+02 -0.12320012272E+03  0.72119509380E+03  0.74365428316E+03  0.12508919825E+03 0.  0.
          5    1    3    3  502    0 -0.20654299423E+02 -0.71483949345E+02  0.16389046035E+03  0.18003919155E+03  0.41800000000E+01 0. -1.
         -5    1    3    3    0  502  0.66192764253E+02 -0.51716173372E+02  0.55730463345E+03  0.56361509161E+03  0.41800000000E+01 0. -1.
        -11    1    1    2    0    0 -0.43632699244E+02  0.14646944156E+02  0.11963101151E+03  0.12817926638E+03  0.00000000000E+00 0.  1.
         11    1    1    2    0    0 -0.19057655857E+01  0.10855317856E+03  0.52651786015E+03  0.53759509072E+03  0.00000000000E+00 0. -1.
</event>
<event>
 7    1  0.2855090E-009  0.1774677E+03  0.7561462E-02  0.1170277E+00
         -2   -1    0    0    0  501 -0.00000000000E+00  0.00000000000E+00  0.95823443945E+02  0.95823443945E+02  0.00000000000E+00 0.  1.
          2   -1    0    0  501    0  0.00000000000E+00 -0.00000000000E+00 -0.35666754084E+03  0.35666754084E+03  0.00000000000E+00 0. -1.
         25    2    1    2    0    0  0.27079749558E+01 -0.14609289408E+03 -0.17707180173E+03  0.26144401456E+03  0.12509229774E+03 0.  0.
          5    1    3    3  502    0  0.41203670022E+01 -0.16860038021E+03 -0.14805168003E+03  0.22445453435E+03  0.41800000000E+01 0. -1.
         -5    1    3    3    0  502 -0.14123920464E+01  0.22507486125E+02 -0.29020121699E+02  0.36989480213E+02  0.41800000000E+01 0. -1.
        -11    1    1    2    0    0  0.35093435837E+02  0.73719526390E+02 -0.12366669485E+02  0.82577553392E+02  0.00000000000E+00 0.  1.
         11    1    1    2    0    0 -0.37801410793E+02  0.72373367691E+02 -0.71405625682E+02  0.10846941683E+03  0.00000000000E+00 0. -1.
</event>
<event>
 7    1  0.2855090E-009  0.1679057E+03  0.7561462E-02  0.1180050E+00
         -2   -1    0    0    0  501 -0.00000000000E+00  0.00000000000E+00  0.47364308255E+02  0.47364308255E+02  0.00000000000E+00 0.  1.
          2   -1    0    0  501    0  0.00000000000E+00 -0.00000000000E+00 -0.81765504738E+03  0.81765504738E+03  0.00000000000E+00 0. -1.
         25    2    1    2    0    0  0.13955079762E+03  0.45454931056E+02 -0.24267449393E+03  0.30996677386E+03  0.12509162651E+03 0.  0.
          5    1    3    3  502    0  0.10710958077E+03  0.65250114705E+02 -0.24098007104E+03  0.27169635036E+03  0.41800000000E+01 0. -1.
         -5    1    3    3    0  502  0.32441216845E+02 -0.19795183649E+02 -0.16944228879E+01  0.38270423502E+02  0.41800000000E+01 0. -1.
        -11    1    1    2    0    0 -0.12924626501E+03 -0.39310998752E+01 -0.38285306369E+03  0.40409963987E+03  0.00000000000E+00 0.  1.
         11    1    1    2    0    0 -0.10304532603E+02 -0.41523831181E+02 -0.14476318151E+03  0.15095294190E+03  0.00000000000E+00 0. -1.
</event>
<event>
 7    1  0.2855090E-009  0.5691956E+02  0.7561462E-02  0.1411233E+00
          2   -1    0    0  501    0  0.00000000000E+00  0.00000000000E+00  0.12893840272E+03  0.12893840272E+03  0.00000000000E+00 0. -1.
         -2   -1    0    0    0  501 -0.00000000000E+00 -0.00000000000E+00 -0.99069426834E+02  0.99069426834E+02  0.00000000000E+00 0.  1.
         25    2    1    2    0    0  0.20232945192E+01 -0.32403369850E+02  0.19807730524E+02  0.13074425562E+03  0.12509053557E+03 0.  0.
          5    1    3    3  502    0 -0.12462346959E+02 -0.40518655533E+02 -0.46030275796E+02  0.62716267649E+02  0.41800000000E+01 0. -1.
         -5    1    3    3    0  502  0.14485641478E+02  0.81152856834E+01  0.65838006319E+02  0.68027987967E+02  0.41800000000E+01 0. -1.
        -11    1    1    2    0    0  0.42927387948E+01 -0.10191679945E+02 -0.33940958056E+02  0.35697150870E+02  0.00000000000E+00 0.  1.
         11    1    1    2    0    0 -0.63160333140E+01  0.42595049794E+02  0.44002203421E+02  0.61566423071E+02  0.00000000000E+00 0. -1.
</event>
<event>
 7    1  0.2855090E-009  0.7477166E+02  0.7561462E-02  0.1344580E+00
         -1   -1    0    0    0  501 -0.00000000000E+00  0.00000000000E+00  0.14862055774E+03  0.14862055774E+03  0.00000000000E+00 0.  1.
          1   -1    0    0  501    0  0.00000000000E+00 -0.00000000000E+00 -0.81557782767E+02  0.81557782767E+02  0.00000000000E+00 0. -1.
         25    2    1    2    0    0 -0.63799758911E+01  0.72342815637E+01  0.71370279308E+02  0.14433966481E+03  0.12508870111E+03 0.  0.
          5    1    3    3  502    0 -0.17195037976E+02 -0.34955711468E+02  0.88941803106E+02  0.97188928562E+02  0.41800000000E+01 0. -1.
         -5    1    3    3    0  502  0.10815062085E+02  0.42189993032E+02 -0.17571523798E+02  0.47150736246E+02  0.41800000000E+01 0. -1.
        -11    1    1    2    0    0  0.28360983471E+02  0.17651995773E+02  0.24861940351E+02  0.41641979014E+02  0.00000000000E+00 0.  1.
         11    1    1    2    0    0 -0.21981007579E+02 -0.24886277337E+02 -0.29169444691E+02  0.44196696681E+02  0.00000000000E+00 0. -1.
</event>
<event>
 7    1  0.2855090E-009  0.1276819E+03  0.7561462E-02  0.1230937E+00
         -1   -1    0    0    0  501 -0.00000000000E+00  0.00000000000E+00  0.16340712647E+03  0.16340712647E+03  0.00000000000E+00 0.  1.
          1   -1    0    0  501    0  0.00000000000E+00 -0.00000000000E+00 -0.12273187564E+03  0.12273187564E+03  0.00000000000E+00 0. -1.
         25    2    1    2    0    0  0.78910479358E+02  0.25682491436E+02  0.59519730554E+02  0.16147840802E+03  0.12508486644E+03 0.  0.
          5    1    3    3  502    0  0.10651954690E+03  0.43988143092E+02  0.55067302398E+02  0.12779378231E+03  0.41800000000E+01 0.  1.
         -5    1    3    3    0  502 -0.27609067538E+02 -0.18305651656E+02  0.44524281559E+01  0.33684625712E+02  0.41800000000E+01 0.  1.
        -11    1    1    2    0    0  0.11945462818E+02  0.92770325215E+00  0.19198411642E+02  0.22630371735E+02  0.00000000000E+00 0.  1.
         11    1    1    2    0    0 -0.90855942176E+02 -0.26610194688E+02 -0.38042891360E+02  0.10203022235E+03  0.00000000000E+00 0. -1.
</event>
<event>
 7    1  0.3492374E-009  0.1167028E+03  0.7561462E-02  0.1248638E+00
          2   -1    0    0  501    0  0.00000000000E+00  0.00000000000E+00  0.28503113371E+03  0.28503113371E+03  0.00000000000E+00 0. -1.
         -2   -1    0    0    0  501 -0.00000000000E+00 -0.00000000000E+00 -0.80699621620E+02  0.80699621620E+02  0.00000000000E+00 0.  1.
         25    2    1    2    0    0 -0.22048707603E+01 -0.89685108471E+02  0.42017494550E+02  0.15956481706E+03  0.12508869196E+03 0.  0.
          5    1    3    3  502    0 -0.31013361748E+01 -0.11346297622E+03  0.29376048104E+01  0.11362027628E+03  0.41800000000E+01 0. -1.
         -5    1    3    3    0  502  0.89646541448E+00  0.23777867753E+02  0.39079889740E+02  0.45944540777E+02  0.41800000000E+01 0. -1.
        -11    1    1    2    0    0 -0.15485586096E+02  0.45831656296E+02  0.13802131526E+02  0.50307483839E+02  0.00000000000E+00 0.  1.
         11    1    1    2    0    0  0.17690456856E+02  0.43853452175E+02  0.14851188601E+03  0.15585845443E+03  0.00000000000E+00 0. -1.
</event>
<event>
 7    1  0.2855090E-009  0.1455588E+03  0.7561462E-02  0.1206039E+00
         -2   -1    0    0    0  501 -0.00000000000E+00  0.00000000000E+00  0.20644982861E+03  0.20644982861E+03  0.00000000000E+00 0. -1.
          2   -1    0    0  501    0  0.00000000000E+00 -0.00000000000E+00 -0.14953672510E+03  0.14953672510E+03  0.00000000000E+00 0.  1.
         25    2    1    2    0    0  0.11054334202E+03  0.78270792637E+02  0.58858850525E+02  0.19354376312E+03  0.12509467019E+03 0.  0.
          5    1    3    3  502    0  0.11307405673E+03  0.47212476437E+02 -0.46333581942E+01  0.12269352324E+03  0.41800000000E+01 0. -1.
         -5    1    3    3    0  502 -0.25307147119E+01  0.31058316200E+02  0.63492208719E+02  0.70850239873E+02  0.41800000000E+01 0. -1.
        -11    1    1    2    0    0 -0.25908946224E+02 -0.29998496257E+02 -0.41407681809E+02  0.57321718266E+02  0.00000000000E+00 0.  1.
         11    1    1    2    0    0 -0.84634395797E+02 -0.48272296380E+02  0.39461934800E+02  0.10512107233E+03  0.00000000000E+00 0. -1.
</event>
<event>
 7    1  0.2855090E-009  0.7931368E+02  0.7561462E-02  0.1331010E+00
         -1   -1    0    0    0  501 -0.00000000000E+00  0.00000000000E+00  0.26850524035E+02  0.26850524035E+02  0.00000000000E+00 0.  1.
          1   -1    0    0  501    0  0.00000000000E+00 -0.00000000000E+00 -0.49697766870E+03  0.49697766870E+03  0.00000000000E+00 0. -1.
         25    2    1    2    0    0  0.29564948659E+01 -0.26922343139E+02 -0.19476918836E+03  0.23305775351E+03  0.12508927337E+03 0.  0.
          5    1    3    3  502    0 -0.35092549939E+02 -0.92138851630E+01 -0.18654641900E+03  0.19008793118E+03  0.41800000000E+01 0.  1.
         -5    1    3    3    0  502  0.38049044805E+02 -0.17708457976E+02 -0.82227693685E+01  0.42969822324E+02  0.41800000000E+01 0.  1.
        -11    1    1    2    0    0  0.11538622428E+02  0.50746840618E+02 -0.24082037884E+03  0.24637945633E+03  0.00000000000E+00 0. -1.
         11    1    1    2    0    0 -0.14495117294E+02 -0.23824497479E+02 -0.34537577467E+02  0.44390982899E+02  0.00000000000E+00 0.  1.
</event>
<event>
 7    1  0.3936084E-009  0.9161956E+02  0.7561462E-02  0.1298976E+00
          1   -1    0    0  501    0  0.00000000000E+00  0.00000000000E+00  0.55570932793E+03  0.55570932793E+03  0.00000000000E+00 0. -1.
         -1   -1    0    0    0  501 -0.00000000000E+00 -0.00000000000E+00 -0.32056678789E+02  0.32056678789E+02  0.00000000000E+00 0.  1.
         25    2    1    2    0    0 -0.64011412391E+02  0.93063946884E+01  0.19553160352E+03  0.24096547235E+03  0.12509069108E+03 0.  0.
          5    1    3    3  502    0 -0.15623987026E+02 -0.28974216603E+02  0.17140176926E+03  0.17458422925E+03  0.41800000000E+01 0.  1.
         -5    1    3    3    0  502 -0.48387425365E+02  0.38280611292E+02  0.24129834258E+02  0.66381243101E+02  0.41800000000E+01 0.  1.
        -11    1    1    2    0    0  0.11947345504E+02 -0.29922100002E+02  0.31923189427E+02  0.45355938490E+02  0.00000000000E+00 0.  1.
         11    1    1    2    0    0  0.52064066887E+02  0.20615705314E+02  0.29619785619E+03  0.30144459587E+03  0.00000000000E+00 0. -1.
</event>
<event>
 7    1  0.2855090E-009  0.5371188E+02  0.7561462E-02  0.1426291E+00
          2   -1    0    0  501    0  0.00000000000E+00  0.00000000000E+00  0.95193890996E+02  0.95193890996E+02  0.00000000000E+00 0.  1.
         -2   -1    0    0    0  501 -0.00000000000E+00 -0.00000000000E+00 -0.11943240374E+03  0.11943240374E+03  0.00000000000E+00 0. -1.
         25    2    1    2    0    0 -0.22872336119E+02 -0.13146452675E+02 -0.38339409798E+01  0.12789928896E+03  0.12509019161E+03 0.  0.
          5    1    3    3  502    0  0.25160042355E+02 -0.18810251843E+01  0.49135382215E+02  0.55392455916E+02  0.41800000000E+01 0.  1.
         -5    1    3    3    0  502 -0.48032378475E+02 -0.11265427490E+02 -0.52969323195E+02  0.72506833045E+02  0.41800000000E+01 0.  1.
        -11    1    1    2    0    0  0.61180213256E+01  0.14289147340E+02  0.29896974258E+02  0.33696275557E+02  0.00000000000E+00 0.  1.
         11    1    1    2    0    0  0.16754314794E+02 -0.11426946659E+01 -0.50301546022E+02  0.53030730218E+02  0.00000000000E+00 0. -1.
</event>
<event>
 7    1  0.2855090E-009  0.9302551E+02  0.7561462E-02  0.1295686E+00
         -1   -1    0    0    0  501 -0.00000000000E+00  0.00000000000E+00  0.31346127613E+02  0.31346127613E+02  0.00000000000E+00 0.  1.
          1   -1    0    0  501    0  0.00000000000E+00 -0.00000000000E+00 -0.32308319147E+03  0.32308319147E+03  0.00000000000E+00 0. -1.
         25    2    1    2    0    0  0.26318122427E+02 -0.52898897139E+01 -0.18004055961E+03  0.22086878789E+03  0.12509113421E+03 0.  0.
          5    1    3    3  502    0  0.63195770448E+02 -0.28609041633E+02 -0.55806594682E+02  0.89129294150E+02  0.41800000000E+01 0.  1.
         -5    1    3    3    0  502 -0.36877648021E+02  0.23319151919E+02 -0.12423396493E+03  0.13173949374E+03  0.41800000000E+01 0.  1.
        -11    1    1    2    0    0 -0.45444324448E+01 -0.30496790196E+02 -0.39740804772E+02  0.50299479544E+02  0.00000000000E+00 0.  1.
         11    1    1    2    0    0 -0.21773689982E+02  0.35786679910E+02 -0.71955699482E+02  0.83261051654E+02  0.00000000000E+00 0. -1.
</event>
<event>
 7    1  0.2855090E-009  0.8294801E+02  0.7561462E-02  0.1320888E+00
          1   -1    0    0  501    0  0.00000000000E+00  0.00000000000E+00  0.43808645464E+02  0.43808645464E+02  0.00000000000E+00 0. -1.
         -1   -1    0    0    0  501 -0.00000000000E+00 -0.00000000000E+00 -0.40705539466E+03  0.40705539466E+03  0.00000000000E+00 0.  1.
         25    2    1    2    0    0 -0.16738709244E+02  0.38236599955E+02 -0.31107557296E+03  0.33787250070E+03  0.12509033805E+03 0.  0.
          5    1    3    3  502    0 -0.28737047232E+02 -0.22541681901E+02 -0.24287132487E+03  0.24563773764E+03  0.41800000000E+01 0. -1.
         -5    1    3    3    0  502  0.11998337988E+02  0.60778281856E+02 -0.68204248085E+02  0.92234763060E+02  0.41800000000E+01 0. -1.
        -11    1    1    2    0    0 -0.19130589960E+02 -0.11711785728E+02 -0.63178502008E+02  0.67042288991E+02  0.00000000000E+00 0.  1.
         11    1    1    2    0    0  0.35869299204E+02 -0.26524814227E+02  0.11007325768E+02  0.45949250438E+02  0.00000000000E+00 0. -1.
</event>
<event>
 7    1  0.2855090E-009  0.1308856E+03  0.7561462E-02  0.1226148E+00
          2   -1    0    0  501    0  0.00000000000E+00  0.00000000000E+00  0.46515955141E+02  0.46515955141E+02  0.00000000000E+00 0. -1.
         -2   -1    0    0    0  501 -0.00000000000E+00 -0.00000000000E+00 -0.37077822752E+03  0.37077822752E+03  0.00000000000E+00 0.  1.
         25    2    1    2    0    0  0.63934102808E+02  0.36783123437E+02 -0.17108220074E+03  0.22439968037E+03  0.12508209091E+03 0.  0.
          5    1    3    3  502    0  0.86766862192E+02 -0.14662606362E+02 -0.11464298048E+03  0.14458203821E+03  0.41800000000E+01 0. -1.
         -5    1    3    3    0  502 -0.22832759384E+02  0.51445729799E+02 -0.56439220262E+02  0.79817642157E+02  0.41800000000E+01 0. -1.
        -11    1    1    2    0    0 -0.51966871582E+02  0.22592353105E+02 -0.73740425527E+02  0.92997959750E+02  0.00000000000E+00 0. -1.
         11    1    1    2    0    0 -0.11967231226E+02 -0.59375476542E+02 -0.79439646108E+02  0.99896542541E+02  0.00000000000E+00 0.  1.
</event>
<event>
 7    1  0.2855090E-009  0.1329775E+03  0.7561462E-02  0.1223103E+00
         -1   -1    0    0    0  501 -0.00000000000E+00  0.00000000000E+00  0.13405684101E+02  0.13405684101E+02  0.00000000000E+00 0.  1.
          1   -1    0    0  501    0  0.00000000000E+00 -0.00000000000E+00 -0.15951372026E+04  0.15951372026E+04  0.00000000000E+00 0. -1.
         25    2    1    2    0    0  0.21326578625E+02 -0.79732322213E+02 -0.11571975763E+04  0.11668615238E+04  0.12509004326E+03 0.  0.
          5    1    3    3  502    0  0.34965041816E+02  0.25613429704E+02 -0.32902568461E+03  0.33189452461E+03  0.41800000000E+01 0. -1.
         -5    1    3    3    0  502 -0.13638463191E+02 -0.10534575192E+03 -0.82817189173E+03  0.83496699922E+03  0.41800000000E+01 0. -1.
        -11    1    1    2    0    0 -0.58679215356E+01 -0.17082724109E+02 -0.28896545771E+02  0.34077299242E+02  0.00000000000E+00 0.  1.
         11    1    1    2    0    0 -0.15458657089E+02  0.96815046323E+02 -0.39563739637E+03  0.40760406362E+03  0.00000000000E+00 0. -1.
</event>
<event>
 7    1  0.2855090E-009  0.7856039E+02  0.7561462E-02  0.1333187E+00
         -4   -1    0    0    0  501 -0.00000000000E+00  0.00000000000E+00  0.27915339428E+03  0.27915339428E+03  0.00000000000E+00 0.  1.
          4   -1    0    0  501    0  0.00000000000E+00 -0.00000000000E+00 -0.68017438853E+02  0.68017438853E+02  0.00000000000E+00 0. -1.
         25    2    1    2    0    0  0.93938473114E+01 -0.61803587612E+02  0.18399117994E+03  0.23110165847E+03  0.12508914599E+03 0.  0.
          5    1    3    3  502    0 -0.19512429391E+02 -0.57132218124E+02  0.19129157161E+03  0.20063589663E+03  0.41800000000E+01 0.  1.
         -5    1    3    3    0  502  0.28906276702E+02 -0.46713694875E+01 -0.73003916735E+01  0.30465761836E+02  0.41800000000E+01 0.  1.
        -11    1    1    2    0    0 -0.13476204715E+02  0.15486253198E+02 -0.33719237541E+02  0.39476817399E+02  0.00000000000E+00 0.  1.
         11    1    1    2    0    0  0.40823574033E+01  0.46317334413E+02  0.60864013032E+02  0.76592357266E+02  0.00000000000E+00 0. -1.
</event>
<event>
 7    1  0.2855090E-009  0.1283236E+03  0.7561462E-02  0.1229965E+00
         -1   -1    0    0    0  501 -0.00000000000E+00  0.00000000000E+00  0.42298852462E+03  0.42298852462E+03  0.00000000000E+00 0.  1.
          1   -1    0    0  501    0  0.00000000000E+00 -0.00000000000E+00 -0.48971926264E+02  0.48971926264E+02  0.00000000000E+00 0. -1.
         25    2    1    2    0    0 -0.18098264347E+02 -0.77446415381E+02  0.11723371628E+03  0.18899020609E+03  0.12509220335E+03 0.  0.
          5    1    3    3  502    0 -0.22022825909E+02  0.26420458362E+02  0.34471094698E+01  0.34819541134E+02  0.41800000000E+01 0.  1.
         -5    1    3    3    0  502  0.39245615628E+01 -0.10386687374E+03  0.11378660681E+03  0.15417066496E+03  0.41800000000E+01 0.  1.
        -11    1    1    2    0    0 -0.31111003752E+02  0.67464917759E+01  0.54605478861E+02  0.63207341562E+02  0.00000000000E+00 0.  1.
         11    1    1    2    0    0  0.49209268098E+02  0.70699923605E+02  0.20217740321E+03  0.21976290322E+03  0.00000000000E+00 0. -1.
</event>
<event>
 7    1  0.2855090E-009  0.1159342E+03  0.7561462E-02  0.1249959E+00
          1   -1    0    0  501    0  0.00000000000E+00  0.00000000000E+00  0.29379744104E+03  0.29379744104E+03  0.00000000000E+00 0. -1.
         -1   -1    0    0    0  501 -0.00000000000E+00 -0.00000000000E+00 -0.76656652731E+02  0.76656652731E+02  0.00000000000E+00 0.  1.
         25    2    1    2    0    0 -0.49144715830E+02  0.85919435451E+02  0.14791223323E+03  0.21753671482E+03  0.12508733379E+03 0.  0.
          5    1    3    3  502    0  0.16449612846E+02  0.51469909524E+02  0.24645988609E+01  0.54252078271E+02  0.41800000000E+01 0.  1.
         -5    1    3    3    0  502 -0.65594328676E+02  0.34449525927E+02  0.14544763437E+03  0.16328463655E+03  0.41800000000E+01 0.  1.
        -11    1    1    2    0    0  0.34378021281E+02 -0.29998442193E+02  0.81859670733E+02  0.93716383700E+02  0.00000000000E+00 0. -1.
         11    1    1    2    0    0  0.14766694549E+02 -0.55920993258E+02 -0.12631115659E+02  0.59200995242E+02  0.00000000000E+00 0.  1.
</event>
<event>
 7    1  0.2855090E-009  0.1037969E+03  0.7561462E-02  0.1272508E+00
         -1   -1    0    0    0  501 -0.00000000000E+00  0.00000000000E+00  0.10753349883E+02  0.10753349883E+02  0.00000000000E+00 0.  1.
          1   -1    0    0  501    0  0.00000000000E+00 -0.00000000000E+00 -0.14206903074E+04  0.14206903074E+04  0.00000000000E+00 0. -1.
         25    2    1    2    0    0 -0.52395366139E+02 -0.24295506225E+02 -0.87504109072E+03  0.88581902162E+03  0.12507151000E+03 0.  0.
          5    1    3    3  502    0 -0.69191573801E+02 -0.36914749717E+02 -0.29176469713E+03  0.30214943906E+03  0.41800000000E+01 0.  1.
         -5    1    3    3    0  502  0.16796207662E+02  0.12619243492E+02 -0.58327639359E+03  0.58366958257E+03  0.41800000000E+01 0.  1.
        -11    1    1    2    0    0  0.78594658835E+02  0.16542525724E+02 -0.39343246837E+03  0.40154686242E+03  0.00000000000E+00 0.  1.
         11    1    1    2    0    0 -0.26199292696E+02  0.77529805010E+01 -0.14146339843E+03  0.14407777323E+03  0.00000000000E+00 0. -1.
</event>
<event>
 7    1  0.2855090E-009  0.1746790E+03  0.7561462E-02  0.1173054E+00
          1   -1    0    0  501    0  0.00000000000E+00  0.00000000000E+00  0.13306612683E+04  0.13306612683E+04  0.00000000000E+00 0. -1.
         -1   -1    0    0    0  501 -0.00000000000E+00 -0.00000000000E+00 -0.43927867988E+02  0.43927867988E+02  0.00000000000E+00 0.  1.
         25    2    1    2    0    0 -0.43292076812E+01 -0.14452606148E+03  0.11216573536E+04  0.11378344703E+04  0.12508212645E+03 0.  0.
          5    1    3    3  502    0  0.37382930879E+02 -0.25081266110E-01  0.15268710320E+03  0.15725237052E+03  0.41800000000E+01 0.  1.
         -5    1    3    3    0  502 -0.41712138560E+02 -0.14450098021E+03  0.96897025045E+03  0.98058209979E+03  0.41800000000E+01 0.  1.
        -11    1    1    2    0    0 -0.33420021437E+02  0.76581848936E+02  0.48408212443E+02  0.96566207605E+02  0.00000000000E+00 0.  1.
         11    1    1    2    0    0  0.37749229118E+02  0.67944212540E+02  0.11666783419E+03  0.14018845834E+03  0.00000000000E+00 0. -1.
</event>
<event>
 7    1  0.2929824E-009  0.8512495E+02  0.7561462E-02  0.1315106E+00
          1   -1    0    0  501    0  0.00000000000E+00  0.00000000000E+00  0.19666660253E+03  0.19666660253E+03  0.00000000000E+00 0. -1.
         -1   -1    0    0    0  501 -0.00000000000E+00 -0.00000000000E+00 -0.74713723708E+02  0.74713723708E+02  0.00000000000E+00 0.  1.
         25    2    1    2    0    0 -0.32712587053E+02 -0.16323475433E+01  0.21186022413E+02  0.13100248177E+03  0.12506008466E+03 0.  0.
          5    1    3    3  502    0  0.73576290668E+01  0.35504665092E+02  0.55445590184E+02  0.66380733799E+02  0.41800000000E+01 0. -1.
         -5    1    3    3    0  502 -0.40070216120E+02 -0.37137012635E+02 -0.34259567771E+02  0.64621747974E+02  0.41800000000E+01 0. -1.
        -11    1    1    2    0    0  0.23019059652E+02  0.36287402957E+02  0.94552917720E+02  0.10386003548E+03  0.00000000000E+00 0. -1.
         11    1    1    2    0    0  0.96935274010E+01 -0.34655055414E+02  0.62139386928E+01  0.36517808988E+02  0.00000000000E+00 0.  1.
</event>
<event>
 7    1  0.2855090E-009  0.1559308E+03  0.7561462E-02  0.1193369E+00
         -1   -1    0    0    0  501 -0.00000000000E+00  0.00000000000E+00  0.17263953030E+02  0.17263953030E+02  0.00000000000E+00 0.  1.
          1   -1    0    0  501    0  0.00000000000E+00 -0.00000000000E+00 -0.18169596369E+04  0.18169596369E+04  0.00000000000E+00 0. -1.
         25    2    1    2    0    0 -0.57129164939E+02 -0.10458985163E+03 -0.13504650425E+04  0.13614716971E+04  0.12508625927E+03 0.  0.
          5    1    3    3  502    0 -0.62910227530E+02 -0.12744196968E+03 -0.98327310010E+03  0.99350018326E+03  0.41800000000E+01 0. -1.
         -5    1    3    3    0  502  0.57810625906E+01  0.22852118042E+02 -0.36719194243E+03  0.36797151380E+03  0.41800000000E+01 0. -1.
        -11    1    1    2    0    0  0.76171138841E+02  0.59060505181E+02 -0.32777279656E+03  0.34165068685E+03  0.00000000000E+00 0.  1.
         11    1    1    2    0    0 -0.19041973902E+02  0.45529346454E+02 -0.12145784478E+03  0.13110120601E+03  0.00000000000E+00 0. -1.
</event>
<event>
 7    1  0.2855090E-009  0.1184100E+03  0.7561462E-02  0.1245743E+00
          2   -1    0    0  501    0  0.00000000000E+00  0.00000000000E+00  0.27978429853E+03  0.27978429853E+03  0.00000000000E+00 0. -1.
         -2   -1    0    0    0  501 -0.00000000000E+00 -0.00000000000E+00 -0.99629908266E+02  0.99629908266E+02  0.00000000000E+00 0.  1.
         25    2    1    2    0    0  0.43935687911E+02 -0.58259231988E+02 -0.21617686136E+02  0.14642377626E+03  0.12509242629E+03 0.  0.
          5    1    3    3  502    0  0.70749646121E+02 -0.62415195157E+02  0.20031878824E+02  0.96539720229E+02  0.41800000000E+01 0. -1.
         -5    1    3    3    0  502 -0.26813958210E+02  0.41559631688E+01 -0.41649564959E+02  0.49884056030E+02  0.41800000000E+01 0. -1.
        -11    1    1    2    0    0 -0.67282535043E+02  0.20150059771E+02  0.10408480148E+03  0.12556516367E+03  0.00000000000E+00 0. -1.
         11    1    1    2    0    0  0.23346847132E+02  0.38109172217E+02  0.97687274928E+02  0.10742526686E+03  0.00000000000E+00 0.  1.
</event>
<event>
 7    1  0.2855090E-009  0.1020704E+03  0.7561462E-02  0.1276001E+00
          1   -1    0    0  501    0  0.00000000000E+00  0.00000000000E+00  0.41804367040E+02  0.41804367040E+02  0.00000000000E+00 0. -1.
         -1   -1    0    0    0  501 -0.00000000000E+00 -0.00000000000E+00 -0.29494499007E+03  0.29494499007E+03  0.00000000000E+00 0.  1.
         25    2    1    2    0    0  0.22649999219E+02  0.10742414857E+02 -0.16848467089E+03  0.21133862542E+03  0.12509399798E+03 0.  0.
          5    1    3    3  502    0 -0.32542221070E+02 -0.40445027409E+02 -0.64538117814E+02  0.82930316805E+02  0.41800000000E+01 0. -1.
         -5    1    3    3    0  502  0.55192220290E+02  0.51187442267E+02 -0.10394655307E+03  0.12840830862E+03  0.41800000000E+01 0. -1.
        -11    1    1    2    0    0  0.13927514103E+02 -0.31621797950E+02 -0.44756312560E+01  0.34841713934E+02  0.00000000000E+00 0. -1.
         11    1    1    2    0    0 -0.36577513323E+02  0.20879383093E+02 -0.80180320886E+02  0.90569017752E+02  0.00000000000E+00 0.  1.
</event>
<event>
 7    1  0.2855090E-009  0.7509550E+02  0.7561462E-02  0.1343576E+00
         -1   -1    0    0    0  501 -0.00000000000E+00  0.00000000000E+00  0.82274693019E+02  0.82274693019E+02  0.00000000000E+00 0.  1.
          1   -1    0    0  501    0  0.00000000000E+00 -0.00000000000E+00 -0.14222762385E+03  0.14222762385E+03  0.00000000000E+00 0. -1.
         25    2    1    2    0    0 -0.20932682765E+01  0.16225811885E+02 -0.28913839280E+02  0.12942696948E+03  0.12509065346E+03 0.  0.
          5    1    3    3  502    0  0.25493164332E+02 -0.98537731296E+01  0.41181482935E+02  0.49602270203E+02  0.41800000000E+01 0.  1.
         -5    1    3    3    0  502 -0.27586432608E+02  0.26079585015E+02 -0.70095322215E+02  0.79824699280E+02  0.41800000000E+01 0.  1.
        -11    1    1    2    0    0 -0.16663918523E+02 -0.46131317157E+02 -0.15426522951E+01  0.49073051457E+02  0.00000000000E+00 0.  1.
         11    1    1    2    0    0  0.18757186800E+02  0.29905505271E+02 -0.29496439257E+02  0.46002295932E+02  0.00000000000E+00 0. -1.
</event>
<event>
 7    1  0.2855090E-009  0.1902382E+03  0.7561462E-02  0.1158247E+00
         -2   -1    0    0    0  501 -0.00000000000E+00  0.00000000000E+00  0.80289269896E+03  0.80289269896E+03  0.00000000000E+00 0.  1.
          2   -1    0    0  501    0  0.00000000000E+00 -0.00000000000E+00 -0.48871621929E+02  0.48871621929E+02  0.00000000000E+00 0. -1.
         25    2    1    2    0    0 -0.14226174201E+03 -0.69851962508E+02  0.49825569923E+03  0.53760952466E+03  0.12509020459E+03 0.  0.
          5    1    3    3  502    0  0.19886976928E+02 -0.20096815538E+02  0.11465944682E+03  0.11816782553E+03  0.41800000000E+01 0. -1.
         -5    1    3    3    0  502 -0.16214871894E+03 -0.49755146970E+02  0.38359625241E+03  0.41944169913E+03  0.41800000000E+01 0. -1.
        -11    1    1    2    0    0  0.76294829291E+02  0.85341161059E+02  0.15372303248E+03  0.19166320842E+03  0.00000000000E+00 0. -1.
         11    1    1    2    0    0  0.65966912717E+02 -0.15489198551E+02  0.10204234533E+03  0.12249158782E+03  0.00000000000E+00 0.  1.
</event>
<event>
 7    1  0.2855090E-009  0.1106318E+03  0.7561462E-02  0.1259404E+00
          2   -1    0    0  501    0  0.00000000000E+00  0.00000000000E+00  0.89007108509E+02  0.89007108509E+02  0.00000000000E+00 0.  1.
         -2   -1    0    0    0  501 -0.00000000000E+00 -0.00000000000E+00 -0.16726825828E+03  0.16726825828E+03  0.00000000000E+00 0. -1.
         25    2    1    2    0    0 -0.54033541033E+02 -0.21567998349E+02 -0.53967882428E+02  0.14813429793E+03  0.12508571373E+03 0.  0.
          5    1    3    3  502    0 -0.36961561565E+01 -0.55021305655E+02  0.14036663013E+02  0.57057041238E+02  0.41800000000E+01 0.  1.
         -5    1    3    3    0  502 -0.50337384877E+02  0.33453307306E+02 -0.68004545440E+02  0.91077256691E+02  0.41800000000E+01 0.  1.
        -11    1    1    2    0    0 -0.35684643528E+01  0.43569193555E+02 -0.98157570060E+01  0.44803545066E+02  0.00000000000E+00 0.  1.
         11    1    1    2    0    0  0.57602005386E+02 -0.22001195206E+02 -0.14477510340E+02  0.63337523796E+02  0.00000000000E+00 0. -1.
</event>
<event>
 7    1  0.2855090E-009  0.9555718E+02  0.7561462E-02  0.1289926E+00
         -2   -1    0    0    0  501 -0.00000000000E+00  0.00000000000E+00  0.12147562422E+03  0.12147562422E+03  0.00000000000E+00 0.  1.
          2   -1    0    0  501    0  0.00000000000E+00 -0.00000000000E+00 -0.11832915581E+03  0.11832915581E+03  0.00000000000E+00 0. -1.
         25    2    1    2    0    0  0.17233122135E+02  0.48429141939E+02 -0.42411981267E+01  0.13530552329E+03  0.12508890672E+03 0.  0.
          5    1    3    3  502    0 -0.11841243298E+02  0.68759528122E+02  0.38342241579E+02  0.79722566690E+02  0.41800000000E+01 0.  1.
         -5    1    3    3    0  502  0.29074365434E+02 -0.20330386183E+02 -0.42583439706E+02  0.55582956604E+02  0.41800000000E+01 0.  1.
        -11    1    1    2    0    0  0.15289888563E+02  0.10248406134E+02  0.28710411437E+02  0.34104226211E+02  0.00000000000E+00 0.  1.
         11    1    1    2    0    0 -0.32523010699E+02 -0.58677548073E+02 -0.21322744898E+02  0.70395030526E+02  0.00000000000E+00 0. -1.
</event>
<event>
 7    1  0.2855090E-009  0.9560738E+02  0.7561462E-02  0.1289814E+00
          2   -1    0    0  501    0  0.00000000000E+00  0.00000000000E+00  0.48605004949E+03  0.48605004949E+03  0.00000000000E+00 0. -1.
         -2   -1    0    0    0  501 -0.00000000000E+00 -0.00000000000E+00 -0.21938386618E+02  0.21938386618E+02  0.00000000000E+00 0.  1.
         25    2    1    2    0    0  0.51399800597E+02 -0.18460310478E+02  0.37704981628E+03  0.40099456686E+03  0.12508939254E+03 0.  0.
          5    1    3    3  502    0  0.91453752902E+02  0.20737151929E+00  0.23645352075E+03  0.25355782732E+03  0.41800000000E+01 0. -1.
         -5    1    3    3    0  502 -0.40053952305E+02 -0.18667681997E+02  0.14059629553E+03  0.14743673953E+03  0.41800000000E+01 0. -1.
        -11    1    1    2    0    0 -0.32555294322E+02  0.72571968477E+01  0.26543921498E+02  0.42627383956E+02  0.00000000000E+00 0.  1.
         11    1    1    2    0    0 -0.18844506275E+02  0.11203113630E+02  0.60517925098E+02  0.64366485301E+02  0.00000000000E+00 0. -1.
</event>
<event>
 7    1  0.2855090E-009  0.1837105E+03  0.7561462E-02  0.1164260E+00
         -2   -1    0    0    0  501 -0.00000000000E+00  0.00000000000E+00  0.19581944553E+03  0.19581944553E+03  0.00000000000E+00 0. -1.
          2   -1    0    0  501    0  0.00000000000E+00 -0.00000000000E+00 -0.23679393009E+03  0.23679393009E+03  0.00000000000E+00 0.  1.
         25    2    1    2    0    0  0.16522859204E+03  0.75160322762E+02 -0.57764097403E+02  0.22788835482E+03  0.12508736774E+03 0.  0.
          5    1    3    3  502    0  0.25079405417E+02  0.22122663087E+01  0.35990181298E+02  0.44120700903E+02  0.41800000000E+01 0. -1.
         -5    1    3    3    0  502  0.14014918663E+03  0.72948056453E+02 -0.93754278702E+02  0.18376765392E+03  0.41800000000E+01 0. -1.
        -11    1    1    2    0    0 -0.68584371402E+02 -0.15641632905E+02 -0.36596056118E+02  0.79295321451E+02  0.00000000000E+00 0.  1.
         11    1    1    2    0    0 -0.96644220642E+02 -0.59518689857E+02  0.53385668963E+02  0.12542969934E+03  0.00000000000E+00 0. -1.
</event>
<event>
 7    1  0.2855090E-009  0.9345262E+02  0.7561462E-02  0.1294700E+00
          2   -1    0    0  501    0  0.00000000000E+00  0.00000000000E+00  0.10169293462E+04  0.10169293462E+04  0.00000000000E+00 0. -1.
         -2   -1    0    0    0  501 -0.00000000000E+00 -0.00000000000E+00 -0.23652333337E+02  0.23652333337E+02  0.00000000000E+00 0.  1.
         25    2    1    2    0    0  0.38759138952E+02 -0.37755111109E+01  0.86876520344E+03  0.87858841887E+03  0.12509238879E+03 0.  0.
          5    1    3    3  502    0  0.72570565089E+02 -0.29205243289E+02  0.70712175911E+03  0.71144788127E+03  0.41800000000E+01 0.  1.
         -5    1    3    3    0  502 -0.33811426137E+02  0.25429732178E+02  0.16164344433E+03  0.16714053760E+03  0.41800000000E+01 0.  1.
        -11    1    1    2    0    0  0.70193284561E+01 -0.15010531634E+02 -0.95256702124E+01  0.19113488036E+02  0.00000000000E+00 0.  1.
         11    1    1    2    0    0 -0.45778467408E+02  0.18786042745E+02  0.13403747968E+03  0.14287977268E+03  0.00000000000E+00 0. -1.
</event>
<event>
 7    1  0.2855090E-009  0.1095454E+03  0.7561462E-02  0.1261414E+00
          1   -1    0    0  501    0  0.00000000000E+00  0.00000000000E+00  0.11879570239E+03  0.11879570239E+03  0.00000000000E+00 0. -1.
         -1   -1    0    0    0  501 -0.00000000000E+00 -0.00000000000E+00 -0.20039683768E+03  0.20039683768E+03  0.00000000000E+00 0.  1.
         25    2    1    2    0    0 -0.15168596051E+02 -0.15373900906E+02 -0.15189623088E+03  0.19795548956E+03  0.12508983875E+03 0.  0.
          5    1    3    3  502    0  0.11673135044E+02 -0.64225092445E+02 -0.52311777764E+02  0.83756307668E+02  0.41800000000E+01 0.  1.
         -5    1    3    3    0  502 -0.26841731095E+02  0.48851191540E+02 -0.99584453116E+02  0.11419918190E+03  0.41800000000E+01 0.  1.
        -11    1    1    2    0    0  0.19986166427E+02 -0.38667812096E+02  0.22840848602E+02  0.49156392317E+02  0.00000000000E+00 0.  1.
         11    1    1    2    0    0 -0.48175703755E+01  0.54041713002E+02  0.47454246982E+02  0.72080658190E+02  0.00000000000E+00 0. -1.
</event>
<event>
 7    1  0.2855090E-009  0.1155727E+03  0.7561462E-02  0.1250585E+00
         -2   -1    0    0    0  501 -0.00000000000E+00  0.00000000000E+00  0.11907098082E+03  0.11907098082E+03  0.00000000000E+00 0.  1.
          2   -1    0    0  501    0  0.00000000000E+00 -0.00000000000E+00 -0.12264886372E+03  0.12264886372E+03  0.00000000000E+00 0. -1.
         25    2    1    2    0    0  0.19527242648E+02 -0.10944739751E+02  0.32117413352E+02  0.13106755026E+03  0.12508426742E+03 0.  0.
          5    1    3    3  502    0  0.48178301049E+02 -0.55289402565E+02  0.12067969207E+02  0.74439069102E+02  0.41800000000E+01 0. -1.
         -5    1    3    3    0  502 -0.28651058401E+02  0.44344662814E+02  0.20049444145E+02  0.56628481157E+02  0.41800000000E+01 0. -1.
        -11    1    1    2    0    0 -0.60822112302E+02  0.16609318489E+02 -0.20911468676E+02  0.66426563419E+02  0.00000000000E+00 0.  1.
         11    1    1    2    0    0  0.41294869654E+02 -0.56645787379E+01 -0.14783827573E+02  0.44225730856E+02  0.00000000000E+00 0. -1.
</event>
<event>
 7    1  0.2855090E-009  0.1154434E+03  0.7561462E-02  0.1250809E+00
         -1   -1    0    0    0  501 -0.00000000000E+00  0.00000000000E+00  0.30368706597E+03  0.30368706597E+03  0.00000000000E+00 0.  1.
          1   -1    0    0  501    0  0.00000000000E+00 -0.00000000000E+00 -0.65171791299E+02  0.65171791299E+02  0.00000000000E+00 0. -1.
         25    2    1    2    0    0  0.77922980448E+01  0.73287214766E+02  0.19256664652E+03  0.24116862311E+03  0.12509458687E+03 0.  0.
          5    1    3    3  502    0  0.15221833948E+02 -0.15801171145E+02 -0.62031614915E+01  0.23180441126E+02  0.41800000000E+01 0.  1.
         -5    1    3    3    0  502 -0.74295359031E+01  0.89088385911E+02  0.19876980801E+03  0.21798818198E+03  0.41800000000E+01 0.  1.
        -11    1    1    2    0    0  0.37832082154E+02 -0.61045925180E+02  0.30002864527E+02  0.77833433054E+02  0.00000000000E+00 0.  1.
         11    1    1    2    0    0 -0.45624380199E+02 -0.12241289586E+02  0.15945763631E+02  0.49856801111E+02  0.00000000000E+00 0. -1.
</event>
<event>
 7    1  0.2855090E-009  0.2103901E+03  0.7561462E-02  0.1141257E+00
          2   -1    0    0  501    0  0.00000000000E+00  0.00000000000E+00  0.11957038818E+04  0.11957038818E+04  0.00000000000E+00 0. -1.
         -2   -1    0    0    0  501 -0.00000000000E+00 -0.00000000000E+00 -0.62288505238E+02  0.62288505238E+02  0.00000000000E+00 0.  1.
         25    2    1    2    0    0 -0.18525379948E+03  0.63162330378E+01  0.96995315936E+03  0.99539752415E+03  0.12509290437E+03 0.  0.
          5    1    3    3  502    0 -0.12077587136E+02  0.42065895142E+02  0.13738345111E+03  0.14424663838E+03  0.41800000000E+01 0.  1.
         -5    1    3    3    0  502 -0.17317621235E+03 -0.35749662104E+02  0.83256970825E+03  0.85115088578E+03  0.41800000000E+01 0.  1.
        -11    1    1    2    0    0  0.70712846146E+02 -0.39093753430E+02  0.96741423145E+02  0.12604575010E+03  0.00000000000E+00 0. -1.
         11    1    1    2    0    0  0.11454095334E+03  0.32777520392E+02  0.66720794011E+02  0.13654911273E+03  0.00000000000E+00 0.  1.
</event>
<event>
 7    1  0.2855090E-009  0.9216453E+02  0.7561462E-02  0.1297693E+00
          2   -1    0    0  501    0  0.00000000000E+00  0.00000000000E+00  0.68795903888E+03  0.68795903888E+03  0.00000000000E+00 0.  1.
         -2   -1    0    0    0  501 -0.00000000000E+00 -0.00000000000E+00 -0.26818317701E+02  0.26818317701E+02  0.00000000000E+00 0. -1.
         25    2    1    2    0    0  0.37086193487E+00 -0.22562969802E+02  0.57768566428E+03  0.59150396189E+03  0.12508790934E+03 0.  0.
          5    1    3    3  502    0 -0.57576835046E+02 -0.17926826718E+02  0.18786665337E+03  0.19735200759E+03  0.41800000000E+01 0.  1.
         -5    1    3    3    0  502  0.57947696981E+02 -0.46361430843E+01  0.38981901091E+03  0.39415195430E+03  0.41800000000E+01 0.  1.
        -11    1    1    2    0    0 -0.29713889183E+02  0.20269480938E+01  0.82207554358E+02  0.87436295224E+02  0.00000000000E+00 0.  1.
         11    1    1    2    0    0  0.29343027248E+02  0.20536021708E+02  0.12475025339E+01  0.35837099468E+02  0.00000000000E+00 0. -1.
</event>
<event>
 7    1  0.2855090E-009  0.1253060E+03  0.7561462E-02  0.1234592E+00
          1   -1    0    0  501    0  0.00000000000E+00  0.00000000000E+00  0.10390029224E+04  0.10390029224E+04  0.00000000000E+00 0. -1.
         -1   -1    0    0    0  501 -0.00000000000E+00 -0.00000000000E+00 -0.24093879948E+02  0.24093879948E+02  0.00000000000E+00 0.  1.
         25    2    1    2    0    0 -0.24756770671E+02  0.76028749348E+02  0.82341332734E+03  0.83668985087E+03  0.12508849065E+03 0.  0.
          5    1    3    3  502    0 -0.83678807786E+01  0.10009798577E+03  0.76189973980E+03  0.76850394540E+03  0.41800000000E+01 0. -1.
         -5    1    3    3    0  502 -0.16388889893E+02 -0.24069236417E+02  0.61513587536E+02  0.68185905473E+02  0.41800000000E+01 0. -1.
        -11    1    1    2    0    0 -0.27329560496E+02  0.13741202278E+01  0.39195533745E+02  0.47802541239E+02  0.00000000000E+00 0. -1.
         11    1    1    2    0    0  0.52086331167E+02 -0.77402869576E+02  0.15230018141E+03  0.17860441028E+03  0.00000000000E+00 0.  1.
</event>
<event>
 7    1  0.2855090E-009  0.1490520E+03  0.7561462E-02  0.1201643E+00
          2   -1    0    0  501    0  0.00000000000E+00  0.00000000000E+00  0.12632493536E+04  0.12632493536E+04  0.00000000000E+00 0. -1.
         -2   -1    0    0    0  501 -0.00000000000E+00 -0.00000000000E+00 -0.22627308730E+02  0.22627308730E+02  0.00000000000E+00 0.  1.
         25    2    1    2    0    0 -0.27590562188E+02  0.10217853748E+03  0.93627382800E+03  0.95050489942E+03  0.12509672326E+03 0.  0.
          5    1    3    3  502    0  0.46587234623E+02  0.17416033743E+02  0.34389726456E+03  0.34750034479E+03  0.41800000000E+01 0. -1.
         -5    1    3    3    0  502 -0.74177796810E+02  0.84762503732E+02  0.59237656345E+03  0.60300455463E+03  0.41800000000E+01 0. -1.
        -11    1    1    2    0    0 -0.26196540018E+02 -0.65033969668E+02  0.11115266853E+03  0.13141762302E+03  0.00000000000E+00 0.  1.
         11    1    1    2    0    0  0.53787102206E+02 -0.37144567807E+02  0.19319554835E+03  0.20395413991E+03  0.00000000000E+00 0. -1.
</event>
<event>
 7    1  0.2855090E-009  0.1130158E+03  0.7561462E-02  0.1255085E+00
         -2   -1    0    0    0  501 -0.00000000000E+00  0.00000000000E+00  0.34430296929E+02  0.34430296929E+02  0.00000000000E+00 0. -1.
          2   -1    0    0  501    0  0.00000000000E+00 -0.00000000000E+00 -0.58445531406E+03  0.58445531406E+03  0.00000000000E+00 0.  1.
         25    2    1    2    0    0  0.13035876412E+02 -0.58429834635E+02 -0.46044013059E+03  0.48087092699E+03  0.12509098653E+03 0.  0.
          5    1    3    3  502    0  0.51175915213E+01 -0.97451998636E+02 -0.29946685735E+03  0.31499357586E+03  0.41800000000E+01 0.  1.
         -5    1    3    3    0  502  0.79182848908E+01  0.39022164001E+02 -0.16097327324E+03  0.16587735113E+03  0.41800000000E+01 0.  1.
        -11    1    1    2    0    0 -0.26939883643E+02 -0.13211137361E+01 -0.67709173563E+02  0.72883707759E+02  0.00000000000E+00 0.  1.
         11    1    1    2    0    0  0.13904007230E+02  0.59750948371E+02 -0.21875712979E+02  0.65130976245E+02  0.00000000000E+00 0. -1.
</event>
<event>
 7    1  0.2855090E-009  0.1188991E+03  0.7561462E-02  0.1244924E+00
          1   -1    0    0  501    0  0.00000000000E+00  0.00000000000E+00  0.27004780792E+03  0.27004780792E+03  0.00000000000E+00 0. -1.
         -1   -1    0    0    0  501 -0.00000000000E+00 -0.00000000000E+00 -0.69015037693E+02  0.69015037693E+02  0.00000000000E+00 0.  1.
         25    2    1    2    0    0 -0.46082767651E+02 -0.59664215811E+02  0.74274853218E+02  0.16385445855E+03  0.12509232447E+03 0.  0.
          5    1    3    3  502    0 -0.21406614544E+02 -0.88946736748E+02  0.14470705479E+02  0.92718061032E+02  0.41800000000E+01 0.  1.
         -5    1    3    3    0  502 -0.24676153107E+02  0.29282520937E+02  0.59804147739E+02  0.71136397515E+02  0.41800000000E+01 0.  1.
        -11    1    1    2    0    0 -0.19713342036E+02  0.29095746723E+02  0.83854257403E+02  0.90921476100E+02  0.00000000000E+00 0. -1.
         11    1    1    2    0    0  0.65796109688E+02  0.30568469088E+02  0.42903659605E+02  0.84286910964E+02  0.00000000000E+00 0.  1.
</event>
<event>
 7    1  0.2855090E-009  0.6993780E+02  0.7561462E-02  0.1360305E+00
         -1   -1    0    0    0  501 -0.00000000000E+00  0.00000000000E+00  0.73043307577E+02  0.73043307577E+02  0.00000000000E+00 0.  1.
          1   -1    0    0  501    0  0.00000000000E+00 -0.00000000000E+00 -0.29017280667E+03  0.29017280667E+03  0.00000000000E+00 0. -1.
         25    2    1    2    0    0 -0.58971720243E+02  0.70435861122E+01 -0.21650321351E+03  0.25699624817E+03  0.12508458825E+03 0.  0.
          5    1    3    3  502    0 -0.50769607543E+02  0.27551871340E+02 -0.22547365461E+03  0.23279282632E+03  0.41800000000E+01 0. -1.
         -5    1    3    3    0  502 -0.82021127005E+01 -0.20508285227E+02  0.89704410947E+01  0.24203421848E+02  0.41800000000E+01 0. -1.
        -11    1    1    2    0    0  0.48543705888E+02 -0.45317683086E+01 -0.41460723004E+02  0.64000155135E+02  0.00000000000E+00 0. -1.
         11    1    1    2    0    0  0.10428014356E+02 -0.25118178036E+01  0.40834437426E+02  0.42219710942E+02  0.00000000000E+00 0.  1.
</event>
<event>
 7    1  0.2855090E-009  0.2535253E+03  0.7561462E-02  0.1111097E+00
          2   -1    0    0  501    0  0.00000000000E+00  0.00000000000E+00  0.61471034950E+03  0.61471034950E+03  0.00000000000E+00 0. -1.
         -2   -1    0    0    0  501 -0.00000000000E+00 -0.00000000000E+00 -0.13964309768E+03  0.13964309768E+03  0.00000000000E+00 0.  1.
         25    2    1    2    0    0  0.17787594510E+02 -0.24484455779E+03  0.92628704629E+02  0.29069702543E+03  0.12513763493E+03 0.  0.
          5    1    3    3  502    0 -0.49901813967E+01 -0.11952555925E+03 -0.19096565507E+02  0.12121638684E+03  0.41800000000E+01 0. -1.
         -5    1    3    3    0  502  0.22777775907E+02 -0.12531899854E+03  0.11172527014E+03  0.16948063859E+03  0.41800000000E+01 0. -1.
        -11    1    1    2    0    0 -0.43360024520E+01  0.24633500568E+03  0.34574100370E+03  0.42454278651E+03  0.00000000000E+00 0.  1.
         11    1    1    2    0    0 -0.13451592058E+02 -0.14904478904E+01  0.36697543487E+02  0.39113635242E+02  0.00000000000E+00 0. -1.
</event>
<event>
 7    1  0.2855090E-009  0.9223125E+02  0.7561462E-02  0.1297537E+00
         -1   -1    0    0    0  501 -0.00000000000E+00  0.00000000000E+00  0.14755513236E+02  0.14755513236E+02  0.00000000000E+00 0.  1.
          1   -1    0    0  501    0  0.00000000000E+00 -0.00000000000E+00 -0.80567442568E+03  0.80567442568E+03  0.00000000000E+00 0. -1.
         25    2    1    2    0    0 -0.14020836192E+02 -0.28233053776E+02 -0.48050396754E+03  0.49752597877E+03  0.12511733518E+03 0.  0.
          5    1    3    3  502    0 -0.46967924495E+02 -0.40621961917E+02 -0.11904251644E+03  0.13433064744E+03  0.41800000000E+01 0. -1.
         -5    1    3    3    0  502  0.32947088302E+02  0.12388908141E+02 -0.36146145110E+03  0.36319533134E+03  0.41800000000E+01 0. -1.
        -11    1    1    2    0    0 -0.10218617025E+01 -0.28279105346E+02 -0.13706474979E+03  0.13995534157E+03  0.00000000000E+00 0. -1.
         11    1    1    2    0    0  0.15042697895E+02  0.56512159122E+02 -0.17335019511E+03  0.18294861856E+03  0.00000000000E+00 0.  1.
</event>
<event>
 7    1  0.2855090E-009  0.9003492E+02  0.7561462E-02  0.1302767E+00
         -1   -1    0    0    0  501 -0.00000000000E+00  0.00000000000E+00  0.20910720621E+02  0.20910720621E+02  0.00000000000E+00 0.  1.
          1   -1    0    0  501    0  0.00000000000E+00 -0.00000000000E+00 -0.73547228521E+03  0.73547228521E+03  0.00000000000E+00 0. -1.
         25    2    1    2    0    0  0.50033387785E+01  0.39412895812E+02 -0.27725264689E+03  0.30674913190E+03  0.12509032721E+03 0.  0.
          5    1    3    3  502    0  0.34050669588E+02  0.27186945290E+02 -0.27079307600E+03  0.27430811236E+03  0.41800000000E+01 0.  1.
         -5    1    3    3    0  502 -0.29047330810E+02  0.12225950522E+02 -0.64595708880E+01  0.32441019549E+02  0.41800000000E+01 0.  1.
        -11    1    1    2    0    0  0.11816470704E+02 -0.69251826056E+02 -0.28749465442E+03  0.29595374758E+03  0.00000000000E+00 0.  1.
         11    1    1    2    0    0 -0.16819809482E+02  0.29838930244E+02 -0.14981426328E+03  0.15368012634E+03  0.00000000000E+00 0. -1.
</event>
<event>
 6    1  0.2855090E-009  0.8057076E+02  0.7561462E-02  0.1327439E+00
          2   -1    0    0  501    0  0.00000000000E+00  0.00000000000E+00  0.13604718709E+03  0.13604718709E+03  0.00000000000E+00 0. -1.
         -2   -1    0    0    0  501 -0.00000000000E+00 -0.00000000000E+00 -0.98535675959E+02  0.98535675959E+02  0.00000000000E+00 0.  1.
          5    1    1    2  502    0 -0.21383662883E+02 -0.22927424705E-01 -0.52100996234E+02  0.56473425366E+02  0.41800000000E+01 0. -1.
         -5    1    1    2    0  502  0.19220734374E+02 -0.38008737757E+02  0.60632179717E+02  0.74214785542E+02  0.41800000000E+01 0. -1.
        -11    1    1    2    0    0  0.43709316017E+02  0.32871998242E+02  0.29264601641E+02  0.62028134619E+02  0.00000000000E+00 0.  1.
         11    1    1    2    0    0 -0.41546387507E+02  0.51596669404E+01 -0.28427399229E+00  0.41866517524E+02  0.00000000000E+00 0. -1.
</event>
<event>
 7    1  0.2855090E-009  0.9305345E+02  0.7561462E-02  0.1295621E+00
         -3   -1    0    0    0  501 -0.00000000000E+00  0.00000000000E+00  0.99457539052E+03  0.99457539052E+03  0.00000000000E+00 0.  1.
          3   -1    0    0  501    0  0.00000000000E+00 -0.00000000000E+00 -0.39295458877E+02  0.39295458877E+02  0.00000000000E+00 0. -1.
         25    2    1    2    0    0 -0.57203518648E+02  0.41615758906E+02  0.88769562688E+03  0.89925614976E+03  0.12511587810E+03 0.  0.
          5    1    3    3  502    0 -0.32856359920E+02  0.19405912514E+02  0.84140030068E+03  0.84227552986E+03  0.41800000000E+01 0.  1.
         -5    1    3    3    0  502 -0.24347158728E+02  0.22209846392E+02  0.46295326205E+02  0.56980619892E+02  0.41800000000E+01 0.  1.
        -11    1    1    2    0    0  0.68196760296E+02  0.32821871340E+01  0.52038999930E+02  0.85846539714E+02  0.00000000000E+00 0. -1.
         11    1    1    2    0    0 -0.10993241648E+02 -0.44897946040E+02  0.15545304834E+02  0.48768159930E+02  0.00000000000E+00 0.  1.
</event>
<event>
 7    1  0.2855090E-009  0.9828183E+02  0.7561462E-02  0.1283951E+00
          4   -1    0    0  501    0  0.00000000000E+00  0.00000000000E+00  0.43045102794E+02  0.43045102794E+02  0.00000000000E+00 0.  1.
         -4   -1    0    0    0  501 -0.00000000000E+00 -0.00000000000E+00 -0.36846479197E+03  0.36846479197E+03  0.00000000000E+00 0. -1.
         25    2    1    2    0    0  0.13192328484E+01 -0.15324853547E+02 -0.86646501911E+02  0.15293822441E+03  0.12508354280E+03 0.  0.
          5    1    3    3  502    0  0.50419249639E+02 -0.76639310304E+01  0.20203115202E+01  0.51209282671E+02  0.41800000000E+01 0.  1.
         -5    1    3    3    0  502 -0.49100016791E+02 -0.76609225171E+01 -0.88666813431E+02  0.10172894174E+03  0.41800000000E+01 0.  1.
        -11    1    1    2    0    0  0.13778419651E+02  0.53092461533E+02 -0.17044964762E+03  0.17905791436E+03  0.00000000000E+00 0. -1.
         11    1    1    2    0    0 -0.15097652499E+02 -0.37767607985E+02 -0.68323539650E+02  0.79513756006E+02  0.00000000000E+00 0.  1.
</event>
<event>
 7    1  0.2855090E-009  0.1359410E+03  0.7561462E-02  0.1218897E+00
          2   -1    0    0  501    0  0.00000000000E+00  0.00000000000E+00  0.16814221321E+03  0.16814221321E+03  0.00000000000E+00 0. -1.
         -2   -1    0    0    0  501 -0.00000000000E+00 -0.00000000000E+00 -0.12358053127E+03  0.12358053127E+03  0.00000000000E+00 0.  1.
         25    2    1    2    0    0 -0.83658621326E+02 -0.13866968974E+02 -0.84989802505E+01  0.15136237344E+03  0.12508907897E+03 0.  0.
          5    1    3    3  502    0 -0.49214876321E+01  0.47311571929E+02 -0.18182360633E+02  0.51094779744E+02  0.41800000000E+01 0.  1.
         -5    1    3    3    0  502 -0.78737133694E+02 -0.61178540903E+02  0.96833803822E+01  0.10026759369E+03  0.41800000000E+01 0.  1.
        -11    1    1    2    0    0 -0.14449420769E+02  0.21526580975E+02 -0.45613484158E+01  0.26324614877E+02  0.00000000000E+00 0.  1.
         11    1    1    2    0    0  0.98108042095E+02 -0.76596120014E+01  0.57622010606E+02  0.11403575617E+03  0.00000000000E+00 0. -1.
</event>
<event>
 7    1  0.2855090E-009  0.1324674E+03  0.7561462E-02  0.1223840E+00
         -1   -1    0    0    0  501 -0.00000000000E+00  0.00000000000E+00  0.60226780937E+02  0.60226780937E+02  0.00000000000E+00 0.  1.
          1   -1    0    0  501    0  0.00000000000E+00 -0.00000000000E+00 -0.35326377172E+03  0.35326377172E+03  0.00000000000E+00 0. -1.
         25    2    1    2    0    0  0.66299244740E+02 -0.72000620483E+02 -0.15974628545E+03  0.22526332280E+03  0.12508001310E+03 0.  0.
          5    1    3    3  502    0  0.68109860947E+02 -0.10229140401E+03 -0.10145885867E+03  0.15941724153E+03  0.41800000000E+01 0. -1.
         -5    1    3    3    0  502 -0.18106162070E+01  0.30290783528E+02 -0.58287426783E+02  0.65846081271E+02  0.41800000000E+01 0. -1.
        -11    1    1    2    0    0 -0.60317092055E+02  0.27242032782E+02 -0.24736344566E+02  0.70655266516E+02  0.00000000000E+00 0.  1.
         11    1    1    2    0    0 -0.59821526853E+01  0.44758587701E+02 -0.10855436076E+03  0.11757196334E+03  0.00000000000E+00 0. -1.
</event>
<event>
 7    1  0.2855090E-009  0.9882688E+02  0.7561462E-02  0.1282782E+00
         -2   -1    0    0    0  501 -0.00000000000E+00  0.00000000000E+00  0.20519377088E+02  0.20519377088E+02  0.00000000000E+00 0.  1.
          2   -1    0    0  501    0  0.00000000000E+00 -0.00000000000E+00 -0.59319392105E+03  0.59319392105E+03  0.00000000000E+00 0. -1.
         25    2    1    2    0    0 -0.22635229900E+02  0.65493896288E+01 -0.28957183851E+03  0.31631405798E+03  0.12508990957E+03 0.  0.
          5    1    3    3  502    0 -0.42581686373E+02  0.57432422043E+02 -0.14558705479E+03  0.16224902476E+03  0.41800000000E+01 0. -1.
         -5    1    3    3    0  502  0.19946456473E+02 -0.50883032414E+02 -0.14398478373E+03  0.15406503321E+03  0.41800000000E+01 0. -1.
        -11    1    1    2    0    0  0.46265467202E+02  0.14140634695E+01 -0.25762190193E+03  0.26174708667E+03  0.00000000000E+00 0. -1.
         11    1    1    2    0    0 -0.23630237302E+02 -0.79634530984E+01 -0.25480803528E+02  0.35652153492E+02  0.00000000000E+00 0.  1.
</event>
<event>
 7    1  0.2855090E-009  0.1685397E+03  0.7561462E-02  0.1179379E+00
          2   -1    0    0  501    0  0.00000000000E+00  0.00000000000E+00  0.99229460714E+03  0.99229460714E+03  0.00000000000E+00 0. -1.
         -2   -1    0    0    0  501 -0.00000000000E+00 -0.00000000000E+00 -0.37150830576E+02  0.37150830576E+02  0.00000000000E+00 0.  1.
         25    2    1    2    0    0  0.14550242347E+03  0.58284696911E+02  0.46617562490E+03  0.50747889068E+03  0.12508816935E+03 0.  0.
          5    1    3    3  502    0  0.66844734220E+02  0.26196564437E+02  0.63562755092E+02  0.95980074579E+02  0.41800000000E+01 0.  1.
         -5    1    3    3    0  502  0.78657689250E+02  0.32088132474E+02  0.40261286980E+03  0.41149881611E+03  0.41800000000E+01 0.  1.
        -11    1    1    2    0    0 -0.20194145457E+02 -0.50697603830E+02  0.11087649196E+03  0.12357850547E+03  0.00000000000E+00 0.  1.
         11    1    1    2    0    0 -0.12530827801E+03 -0.75870930816E+01  0.37809165970E+03  0.39838804156E+03  0.00000000000E+00 0. -1.
</event>
<event>
 7    1  0.2855090E-009  0.8244239E+02  0.7561462E-02  0.1322260E+00
         -1   -1    0    0    0  501 -0.00000000000E+00  0.00000000000E+00  0.19982892852E+02  0.19982892852E+02  0.00000000000E+00 0.  1.
          1   -1    0    0  501    0  0.00000000000E+00 -0.00000000000E+00 -0.66143790775E+03  0.66143790775E+03  0.00000000000E+00 0. -1.
         25    2    1    2    0    0  0.61819351200E+01  0.34965679496E+02 -0.35495815148E+03  0.37802546565E+03  0.12508856191E+03 0.  0.
          5    1    3    3  502    0  0.76828793563E+01 -0.14865324492E+02  0.21939338266E+01  0.17386496286E+02  0.41800000000E+01 0. -1.
         -5    1    3    3    0  502 -0.15009442363E+01  0.49831003988E+02 -0.35715208530E+03  0.36063896937E+03  0.41800000000E+01 0. -1.
        -11    1    1    2    0    0 -0.37154694681E+02  0.13970542904E+02 -0.14905655351E+03  0.15425142965E+03  0.00000000000E+00 0. -1.
         11    1    1    2    0    0  0.30972759561E+02 -0.48936222400E+02 -0.13744030991E+03  0.14914390529E+03  0.00000000000E+00 0.  1.
</event>
<event>
 7    1  0.2855090E-009  0.1036033E+03  0.7561462E-02  0.1272896E+00
          2   -1    0    0  501    0  0.00000000000E+00  0.00000000000E+00  0.13170802822E+03  0.13170802822E+03  0.00000000000E+00 0. -1.
         -2   -1    0    0    0  501 -0.00000000000E+00 -0.00000000000E+00 -0.91721686307E+02  0.91721686307E+02  0.00000000000E+00 0.  1.
         25    2    1    2    0    0  0.76790083462E+01 -0.15552334706E+02  0.23863232854E+01  0.12632550183E+03  0.12510633713E+03 0.  0.
          5    1    3    3  502    0 -0.30657837987E+01  0.52160660833E+02  0.18829924039E+02  0.55697145422E+02  0.41800000000E+01 0. -1.
         -5    1    3    3    0  502  0.10744792145E+02 -0.67712995538E+02 -0.16443600754E+02  0.70628356407E+02  0.41800000000E+01 0. -1.
        -11    1    1    2    0    0  0.16260393588E+02  0.45176407945E+02  0.75805891406E+01  0.48608369301E+02  0.00000000000E+00 0.  1.
         11    1    1    2    0    0 -0.23939401934E+02 -0.29624073239E+02  0.30019429490E+02  0.48495843400E+02  0.00000000000E+00 0. -1.
</event>
<event>
 7    1  0.2855090E-009  0.1258320E+03  0.7561462E-02  0.1233775E+00
         -2   -1    0    0    0  501 -0.00000000000E+00  0.00000000000E+00  0.45046208396E+02  0.45046208396E+02  0.00000000000E+00 0.  1.
          2   -1    0    0  501    0  0.00000000000E+00 -0.00000000000E+00 -0.52194534514E+03  0.52194534514E+03  0.00000000000E+00 0. -1.
         25    2    1    2    0    0  0.83030418260E+02 -0.58897211289E+02 -0.18895649628E+03  0.24842500112E+03  0.12508993502E+03 0.  0.
          5    1    3    3  502    0  0.64213091428E+02  0.20428614707E+02 -0.39750437827E+02  0.78346787534E+02  0.41800000000E+01 0. -1.
         -5    1    3    3    0  502  0.18817326833E+02 -0.79325825996E+02 -0.14920605845E+03  0.17007821359E+03  0.41800000000E+01 0. -1.
        -11    1    1    2    0    0 -0.35942535100E+02  0.32908561647E+02 -0.35075033214E+02  0.60042461759E+02  0.00000000000E+00 0.  1.
         11    1    1    2    0    0 -0.47087883160E+02  0.25988649642E+02 -0.25286760725E+03  0.25852409065E+03  0.00000000000E+00 0. -1.
</event>
<event>
 7    1  0.2855090E-009  0.9795083E+02  0.7561462E-02  0.1284665E+00
         -1   -1    0    0    0  501 -0.00000000000E+00  0.00000000000E+00  0.14633194407E+03  0.14633194407E+03  0.00000000000E+00 0.  1.
          1   -1    0    0  501    0  0.00000000000E+00 -0.00000000000E+00 -0.10977580231E+03  0.10977580231E+03  0.00000000000E+00 0. -1.
         25    2    1    2    0    0  0.46404088650E+02  0.33236739009E+02  0.52735808388E+02  0.14726229181E+03  0.12508835613E+03 0.  0.
          5    1    3    3  502    0  0.87272013223E+02  0.49906610711E+01  0.30545027955E+02  0.92691866540E+02  0.41800000000E+01 0.  1.
         -5    1    3    3    0  502 -0.40867924573E+02  0.28246077938E+02  0.22190780433E+02  0.54570425268E+02  0.41800000000E+01 0.  1.
        -11    1    1    2    0    0 -0.11800574319E+02 -0.15979155771E+02 -0.52291353108E+02  0.55937220017E+02  0.00000000000E+00 0. -1.
         11    1    1    2    0    0 -0.34603514332E+02 -0.17257583238E+02  0.36111686480E+02  0.52908234555E+02  0.00000000000E+00 0.  1.
</event>
<event>
 7    1  0.2855090E-009  0.2367452E+03  0.7561462E-02  0.1121980E+00
         -2   -1    0    0    0  501 -0.00000000000E+00  0.00000000000E+00  0.68396896444E+02  0.68396896444E+02  0.00000000000E+00 0.  1.
          2   -1    0    0  501    0  0.00000000000E+00 -0.00000000000E+00 -0.94817591160E+03  0.94817591160E+03  0.00000000000E+00 0. -1.
         25    2    1    2    0    0  0.22288694584E+03 -0.45952785092E+02 -0.38806259755E+03  0.46693324087E+03  0.12507526825E+03 0.  0.
          5    1    3    3  502    0  0.77205752928E+02 -0.22696710780E+02 -0.42341059516E+02  0.91028054392E+02  0.41800000000E+01 0.  1.
         -5    1    3    3    0  502  0.14568119291E+03 -0.23256074312E+02 -0.34572153803E+03  0.37590518648E+03  0.41800000000E+01 0.  1.
        -11    1    1    2    0    0 -0.10504415456E+03  0.68415813465E+02 -0.23826871533E+03  0.26923405922E+03  0.00000000000E+00 0.  1.
         11    1    1    2    0    0 -0.11784279128E+03 -0.22463028373E+02 -0.25344770228E+03  0.28040550795E+03  0.00000000000E+00 0. -1.
</event>
<event>
 7    1  0.2855090E-009  0.1241885E+03  0.7561462E-02  0.1236343E+00
          2   -1    0    0  501    0  0.00000000000E+00  0.00000000000E+00  0.90473907961E+03  0.90473907961E+03  0.00000000000E+00 0. -1.
         -2   -1    0    0    0  501 -0.00000000000E+00 -0.00000000000E+00 -0.25943226072E+02  0.25943226072E+02  0.00000000000E+00 0.  1.
         25    2    1    2    0    0 -0.97327317611E+02  0.75463844963E+01  0.59846792431E+03  0.61914405347E+03  0.12508376331E+03 0.  0.
          5    1    3    3  502    0 -0.11074279313E+03  0.10892255095E+02  0.59351965898E+03  0.60387553804E+03  0.41800000000E+01 0. -1.
         -5    1    3    3    0  502  0.13415475519E+02 -0.33458705987E+01  0.49482653297E+01  0.15268515424E+02  0.41800000000E+01 0. -1.
        -11    1    1    2    0    0  0.72534707782E+02  0.29247629631E+02  0.10646825846E+03  0.13210676641E+03  0.00000000000E+00 0.  1.
         11    1    1    2    0    0  0.24792609829E+02 -0.36794014127E+02  0.17385967077E+03  0.17943148580E+03  0.00000000000E+00 0. -1.
</event>
<event>
 7    1  0.2855090E-009  0.9773021E+02  0.7561462E-02  0.1285143E+00
          2   -1    0    0  501    0  0.00000000000E+00  0.00000000000E+00  0.65439866591E+03  0.65439866591E+03  0.00000000000E+00 0. -1.
         -2   -1    0    0    0  501 -0.00000000000E+00 -0.00000000000E+00 -0.25900765955E+02  0.25900765955E+02  0.00000000000E+00 0.  1.
         25    2    1    2    0    0  0.31765090013E+02  0.65991047633E+02  0.32108107180E+03  0.35228508162E+03  0.12509150551E+03 0.  0.
          5    1    3    3  502    0  0.40594866826E+02  0.62019481981E+02  0.33013875866E+03  0.33838355712E+03  0.41800000000E+01 0. -1.
         -5    1    3    3    0  502 -0.88297768135E+01  0.39715656517E+01 -0.90576868576E+01  0.13901524503E+02  0.41800000000E+01 0. -1.
        -11    1    1    2    0    0 -0.51723457939E+02 -0.11980422373E+02  0.10636424292E+03  0.11887892493E+03  0.00000000000E+00 0.  1.
         11    1    1    2    0    0  0.19958367927E+02 -0.54010625260E+02  0.20105258523E+03  0.20913542531E+03  0.00000000000E+00 0. -1.
</event>
<event>
 7    1  0.2855090E-009  0.1166825E+03  0.7561462E-02  0.1248672E+00
          1   -1    0    0  501    0  0.00000000000E+00  0.00000000000E+00  0.15363369873E+03  0.15363369873E+03  0.00000000000E+00 0. -1.
         -1   -1    0    0    0  501 -0.00000000000E+00 -0.00000000000E+00 -0.13298014897E+03  0.13298014897E+03  0.00000000000E+00 0.  1.
         25    2    1    2    0    0  0.75821210303E+02  0.47871975753E+02  0.32714217023E+02  0.15734985047E+03  0.12509265947E+03 0.  0.
          5    1    3    3  502    0  0.93315074453E+02  0.67409924288E+02 -0.27452907676E-01  0.11519233554E+03  0.41800000000E+01 0.  1.
         -5    1    3    3    0  502 -0.17493864149E+02 -0.19537948535E+02  0.32741669930E+02  0.42157514937E+02  0.41800000000E+01 0.  1.
        -11    1    1    2    0    0 -0.26601758214E+02 -0.66634156760E+01 -0.48304498062E+02  0.55546189622E+02  0.00000000000E+00 0.  1.
         11    1    1    2    0    0 -0.49219452089E+02 -0.41208560077E+02  0.36243830791E+02  0.73717807605E+02  0.00000000000E+00 0. -1.
</event>
<event>
 7    1  0.2855090E-009  0.4318068E+03  0.7561462E-02  0.1033291E+00
         -1   -1    0    0    0  501 -0.00000000000E+00  0.00000000000E+00  0.90464214762E+03  0.90464214762E+03  0.00000000000E+00 0.  1.
          1   -1    0    0  501    0  0.00000000000E+00 -0.00000000000E+00 -0.21116635035E+03  0.21116635035E+03  0.00000000000E+00 0. -1.
         25    2    1    2    0    0  0.15490264777E+03 -0.39346679279E+03  0.37148473551E+03  0.57658579630E+03  0.12505728477E+03 0.  0.
          5    1    3    3  502    0  0.14375837144E+03 -0.20284175646E+03  0.23201374990E+03  0.34008690075E+03  0.41800000000E+01 0. -1.
         -5    1    3    3    0  502  0.11144276328E+02 -0.19062503633E+03  0.13947098561E+03  0.23649889555E+03  0.41800000000E+01 0. -1.
        -11    1    1    2    0    0 -0.19849411678E+02  0.27841197004E+02  0.61665655470E+02  0.70510881849E+02  0.00000000000E+00 0.  1.
         11    1    1    2    0    0 -0.13505323609E+03  0.36562559578E+03  0.26032540629E+03  0.46871181981E+03  0.00000000000E+00 0. -1.
</event>
<event>
 7    1  0.2855090E-009  0.1182861E+03  0.7561462E-02  0.1245951E+00
          3   -1    0    0  501    0  0.00000000000E+00  0.00000000000E+00  0.84996012478E+02  0.84996012478E+02  0.00000000000E+00 0. -1.
         -3   -1    0    0    0  501 -0.00000000000E+00 -0.00000000000E+00 -0.25853759307E+03  0.25853759307E+03  0.00000000000E+00 0.  1.
         25    2    1    2    0    0 -0.67024583055E+01 -0.96774894883E+02 -0.58068247318E+02  0.16860841468E+03  0.12508626194E+03 0.  0.
          5    1    3    3  502    0  0.81172079037E+01 -0.87379689274E+02  0.18637355389E+02  0.89810481446E+02  0.41800000000E+01 0.  1.
         -5    1    3    3    0  502 -0.14819666209E+02 -0.93952056093E+01 -0.76705602707E+02  0.78797933232E+02  0.41800000000E+01 0.  1.
        -11    1    1    2    0    0  0.30865055325E+02  0.10147353288E+03 -0.10048773996E+03  0.14610720516E+03  0.00000000000E+00 0.  1.
         11    1    1    2    0    0 -0.24162597020E+02 -0.46986379969E+01 -0.14985593311E+02  0.28817985715E+02  0.00000000000E+00 0. -1.
</event>
<event>
 7    1  0.2855090E-009  0.9871019E+02  0.7561462E-02  0.1283032E+00
         -1   -1    0    0    0  501 -0.00000000000E+00  0.00000000000E+00  0.23146557963E+02  0.23146557963E+02  0.00000000000E+00 0.  1.
          1   -1    0    0  501    0  0.00000000000E+00 -0.00000000000E+00 -0.56915950610E+03  0.56915950610E+03  0.00000000000E+00 0. -1.
         25    2    1    2    0    0  0.18718870894E+02 -0.18541026831E+02 -0.37768335381E+03  0.39873167622E+03  0.12509223825E+03 0.  0.
          5    1    3    3  502    0  0.47187492000E+02 -0.53184676767E+02 -0.30517554124E+03  0.31337653488E+03  0.41800000000E+01 0.  1.
         -5    1    3    3    0  502 -0.28468621106E+02  0.34643649936E+02 -0.72507812574E+02  0.85355141338E+02  0.41800000000E+01 0.  1.
        -11    1    1    2    0    0 -0.42460991198E+02  0.32633905769E+02 -0.54359505968E+02  0.76307689445E+02  0.00000000000E+00 0.  1.
         11    1    1    2    0    0  0.23742120304E+02 -0.14092878938E+02 -0.11397008836E+03  0.11726669840E+03  0.00000000000E+00 0. -1.
</event>
<event>
 7    1  0.3766030E-009  0.1857534E+03  0.7561462E-02  0.1162348E+00
         -1   -1    0    0    0  501 -0.00000000000E+00  0.00000000000E+00  0.24054788206E+03  0.24054788206E+03  0.00000000000E+00 0.  1.
          1   -1    0    0  501    0  0.00000000000E+00 -0.00000000000E+00 -0.18739094078E+03  0.18739094078E+03  0.00000000000E+00 0. -1.
         25    2    1    2    0    0  0.75773801431E+02  0.14590702261E+03 -0.51541279187E+02  0.21291918220E+03  0.12509015332E+03 0.  0.
          5    1    3    3  502    0  0.17562470179E+02  0.12558997827E+03  0.79639593017E+01  0.12713056300E+03  0.41800000000E+01 0.  1.
         -5    1    3    3    0  502  0.58211331252E+02  0.20317044339E+02 -0.59505238489E+02  0.85788619201E+02  0.41800000000E+01 0.  1.
        -11    1    1    2    0    0  0.53180189447E+01 -0.74765561568E+02  0.67625084914E+02  0.10095208087E+03  0.00000000000E+00 0.  1.
         11    1    1    2    0    0 -0.81091820375E+02 -0.71141461043E+02  0.37073135556E+02  0.11406755977E+03  0.00000000000E+00 0. -1.
</event>
<event>
 7    1  0.2855090E-009  0.1247386E+03  0.7561462E-02  0.1235478E+00
          1   -1    0    0  501    0  0.00000000000E+00  0.00000000000E+00  0.68934383780E+03  0.68934383780E+03  0.00000000000E+00 0. -1.
         -1   -1    0    0    0  501 -0.00000000000E+00 -0.00000000000E+00 -0.38781361437E+02  0.38781361437E+02  0.00000000000E+00 0.  1.
         25    2    1    2    0    0 -0.33881423509E+02  0.10478294480E+03  0.46435821268E+03  0.49335848848E+03  0.12508649844E+03 0.  0.
          5    1    3    3  502    0 -0.36519221947E+02  0.11711867047E+03  0.24921986794E+03  0.27781009975E+03  0.41800000000E+01 0. -1.
         -5    1    3    3    0  502  0.26377984377E+01 -0.12335725673E+02  0.21513834474E+03  0.21554838874E+03  0.41800000000E+01 0. -1.
        -11    1    1    2    0    0  0.36219353263E+02 -0.72254286210E+02  0.50737548782E+02  0.95429671920E+02  0.00000000000E+00 0.  1.
         11    1    1    2    0    0 -0.23379297536E+01 -0.32528658591E+02  0.13546671489E+03  0.13933703883E+03  0.00000000000E+00 0. -1.
</event>
<event>
 7    1  0.2855090E-009  0.5447657E+02  0.7561462E-02  0.1422591E+00
         -2   -1    0    0    0  501 -0.00000000000E+00  0.00000000000E+00  0.17262612816E+03  0.17262612816E+03  0.00000000000E+00 0. -1.
          2   -1    0    0  501    0  0.00000000000E+00 -0.00000000000E+00 -0.74258340520E+02  0.74258340520E+02  0.00000000000E+00 0.  1.
         25    2    1    2    0    0  0.33533904185E+02 -0.61327348052E+01  0.52445333384E+02  0.13985927249E+03  0.12509184602E+03 0.  0.
          5    1    3    3  502    0  0.38699022372E+02 -0.20963803259E+01 -0.34808323778E+02  0.52259936350E+02  0.41800000000E+01 0.  1.
         -5    1    3    3    0  502 -0.51651181869E+01 -0.40363544794E+01  0.87253657162E+02  0.87599336136E+02  0.41800000000E+01 0.  1.
        -11    1    1    2    0    0  0.65958485030E+01  0.18954869513E+02 -0.20294854026E+02  0.28542484049E+02  0.00000000000E+00 0.  1.
         11    1    1    2    0    0 -0.40129752688E+02 -0.12822134708E+02  0.66217308280E+02  0.78482712142E+02  0.00000000000E+00 0. -1.
</event>
<event>
 7    1  0.2855090E-009  0.1003291E+03  0.7561462E-02  0.1279605E+00
          1   -1    0    0  501    0  0.00000000000E+00  0.00000000000E+00  0.10306371910E+04  0.10306371910E+04  0.00000000000E+00 0. -1.
         -1   -1    0    0    0  501 -0.00000000000E+00 -0.00000000000E+00 -0.13344144102E+02  0.13344144102E+02  0.00000000000E+00 0.  1.
         25    2    1    2    0    0 -0.16126036573E+02 -0.19294020001E+02  0.75935744557E+03  0.77000294786E+03  0.12509396985E+03 0.  0.
          5    1    3    3  502    0  0.43810797301E+02 -0.32172950609E+02  0.20055805692E+03  0.20783525040E+03  0.41800000000E+01 0.  1.
         -5    1    3    3    0  502 -0.59936833874E+02  0.12878930608E+02  0.55879938865E+03  0.56216769746E+03  0.41800000000E+01 0.  1.
        -11    1    1    2    0    0 -0.29944384184E+02  0.24013427215E+02  0.17330860037E+03  0.17750825838E+03  0.00000000000E+00 0. -1.
         11    1    1    2    0    0  0.46070420757E+02 -0.47194072132E+01  0.84627000957E+02  0.96470128870E+02  0.00000000000E+00 0.  1.
</event>
<event>
 7    1  0.2855090E-009  0.1166588E+03  0.7561462E-02  0.1248713E+00
          2   -1    0    0  501    0  0.00000000000E+00  0.00000000000E+00  0.33610919273E+02  0.33610919273E+02  0.00000000000E+00 0. -1.
         -2   -1    0    0    0  501 -0.00000000000E+00 -0.00000000000E+00 -0.46341575463E+03  0.46341575463E+03  0.00000000000E+00 0.  1.
         25    2    1    2    0    0  0.37502340604E+02 -0.37841512706E+02 -0.31315011667E+03  0.34139172437E+03  0.12508760237E+03 0.  0.
          5    1    3    3  502    0  0.79401332414E+02 -0.43068005610E+02 -0.17665300531E+03  0.19845196240E+03  0.41800000000E+01 0. -1.
         -5    1    3    3    0  502 -0.41898991810E+02  0.52264929044E+01 -0.13649711136E+03  0.14293976197E+03  0.41800000000E+01 0. -1.
        -11    1    1    2    0    0 -0.26010882008E+02  0.65518844053E+02 -0.96557850162E+02  0.11955209466E+03  0.00000000000E+00 0.  1.
         11    1    1    2    0    0 -0.11491458596E+02 -0.27677331347E+02 -0.20096868525E+02  0.36082854872E+02  0.00000000000E+00 0. -1.
</event>
<event>
 7    1  0.2855090E-009  0.1122597E+03  0.7561462E-02  0.1256442E+00
          2   -1    0    0  501    0  0.00000000000E+00  0.00000000000E+00  0.11154484755E+02  0.11154484755E+02  0.00000000000E+00 0. -1.
         -2   -1    0    0    0  501 -0.00000000000E+00 -0.00000000000E+00 -0.11757991451E+04  0.11757991451E+04  0.00000000000E+00 0.  1.
         25    2    1    2    0    0  0.11326824426E+02  0.26100137239E+02 -0.64146316568E+03  0.65416325088E+03  0.12508018134E+03 0.  0.
          5    1    3    3  502    0  0.59113743509E+02  0.42740780578E+02 -0.29057472502E+03  0.29962034680E+03  0.41800000000E+01 0.  1.
         -5    1    3    3    0  502 -0.47786919082E+02 -0.16640643339E+02 -0.35088844066E+03  0.35454290408E+03  0.41800000000E+01 0.  1.
        -11    1    1    2    0    0  0.19027625205E+02 -0.55347694978E+02 -0.29568362533E+03  0.30142034462E+03  0.00000000000E+00 0. -1.
         11    1    1    2    0    0 -0.30354449631E+02  0.29247557739E+02 -0.22749786934E+03  0.23137003436E+03  0.00000000000E+00 0.  1.
</event>
<event>
 7    1  0.2855090E-009  0.1183239E+03  0.7561462E-02  0.1245888E+00
          2   -1    0    0  501    0  0.00000000000E+00  0.00000000000E+00  0.55406760970E+02  0.55406760970E+02  0.00000000000E+00 0. -1.
         -2   -1    0    0    0  501 -0.00000000000E+00 -0.00000000000E+00 -0.36087601376E+03  0.36087601376E+03  0.00000000000E+00 0.  1.
         25    2    1    2    0    0  0.74503353236E+02 -0.24654041865E+02 -0.10022187514E+03  0.17848808220E+03  0.12511994169E+03 0.  0.
          5    1    3    3  502    0  0.17754995917E+02 -0.59064850042E+02 -0.92901247427E+02  0.11158857721E+03  0.41800000000E+01 0. -1.
         -5    1    3    3    0  502  0.56748357320E+02  0.34410808177E+02 -0.73206277163E+01  0.66899504991E+02  0.41800000000E+01 0. -1.
        -11    1    1    2    0    0 -0.69265010201E+02  0.48087429208E+02 -0.10476550958E+03  0.13448365880E+03  0.00000000000E+00 0. -1.
         11    1    1    2    0    0 -0.52383430358E+01 -0.23433387343E+02 -0.10048186807E+03  0.10331103373E+03  0.00000000000E+00 0.  1.
</event>
<event>
 7    1  0.2855090E-009  0.6138174E+02  0.7561462E-02  0.1392123E+00
          3   -1    0    0  501    0  0.00000000000E+00  0.00000000000E+00  0.53648995947E+03  0.53648995947E+03  0.00000000000E+00 0.  1.
         -3   -1    0    0    0  501 -0.00000000000E+00 -0.00000000000E+00 -0.24479811163E+02  0.24479811163E+02  0.00000000000E+00 0. -1.
         25    2    1    2    0    0 -0.31619918846E+02 -0.39920048336E+00  0.23041092610E+03  0.26407603820E+03  0.12508789092E+03 0.  0.
          5    1    3    3  502    0 -0.22798922097E+02 -0.16835595763E+02 -0.39657500711E+01  0.28921059924E+02  0.41800000000E+01 0.  1.
         -5    1    3    3    0  502 -0.88209967489E+01  0.16436395280E+02  0.23437667617E+03  0.23515497827E+03  0.41800000000E+01 0.  1.
        -11    1    1    2    0    0 -0.10779425799E+02 -0.23837512322E+02  0.26784301280E+02  0.37440910904E+02  0.00000000000E+00 0. -1.
         11    1    1    2    0    0  0.42399344644E+02  0.24236712806E+02  0.25481492093E+03  0.25945282153E+03  0.00000000000E+00 0.  1.
</event>
<event>
 7    1  0.2855090E-009  0.1327513E+03  0.7561462E-02  0.1223429E+00
          2   -1    0    0  501    0  0.00000000000E+00  0.00000000000E+00  0.16528333044E+04  0.16528333044E+04  0.00000000000E+00 0.  1.
         -2   -1    0    0    0  501 -0.00000000000E+00 -0.00000000000E+00 -0.19917567998E+02  0.19917567998E+02  0.00000000000E+00 0. -1.
         25    2    1    2    0    0 -0.83892595778E+02 -0.80405212758E+01  0.14147981442E+04  0.14228154099E+04  0.12508910526E+03 0.  0.
          5    1    3    3  502    0 -0.55407824534E+02 -0.65447499698E+02  0.73797617095E+03  0.74295336564E+03  0.41800000000E+01 0.  1.
         -5    1    3    3    0  502 -0.28484771244E+02  0.57406978422E+02  0.67682197325E+03  0.67986204427E+03  0.41800000000E+01 0.  1.
        -11    1    1    2    0    0  0.54764658901E+02 -0.33867511147E+02  0.16066603855E+03  0.17308885614E+03  0.00000000000E+00 0.  1.
         11    1    1    2    0    0  0.29127936877E+02  0.41908032423E+02  0.57451553617E+02  0.76846606310E+02  0.00000000000E+00 0. -1.
</event>
<event>
 7    1  0.2855090E-009  0.1075477E+03  0.7561462E-02  0.1265180E+00
          2   -1    0    0  501    0  0.00000000000E+00  0.00000000000E+00  0.81151022553E+02  0.81151022553E+02  0.00000000000E+00 0. -1.
         -2   -1    0    0    0  501 -0.00000000000E+00 -0.00000000000E+00 -0.20297160739E+03  0.20297160739E+03  0.00000000000E+00 0.  1.
         25    2    1    2    0    0 -0.18590897582E+02  0.19230628386E+02 -0.13176055848E+03  0.18363895167E+03  0.12508789413E+03 0.  0.
          5    1    3    3  502    0  0.41570112143E+02 -0.28407585379E+02 -0.60633253008E+02  0.78923563661E+02  0.41800000000E+01 0. -1.
         -5    1    3    3    0  502 -0.60161009725E+02  0.47638213765E+02 -0.71127305474E+02  0.10471538801E+03  0.41800000000E+01 0. -1.
        -11    1    1    2    0    0 -0.32926142598E+02 -0.57839102127E+00  0.27547744634E+02  0.42934177958E+02  0.00000000000E+00 0. -1.
         11    1    1    2    0    0  0.51517040179E+02 -0.18652237365E+02 -0.17607770991E+02  0.57549500318E+02  0.00000000000E+00 0.  1.
</event>
<event>
 7    1  0.2855090E-009  0.1195589E+03  0.7561462E-02  0.1243827E+00
          2   -1    0    0  501    0  0.00000000000E+00  0.00000000000E+00  0.17204886379E+04  0.17204886379E+04  0.00000000000E+00 0. -1.
         -2   -1    0    0    0  501 -0.00000000000E+00 -0.00000000000E+00 -0.13216901526E+02  0.13216901526E+02  0.00000000000E+00 0.  1.
         25    2    1    2    0    0  0.99961605201E+02  0.27804910459E+02  0.10771126495E+04  0.10893048071E+04  0.12509143672E+03 0.  0.
          5    1    3    3  502    0  0.88479408974E+01  0.12863343586E+02  0.72755978977E+03  0.72773928831E+03  0.41800000000E+01 0. -1.
         -5    1    3    3    0  502  0.91113664303E+02  0.14941566874E+02  0.34955285973E+03  0.36156551881E+03  0.41800000000E+01 0. -1.
        -11    1    1    2    0    0 -0.80452073420E+02 -0.54712935031E+02  0.53042834698E+03  0.53927754696E+03  0.00000000000E+00 0.  1.
         11    1    1    2    0    0 -0.19509531780E+02  0.26908024572E+02  0.99730739851E+02  0.10512318530E+03  0.00000000000E+00 0. -1.
</event>
<event>
 7    1  0.2855090E-009  0.9038969E+02  0.7561462E-02  0.1301911E+00
         -1   -1    0    0    0  501 -0.00000000000E+00  0.00000000000E+00  0.94104417225E+03  0.94104417225E+03  0.00000000000E+00 0. -1.
          1   -1    0    0  501    0  0.00000000000E+00 -0.00000000000E+00 -0.15713137054E+02  0.15713137054E+02  0.00000000000E+00 0.  1.
         25    2    1    2    0    0 -0.26682097618E+02  0.19261426319E+01  0.70647749363E+03  0.71795776638E+03  0.12504903417E+03 0.  0.
          5    1    3    3  502    0 -0.64545349548E+02 -0.81418329500E+01  0.20920872927E+03  0.21913045520E+03  0.41800000000E+01 0. -1.
         -5    1    3    3    0  502  0.37863251930E+02  0.10067975582E+02  0.49726876435E+03  0.49882731118E+03  0.41800000000E+01 0. -1.
        -11    1    1    2    0    0 -0.24739476542E+02 -0.38763812731E+00  0.15861543104E+02  0.29390143119E+02  0.00000000000E+00 0.  1.
         11    1    1    2    0    0  0.51421574160E+02 -0.15385045046E+01  0.20299199847E+03  0.20940939981E+03  0.00000000000E+00 0. -1.
</event>
<event>
 7    1  0.3122377E-009  0.1916430E+03  0.7561462E-02  0.1156988E+00
         -2   -1    0    0    0  501 -0.00000000000E+00  0.00000000000E+00  0.51972339455E+02  0.51972339455E+02  0.00000000000E+00 0.  1.
          2   -1    0    0  501    0  0.00000000000E+00 -0.00000000000E+00 -0.87582669394E+03  0.87582669394E+03  0.00000000000E+00 0. -1.
         25    2    1    2    0    0 -0.11421034385E+03  0.13754174524E+03 -0.51718507927E+03  0.56132880988E+03  0.12509153551E+03 0.  0.
          5    1    3    3  502    0 -0.50527056422E+02  0.25015084328E+01 -0.25119007529E+03  0.25626776484E+03  0.41800000000E+01 0. -1.
         -5    1    3    3    0  502 -0.63683287425E+02  0.13504023681E+03 -0.26599500398E+03  0.30506104504E+03  0.41800000000E+01 0. -1.
        -11    1    1    2    0    0  0.68334071010E+02 -0.51189962039E+02 -0.70039162522E+02  0.11043297407E+03  0.00000000000E+00 0.  1.
         11    1    1    2    0    0  0.45876272837E+02 -0.86351783205E+02 -0.23663011270E+03  0.25603724945E+03  0.00000000000E+00 0. -1.
</event>
<event>
 7    1  0.2855090E-009  0.7348659E+02  0.7561462E-02  0.1348623E+00
         -1   -1    0    0    0  501 -0.00000000000E+00  0.00000000000E+00  0.95901803396E+02  0.95901803396E+02  0.00000000000E+00 0.  1.
          1   -1    0    0  501    0  0.00000000000E+00 -0.00000000000E+00 -0.13067689894E+03  0.13067689894E+03  0.00000000000E+00 0. -1.
         25    2    1    2    0    0 -0.23315119506E+02  0.54064927315E+01 -0.23852457863E+02  0.12957502800E+03  0.12509165909E+03 0.  0.
          5    1    3    3  502    0 -0.37302888584E+02  0.44718968425E+01  0.45237920826E+02  0.58952906958E+02  0.41800000000E+01 0. -1.
         -5    1    3    3    0  502  0.13987769078E+02  0.93459588903E+00 -0.69090378689E+02  0.70622121044E+02  0.41800000000E+01 0. -1.
        -11    1    1    2    0    0 -0.19741047353E+02  0.31938546579E+02  0.48678322826E+01  0.37861266477E+02  0.00000000000E+00 0. -1.
         11    1    1    2    0    0  0.43056166859E+02 -0.37345039310E+02 -0.15790469966E+02  0.59142407859E+02  0.00000000000E+00 0.  1.
</event>
<event>
 7    1  0.2855090E-009  0.9357610E+02  0.7561462E-02  0.1294416E+00
          4   -1    0    0  501    0  0.00000000000E+00  0.00000000000E+00  0.49479506473E+02  0.49479506473E+02  0.00000000000E+00 0. -1.
         -4   -1    0    0    0  501 -0.00000000000E+00 -0.00000000000E+00 -0.25775597394E+03  0.25775597394E+03  0.00000000000E+00 0.  1.
         25    2    1    2    0    0  0.16216591431E+02  0.27618690948E+02 -0.12868092422E+03  0.18229856701E+03  0.12509283492E+03 0.  0.
          5    1    3    3  502    0  0.28057637190E+00  0.63490073234E+02 -0.12785896256E+03  0.14281615746E+03  0.41800000000E+01 0. -1.
         -5    1    3    3    0  502  0.15936015059E+02 -0.35871382286E+02 -0.82196165440E+00  0.39482409552E+02  0.41800000000E+01 0. -1.
        -11    1    1    2    0    0 -0.47587909198E+02 -0.12370637729E+02 -0.14798734049E+02  0.51348264908E+02  0.00000000000E+00 0.  1.
         11    1    1    2    0    0  0.31371317767E+02 -0.15248053219E+02 -0.64796809201E+02  0.73588648500E+02  0.00000000000E+00 0. -1.
</event>
<event>
 7    1  0.2855090E-009  0.1015934E+03  0.7561462E-02  0.1276980E+00
         -2   -1    0    0    0  501 -0.00000000000E+00  0.00000000000E+00  0.24991088475E+02  0.24991088475E+02  0.00000000000E+00 0. -1.
          2   -1    0    0  501    0  0.00000000000E+00 -0.00000000000E+00 -0.55896906730E+03  0.55896906730E+03  0.00000000000E+00 0.  1.
         25    2    1    2    0    0 -0.52207639351E+02 -0.16153573118E+02 -0.32864260989E+03  0.35586592700E+03  0.12509203584E+03 0.  0.
          5    1    3    3  502    0 -0.28144483277E+02  0.43230424887E+02 -0.24506706507E+03  0.25047219477E+03  0.41800000000E+01 0. -1.
         -5    1    3    3    0  502 -0.24063156074E+02 -0.59383998005E+02 -0.83575544821E+02  0.10539373222E+03  0.41800000000E+01 0. -1.
        -11    1    1    2    0    0  0.68947501764E+02  0.13854026382E+02 -0.19715286752E+03  0.20932019782E+03  0.00000000000E+00 0.  1.
         11    1    1    2    0    0 -0.16739862413E+02  0.22995467363E+01 -0.81825014172E+01  0.18774030954E+02  0.00000000000E+00 0. -1.
</event>
<event>
 7    1  0.2855090E-009  0.1548971E+03  0.7561462E-02  0.1194581E+00
          2   -1    0    0  501    0  0.00000000000E+00  0.00000000000E+00  0.11939452841E+04  0.11939452841E+04  0.00000000000E+00 0.  1.
         -2   -1    0    0    0  501 -0.00000000000E+00 -0.00000000000E+00 -0.30710670630E+02  0.30710670630E+02  0.00000000000E+00 0. -1.
         25    2    1    2    0    0 -0.13082548019E+03 -0.15093692886E+02  0.87744323648E+03  0.89604517313E+03  0.12508874136E+03 0.  0.
          5    1    3    3  502    0 -0.46856282156E+02 -0.58293669524E+02  0.23402714145E+03  0.24572309297E+03  0.41800000000E+01 0.  1.
         -5    1    3    3    0  502 -0.83969198035E+02  0.43199976637E+02  0.64341609503E+03  0.65032208017E+03  0.41800000000E+01 0.  1.
        -11    1    1    2    0    0  0.53355845286E+01  0.13877899575E+02 -0.16583513660E+01  0.14960437431E+02  0.00000000000E+00 0. -1.
         11    1    1    2    0    0  0.12548989566E+03  0.12157933116E+01  0.28744972838E+03  0.31365034419E+03  0.00000000000E+00 0.  1.
</event>
<event>
 7    1  0.2855090E-009  0.1095878E+03  0.7561462E-02  0.1261335E+00
         -1   -1    0    0    0  501 -0.00000000000E+00  0.00000000000E+00  0.10727682104E+03  0.10727682104E+03  0.00000000000E+00 0.  1.
          1   -1    0    0  501    0  0.00000000000E+00 -0.00000000000E+00 -0.17598789579E+03  0.17598789579E+03  0.00000000000E+00 0. -1.
         25    2    1    2    0    0 -0.83417552342E+02  0.15484074463E+01 -0.39566993535E+02  0.15548698240E+03  0.12509903723E+03 0.  0.
          5    1    3    3  502    0 -0.76582466793E+01 -0.15573071843E+02 -0.69791935963E+02  0.72038573239E+02  0.41800000000E+01 0.  1.
         -5    1    3    3    0  502 -0.75759305662E+02  0.17121479289E+02  0.30224942427E+02  0.83448409165E+02  0.41800000000E+01 0.  1.
        -11    1    1    2    0    0 -0.18150304700E+02 -0.11502565850E+02  0.53635588823E+00  0.21494889148E+02  0.00000000000E+00 0. -1.
         11    1    1    2    0    0  0.10156785704E+03  0.99541584037E+01 -0.29680437105E+02  0.10628284528E+03  0.00000000000E+00 0.  1.
</event>
<event>
 7    1  0.3348164E-009  0.1160839E+03  0.7561462E-02  0.1249701E+00
          1   -1    0    0  501    0  0.00000000000E+00  0.00000000000E+00  0.12836071349E+03  0.12836071349E+03  0.00000000000E+00 0. -1.
         -1   -1    0    0    0  501 -0.00000000000E+00 -0.00000000000E+00 -0.15787354489E+03  0.15787354489E+03  0.00000000000E+00 0.  1.
         25    2    1    2    0    0 -0.23152618285E+02  0.66057739291E+02 -0.75979164634E+02  0.16223129241E+03  0.12508593097E+03 0.  0.
          5    1    3    3  502    0 -0.39508954147E+02  0.83818399872E+02 -0.93810948013E+02  0.13192591854E+03  0.41800000000E+01 0.  1.
         -5    1    3    3    0  502  0.16356335862E+02 -0.17760660581E+02  0.17831783380E+02  0.30305373874E+02  0.41800000000E+01 0.  1.
        -11    1    1    2    0    0 -0.23747967598E+02 -0.63659088316E+02  0.25476235449E+02  0.72563655248E+02  0.00000000000E+00 0. -1.
         11    1    1    2    0    0  0.46900585883E+02 -0.23986509744E+01  0.20990097787E+02  0.51439310724E+02  0.00000000000E+00 0.  1.
</event>
<event>
 7    1  0.2855090E-009  0.1268137E+03  0.7561462E-02  0.1232262E+00
         -2   -1    0    0    0  501 -0.00000000000E+00  0.00000000000E+00  0.20098793023E+02  0.20098793023E+02  0.00000000000E+00 0. -1.
          2   -1    0    0  501    0  0.00000000000E+00 -0.00000000000E+00 -0.12018687391E+04  0.12018687391E+04  0.00000000000E+00 0.  1.
         25    2    1    2    0    0 -0.11128453791E+03  0.21831921704E+02 -0.69756967319E+03  0.71771276524E+03  0.12508910120E+03 0.  0.
          5    1    3    3  502    0 -0.31433082559E+02  0.19474915115E+02 -0.53730949558E+03  0.53859658135E+03  0.41800000000E+01 0.  1.
         -5    1    3    3    0  502 -0.79851455355E+02  0.23570065888E+01 -0.16026017761E+03  0.17911618389E+03  0.41800000000E+01 0.  1.
        -11    1    1    2    0    0  0.10309640666E+03 -0.44520340515E+02 -0.34039538152E+03  0.35844099311E+03  0.00000000000E+00 0.  1.
         11    1    1    2    0    0  0.81881312585E+01  0.22688418811E+02 -0.14380489133E+03  0.14581377374E+03  0.00000000000E+00 0. -1.
</event>
<event>
 7    1  0.2855090E-009  0.1056016E+03  0.7561462E-02  0.1268939E+00
          3   -1    0    0  501    0  0.00000000000E+00  0.00000000000E+00  0.25704535242E+03  0.25704535242E+03  0.00000000000E+00 0. -1.
         -3   -1    0    0    0  501 -0.00000000000E+00 -0.00000000000E+00 -0.68820046483E+02  0.68820046483E+02  0.00000000000E+00 0.  1.
         25    2    1    2    0    0  0.52181742070E+02  0.28834036596E+01  0.31957639096E+02  0.13928616581E+03  0.12509235415E+03 0.  0.
          5    1    3    3  502    0 -0.45253548022E+01  0.44763879874E+02  0.48984718247E+02  0.66642770045E+02  0.41800000000E+01 0.  1.
         -5    1    3    3    0  502  0.56707096872E+02 -0.41880476214E+02 -0.17027079151E+02  0.72643395763E+02  0.41800000000E+01 0.  1.
        -11    1    1    2    0    0  0.21510219752E+02 -0.29068521843E+01  0.12557344976E+02  0.25076408360E+02  0.00000000000E+00 0.  1.
         11    1    1    2    0    0 -0.73691961822E+02  0.23448524762E-01  0.14371032187E+03  0.16150282474E+03  0.00000000000E+00 0. -1.
</event>
<event>
 7    1  0.2855090E-009  0.1477734E+03  0.7561462E-02  0.1203236E+00
          1   -1    0    0  501    0  0.00000000000E+00  0.00000000000E+00  0.65520221173E+02  0.65520221173E+02  0.00000000000E+00 0. -1.
         -1   -1    0    0    0  501 -0.00000000000E+00 -0.00000000000E+00 -0.41755495046E+03  0.41755495046E+03  0.00000000000E+00 0.  1.
         25    2    1    2    0    0 -0.12097470535E+03 -0.22802676877E+02 -0.21243566420E+03  0.27555907375E+03  0.12509616419E+03 0.  0.
          5    1    3    3  502    0 -0.70187769692E+02 -0.71554591637E+02 -0.92662321177E+02  0.13656559144E+03  0.41800000000E+01 0.  1.
         -5    1    3    3    0  502 -0.50786935656E+02  0.48751914760E+02 -0.11977334302E+03  0.13899348231E+03  0.41800000000E+01 0.  1.
        -11    1    1    2    0    0  0.98904400330E+02  0.26342326441E+02 -0.15100331445E+03  0.18242258506E+03  0.00000000000E+00 0.  1.
         11    1    1    2    0    0  0.22070305018E+02 -0.35396495635E+01  0.11404249356E+02  0.25093512827E+02  0.00000000000E+00 0. -1.
</event>
<event>
 7    1  0.2855090E-009  0.9561298E+02  0.7561462E-02  0.1289801E+00
          1   -1    0    0  501    0  0.00000000000E+00  0.00000000000E+00  0.61570640469E+03  0.61570640469E+03  0.00000000000E+00 0. -1.
         -1   -1    0    0    0  501 -0.00000000000E+00 -0.00000000000E+00 -0.23831161714E+02  0.23831161714E+02  0.00000000000E+00 0.  1.
         25    2    1    2    0    0  0.48061360918E+02 -0.21871483058E+02  0.33116811757E+03  0.35792061330E+03  0.12508631876E+03 0.  0.
          5    1    3    3  502    0 -0.29981148644E+02  0.37366229385E+00  0.20909686103E+03  0.21127701861E+03  0.41800000000E+01 0. -1.
         -5    1    3    3    0  502  0.78042509562E+02 -0.22245145352E+02  0.12207125654E+03  0.14664359469E+03  0.41800000000E+01 0. -1.
        -11    1    1    2    0    0 -0.19238447771E+02  0.40870881997E+02  0.23303686688E+03  0.23737465785E+03  0.00000000000E+00 0. -1.
         11    1    1    2    0    0 -0.28822913147E+02 -0.18999398939E+02  0.27670258524E+02  0.44242295251E+02  0.00000000000E+00 0.  1.
</event>
<event>
 7    1  0.2855090E-009  0.1023040E+03  0.7561462E-02  0.1275524E+00
          1   -1    0    0  501    0  0.00000000000E+00  0.00000000000E+00  0.40662919527E+03  0.40662919527E+03  0.00000000000E+00 0. -1.
         -1   -1    0    0    0  501 -0.00000000000E+00 -0.00000000000E+00 -0.43907999902E+02  0.43907999902E+02  0.00000000000E+00 0.  1.
         25    2    1    2    0    0 -0.44700725396E+02 -0.25375082282E+02  0.29571942772E+03  0.32517629390E+03  0.12509033747E+03 0.  0.
          5    1    3    3  502    0 -0.68044252329E+02 -0.35627944759E+02  0.92424157303E+02  0.12024586469E+03  0.41800000000E+01 0.  1.
         -5    1    3    3    0  502  0.23343526933E+02  0.10252862478E+02  0.20329527042E+03  0.20493042921E+03  0.41800000000E+01 0.  1.
        -11    1    1    2    0    0 -0.87865072212E+01 -0.26147692142E+02  0.38059590282E+01  0.27845822624E+02  0.00000000000E+00 0.  1.
         11    1    1    2    0    0  0.53487232617E+02  0.51522774424E+02  0.63195808618E+02  0.97515078651E+02  0.00000000000E+00 0. -1.
</event>
<event>
 7    1  0.2855090E-009  0.1367721E+03  0.7561462E-02  0.1217740E+00
         -1   -1    0    0    0  501 -0.00000000000E+00  0.00000000000E+00  0.18020733058E+03  0.18020733058E+03  0.00000000000E+00 0.  1.
          1   -1    0    0  501    0  0.00000000000E+00 -0.00000000000E+00 -0.11483372768E+03  0.11483372768E+03  0.00000000000E+00 0. -1.
         25    2    1    2    0    0 -0.92319283322E+02 -0.14443632403E+02  0.46099716010E+02  0.16279950404E+03  0.12508807341E+03 0.  0.
          5    1    3    3  502    0 -0.31684684834E+02 -0.67877288954E+02  0.26131004555E+02  0.79445247862E+02  0.41800000000E+01 0. -1.
         -5    1    3    3    0  502 -0.60634598488E+02  0.53433656552E+02  0.19968711455E+02  0.83354256181E+02  0.41800000000E+01 0. -1.
        -11    1    1    2    0    0  0.52799537669E+02  0.43605545274E+02  0.39581388105E+02  0.79094380591E+02  0.00000000000E+00 0. -1.
         11    1    1    2    0    0  0.39519745653E+02 -0.29161912872E+02 -0.20307501215E+02  0.53147173626E+02  0.00000000000E+00 0.  1.
</event>
<event>
 7    1  0.2855090E-009  0.9136792E+02  0.7561462E-02  0.1299572E+00
         -2   -1    0    0    0  501 -0.00000000000E+00  0.00000000000E+00  0.77140454319E+02  0.77140454319E+02  0.00000000000E+00 0. -1.
          2   -1    0    0  501    0  0.00000000000E+00 -0.00000000000E+00 -0.18560802303E+03  0.18560802303E+03  0.00000000000E+00 0.  1.
         25    2    1    2    0    0  0.37809492694E+02  0.10598221091E+02 -0.97118302156E+02  0.16319185188E+03  0.12513087500E+03 0.  0.
          5    1    3    3  502    0 -0.21519236634E+02 -0.13933492841E+02  0.17800934356E+02  0.31489131967E+02  0.41800000000E+01 0.  1.
         -5    1    3    3    0  502  0.59328729328E+02  0.24531713932E+02 -0.11491923651E+03  0.13170271991E+03  0.41800000000E+01 0.  1.
        -11    1    1    2    0    0  0.27001417066E+02 -0.28000071871E+01 -0.19985298326E+02  0.33709475122E+02  0.00000000000E+00 0.  1.
         11    1    1    2    0    0 -0.64810909760E+02 -0.77982139039E+01  0.86360317715E+01  0.65847150346E+02  0.00000000000E+00 0. -1.
</event>
<event>
 7    1  0.2855090E-009  0.1028826E+03  0.7561462E-02  0.1274348E+00
          2   -1    0    0  501    0  0.00000000000E+00  0.00000000000E+00  0.32454894054E+02  0.32454894054E+02  0.00000000000E+00 0. -1.
         -2   -1    0    0    0  501 -0.00000000000E+00 -0.00000000000E+00 -0.55962878247E+03  0.55962878247E+03  0.00000000000E+00 0.  1.
         25    2    1    2    0    0 -0.47934755049E+02 -0.37457237085E+02 -0.17629376687E+03  0.22456187786E+03  0.12509100447E+03 0.  0.
          5    1    3    3  502    0 -0.65640071248E+02 -0.41861442244E+02 -0.41206761674E+02  0.88184289462E+02  0.41800000000E+01 0.  1.
         -5    1    3    3    0  502  0.17705316199E+02  0.44042051585E+01 -0.13508700519E+03  0.13637758840E+03  0.41800000000E+01 0.  1.
        -11    1    1    2    0    0 -0.24318098324E+02 -0.56259704769E+01 -0.70133383812E+02  0.74442682480E+02  0.00000000000E+00 0.  1.
         11    1    1    2    0    0  0.72252853373E+02  0.43083207562E+02 -0.28074673774E+03  0.29307911619E+03  0.00000000000E+00 0. -1.
</event>
<event>
 7    1  0.2855090E-009  0.1125293E+03  0.7561462E-02  0.1255956E+00
         -1   -1    0    0    0  501 -0.00000000000E+00  0.00000000000E+00  0.13965479416E+03  0.13965479416E+03  0.00000000000E+00 0.  1.
          1   -1    0    0  501    0  0.00000000000E+00 -0.00000000000E+00 -0.25506101169E+03  0.25506101169E+03  0.00000000000E+00 0. -1.
         25    2    1    2    0    0  0.37119993496E+02 -0.68936543864E+02  0.78571868853E+02  0.16718602201E+03  0.12508991319E+03 0.  0.
          5    1    3    3  502    0  0.19886056461E+02  0.12526244709E+02  0.80324912864E+02  0.83796933564E+02  0.41800000000E+01 0.  1.
         -5    1    3    3    0  502  0.17233937035E+02 -0.81462788573E+02 -0.17530440120E+01  0.83389088442E+02  0.41800000000E+01 0.  1.
        -11    1    1    2    0    0 -0.12877671589E+02  0.86770700189E+02 -0.13001731334E+03  0.15684224752E+03  0.00000000000E+00 0. -1.
         11    1    1    2    0    0 -0.24242321907E+02 -0.17834156325E+02 -0.63960773038E+02  0.70687536320E+02  0.00000000000E+00 0.  1.
</event>
<event>
 7    1  0.2855090E-009  0.1033803E+03  0.7561462E-02  0.1273344E+00
          1   -1    0    0  501    0  0.00000000000E+00  0.00000000000E+00  0.12411285820E+03  0.12411285820E+03  0.00000000000E+00 0. -1.
         -1   -1    0    0    0  501 -0.00000000000E+00 -0.00000000000E+00 -0.12339863659E+03  0.12339863659E+03  0.00000000000E+00 0.  1.
         25    2    1    2    0    0 -0.54111198904E+02 -0.13716079501E+02  0.21581249549E+02  0.13866855862E+03  0.12508823340E+03 0.  0.
          5    1    3    3  502    0 -0.81107016495E+02 -0.28427323249E+02 -0.18469157300E+02  0.88005925955E+02  0.41800000000E+01 0. -1.
         -5    1    3    3    0  502  0.26995817590E+02  0.14711243748E+02  0.40050406848E+02  0.50662632667E+02  0.41800000000E+01 0. -1.
        -11    1    1    2    0    0 -0.15034758747E+02 -0.82334031059E+01 -0.31166404978E+02  0.35569336465E+02  0.00000000000E+00 0.  1.
         11    1    1    2    0    0  0.69145957651E+02  0.21949482607E+02  0.10299377042E+02  0.73273599705E+02  0.00000000000E+00 0. -1.
</event>
<event>
 7    1  0.2855090E-009  0.1110025E+03  0.7561462E-02  0.1258725E+00
          2   -1    0    0  501    0  0.00000000000E+00  0.00000000000E+00  0.32255241935E+03  0.32255241935E+03  0.00000000000E+00 0. -1.
         -2   -1    0    0    0  501 -0.00000000000E+00 -0.00000000000E+00 -0.47118341940E+02  0.47118341940E+02  0.00000000000E+00 0.  1.
         25    2    1    2    0    0 -0.16652467244E+02 -0.46756796346E+02  0.19880688487E+03  0.24007449233E+03  0.12509229283E+03 0.  0.
          5    1    3    3  502    0  0.52086998268E+02 -0.14854207950E+02  0.11389198630E+03  0.12618462595E+03  0.41800000000E+01 0. -1.
         -5    1    3    3    0  502 -0.68739465512E+02 -0.31902588396E+02  0.84914898567E+02  0.11388986638E+03  0.41800000000E+01 0. -1.
        -11    1    1    2    0    0  0.45664162447E+02  0.42647088755E+02  0.19603720939E+02  0.65485080636E+02  0.00000000000E+00 0.  1.
         11    1    1    2    0    0 -0.29011695202E+02  0.41097075905E+01  0.57023471606E+02  0.64111188330E+02  0.00000000000E+00 0. -1.
</event>
<event>
 7    1  0.2855090E-009  0.3778092E+02  0.7561462E-02  0.1525207E+00
         -1   -1    0    0    0  501 -0.00000000000E+00  0.00000000000E+00  0.18680721046E+03  0.18680721046E+03  0.00000000000E+00 0.  1.
          1   -1    0    0  501    0  0.00000000000E+00 -0.00000000000E+00 -0.69460972158E+02  0.69460972158E+02  0.00000000000E+00 0. -1.
         25    2    1    2    0    0 -0.16481150286E+01  0.46070543899E+01  0.10722577004E+03  0.16482635252E+03  0.12508564862E+03 0.  0.
          5    1    3    3  502    0  0.53698480818E+01  0.21160448898E+02 -0.23765823477E+02  0.32540538280E+02  0.41800000000E+01 0. -1.
         -5    1    3    3    0  502 -0.70179631104E+01 -0.16553394508E+02  0.13099159352E+03  0.13228581424E+03  0.41800000000E+01 0. -1.
        -11    1    1    2    0    0 -0.10750659875E+02  0.10705684037E+02 -0.37204507078E+02  0.40179145154E+02  0.00000000000E+00 0. -1.
         11    1    1    2    0    0  0.12398774904E+02 -0.15312738426E+02  0.47324975340E+02  0.51262684949E+02  0.00000000000E+00 0.  1.
</event>
<event>
 7    1  0.2855090E-009  0.2732049E+03  0.7561462E-02  0.1099459E+00
         -1   -1    0    0    0  501 -0.00000000000E+00  0.00000000000E+00  0.14202747193E+03  0.14202747193E+03  0.00000000000E+00 0.  1.
          1   -1    0    0  501    0  0.00000000000E+00 -0.00000000000E+00 -0.61942576089E+03  0.61942576089E+03  0.00000000000E+00 0. -1.
         25    2    1    2    0    0 -0.57399238539E+02 -0.25945384300E+03 -0.15010612219E+03  0.32983414301E+03  0.12509094588E+03 0.  0.
          5    1    3    3  502    0 -0.45683601269E+02 -0.14373173944E+03 -0.15167564074E+02  0.15163552271E+03  0.41800000000E+01 0.  1.
         -5    1    3    3    0  502 -0.11715637270E+02 -0.11572210357E+03 -0.13493855812E+03  0.17819862030E+03  0.41800000000E+01 0.  1.
        -11    1    1    2    0    0  0.51499879290E+02  0.57835505283E+02 -0.11630205649E+03  0.13972598750E+03  0.00000000000E+00 0.  1.
         11    1    1    2    0    0  0.58993592498E+01  0.20161833772E+03 -0.21099011028E+03  0.29189310231E+03  0.00000000000E+00 0. -1.
</event>
<event>
 7    1  0.2855090E-009  0.1916283E+03  0.7561462E-02  0.1157001E+00
         -2   -1    0    0    0  501 -0.00000000000E+00  0.00000000000E+00  0.68862549593E+02  0.68862549593E+02  0.00000000000E+00 0.  1.
          2   -1    0    0  501    0  0.00000000000E+00 -0.00000000000E+00 -0.65893314271E+03  0.65893314271E+03  0.00000000000E+00 0. -1.
         25    2    1    2    0    0  0.90027351668E+02 -0.15870004752E+03 -0.27857958884E+03  0.35572960681E+03  0.12508531774E+03 0.  0.
          5    1    3    3  502    0  0.50193452211E+02 -0.70596429408E+02 -0.34803843309E+02  0.93445269538E+02  0.41800000000E+01 0.  1.
         -5    1    3    3    0  502  0.39833899458E+02 -0.88103618113E+02 -0.24377574553E+03  0.26228433727E+03  0.41800000000E+01 0.  1.
        -11    1    1    2    0    0 -0.27339352228E+02  0.12622851935E+03 -0.23370705052E+03  0.26702071968E+03  0.00000000000E+00 0. -1.
         11    1    1    2    0    0 -0.62687999440E+02  0.32471528169E+02 -0.77783953764E+02  0.10504536581E+03  0.00000000000E+00 0.  1.
</event>
<event>
 7    1  0.2855090E-009  0.1330880E+03  0.7561462E-02  0.1222944E+00
         -1   -1    0    0    0  501 -0.00000000000E+00  0.00000000000E+00  0.99477233534E+02  0.99477233534E+02  0.00000000000E+00 0. -1.
          1   -1    0    0  501    0  0.00000000000E+00 -0.00000000000E+00 -0.23886648514E+03  0.23886648514E+03  0.00000000000E+00 0.  1.
         25    2    1    2    0    0  0.70435878725E+02  0.61931277005E+02 -0.13612317953E+03  0.20729987334E+03  0.12508805457E+03 0.  0.
          5    1    3    3  502    0  0.86434255350E+02 -0.51163729242E+01 -0.84735326704E+02  0.12122130902E+03  0.41800000000E+01 0.  1.
         -5    1    3    3    0  502 -0.15998376625E+02  0.67047649929E+02 -0.51387852828E+02  0.86078564312E+02  0.41800000000E+01 0.  1.
        -11    1    1    2    0    0 -0.12344111446E+02 -0.49513168983E+02  0.33630101481E+02  0.61113948619E+02  0.00000000000E+00 0. -1.
         11    1    1    2    0    0 -0.58091767279E+02 -0.12418108022E+02 -0.36896173554E+02  0.69929896720E+02  0.00000000000E+00 0.  1.
</event>
<event>
 7    1  0.2855090E-009  0.2955613E+03  0.7561462E-02  0.1087481E+00
         -3   -1    0    0    0  501 -0.00000000000E+00  0.00000000000E+00  0.49677526368E+03  0.49677526368E+03  0.00000000000E+00 0.  1.
          3   -1    0    0  501    0  0.00000000000E+00 -0.00000000000E+00 -0.17732354073E+03  0.17732354073E+03  0.00000000000E+00 0. -1.
         25    2    1    2    0    0  0.15215462717E+03 -0.22916110395E+03  0.14136574596E+03  0.33362860958E+03  0.12513166212E+03 0.  0.
          5    1    3    3  502    0  0.15303937558E+03 -0.12458546670E+03  0.97399140307E+02  0.22010600610E+03  0.41800000000E+01 0. -1.
         -5    1    3    3    0  502 -0.88474840845E+00 -0.10457563726E+03  0.43966605655E+02  0.11352260348E+03  0.41800000000E+01 0. -1.
        -11    1    1    2    0    0 -0.36863750567E+02  0.13583057829E+03  0.10155957212E+03  0.17356044709E+03  0.00000000000E+00 0.  1.
         11    1    1    2    0    0 -0.11529087661E+03  0.93330525667E+02  0.76526404866E+02  0.16690974774E+03  0.00000000000E+00 0. -1.
</event>
<event>
 7    1  0.2855090E-009  0.1457611E+03  0.7561462E-02  0.1205781E+00
         -2   -1    0    0    0  501 -0.00000000000E+00  0.00000000000E+00  0.52391565603E+02  0.52391565603E+02  0.00000000000E+00 0.  1.
          2   -1    0    0  501    0  0.00000000000E+00 -0.00000000000E+00 -0.95963948924E+03  0.95963948924E+03  0.00000000000E+00 0. -1.
         25    2    1    2    0    0  0.99033438700E+02 -0.84823348052E+02 -0.79937755744E+03  0.81954553573E+03  0.12509110055E+03 0.  0.
          5    1    3    3  502    0  0.88743633351E+02 -0.81380976886E+02 -0.35258307009E+03  0.37259977130E+03  0.41800000000E+01 0.  1.
         -5    1    3    3    0  502  0.10289805350E+02 -0.34423711657E+01 -0.44679448734E+03  0.44694576442E+03  0.41800000000E+01 0.  1.
        -11    1    1    2    0    0 -0.34607926442E+02  0.88354798877E+02 -0.63346102082E+02  0.11409210186E+03  0.00000000000E+00 0. -1.
         11    1    1    2    0    0 -0.64425512258E+02 -0.35314508252E+01 -0.44524264121E+02  0.78393417263E+02  0.00000000000E+00 0.  1.
</event>
<event>
 7    1  0.2855090E-009  0.1078237E+03  0.7561462E-02  0.1264654E+00
         -2   -1    0    0    0  501 -0.00000000000E+00  0.00000000000E+00  0.12615511435E+03  0.12615511435E+03  0.00000000000E+00 0. -1.
          2   -1    0    0  501    0  0.00000000000E+00 -0.00000000000E+00 -0.11988918053E+03  0.11988918053E+03  0.00000000000E+00 0.  1.
         25    2    1    2    0    0  0.32457383313E+02  0.45257619460E+02 -0.16092777834E+02  0.13787032895E+03  0.12509003260E+03 0.  0.
          5    1    3    3  502    0 -0.21361891459E+02  0.51198783199E+02  0.32981151762E+02  0.64675146534E+02  0.41800000000E+01 0.  1.
         -5    1    3    3    0  502  0.53819274772E+02 -0.59411637382E+01 -0.49073929596E+02  0.73195182420E+02  0.41800000000E+01 0.  1.
        -11    1    1    2    0    0 -0.13802248930E+02  0.27406431184E+02  0.89525192900E+01  0.31965014428E+02  0.00000000000E+00 0. -1.
         11    1    1    2    0    0 -0.18655134383E+02 -0.72664050644E+02  0.13406192357E+02  0.76208951498E+02  0.00000000000E+00 0.  1.
</event>
<event>
 7    1  0.2855090E-009  0.2521064E+03  0.7561462E-02  0.1111981E+00
         -1   -1    0    0    0  501 -0.00000000000E+00  0.00000000000E+00  0.24224367192E+03  0.24224367192E+03  0.00000000000E+00 0.  1.
          1   -1    0    0  501    0  0.00000000000E+00 -0.00000000000E+00 -0.26659033893E+03  0.26659033893E+03  0.00000000000E+00 0. -1.
         25    2    1    2    0    0  0.11531480162E+03 -0.19097771488E+03  0.44219305756E+01  0.25580280273E+03  0.12508209049E+03 0.  0.
          5    1    3    3  502    0  0.75394395080E+02 -0.20879421231E+02  0.18397731882E+02  0.80474927641E+02  0.41800000000E+01 0. -1.
         -5    1    3    3    0  502  0.39920406536E+02 -0.17009829365E+03 -0.13975801306E+02  0.17532787509E+03  0.41800000000E+01 0. -1.
        -11    1    1    2    0    0 -0.10227977889E+02  0.12836834149E+03 -0.86669021383E+01  0.12906648605E+03  0.00000000000E+00 0.  1.
         11    1    1    2    0    0 -0.10508682373E+03  0.62609373393E+02 -0.20101695445E+02  0.12396472207E+03  0.00000000000E+00 0. -1.
</event>
<event>
 7    1  0.2855090E-009  0.8752569E+02  0.7561462E-02  0.1308957E+00
         -2   -1    0    0    0  501 -0.00000000000E+00  0.00000000000E+00  0.32422441374E+02  0.32422441374E+02  0.00000000000E+00 0.  1.
          2   -1    0    0  501    0  0.00000000000E+00 -0.00000000000E+00 -0.45021781233E+03  0.45021781233E+03  0.00000000000E+00 0. -1.
         25    2    1    2    0    0  0.24954763818E+02  0.29268266382E+02 -0.17891133631E+03  0.22166643875E+03  0.12508945661E+03 0.  0.
          5    1    3    3  502    0 -0.11581661214E+02  0.30828421129E+02 -0.18174296693E+03  0.18474984399E+03  0.41800000000E+01 0. -1.
         -5    1    3    3    0  502  0.36536425031E+02 -0.15601547471E+01  0.28316306187E+01  0.36916594763E+02  0.41800000000E+01 0. -1.
        -11    1    1    2    0    0  0.37608054624E+02 -0.49852882762E+01 -0.83171128483E+02  0.91414744352E+02  0.00000000000E+00 0. -1.
         11    1    1    2    0    0 -0.62562818442E+02 -0.24282978106E+02 -0.15571290616E+03  0.16955907060E+03  0.00000000000E+00 0.  1.
</event>
<event>
 7    1  0.2855090E-009  0.1114436E+03  0.7561462E-02  0.1257920E+00
          1   -1    0    0  501    0  0.00000000000E+00  0.00000000000E+00  0.13400940922E+03  0.13400940922E+03  0.00000000000E+00 0. -1.
         -1   -1    0    0    0  501 -0.00000000000E+00 -0.00000000000E+00 -0.12961378612E+03  0.12961378612E+03  0.00000000000E+00 0.  1.
         25    2    1    2    0    0  0.43047720842E+02 -0.33687557289E+02 -0.51346333652E+02  0.14584607087E+03  0.12508666045E+03 0.  0.
          5    1    3    3  502    0  0.60359305685E+02 -0.63065287585E+02 -0.64959454914E+02  0.10889297252E+03  0.41800000000E+01 0. -1.
         -5    1    3    3    0  502 -0.17311584843E+02  0.29377730296E+02  0.13613121261E+02  0.36953098349E+02  0.41800000000E+01 0. -1.
        -11    1    1    2    0    0 -0.11140731868E+02 -0.28852446975E+02  0.54283168218E+01  0.31401373004E+02  0.00000000000E+00 0.  1.
         11    1    1    2    0    0 -0.31906988974E+02  0.62540004265E+02  0.50313639927E+02  0.86375751467E+02  0.00000000000E+00 0. -1.
</event>
<event>
 7    1  0.2855090E-009  0.1285744E+03  0.7561462E-02  0.1229587E+00
         -1   -1    0    0    0  501 -0.00000000000E+00  0.00000000000E+00  0.30300728029E+02  0.30300728029E+02  0.00000000000E+00 0.  1.
          1   -1    0    0  501    0  0.00000000000E+00 -0.00000000000E+00 -0.68035524688E+03  0.68035524688E+03  0.00000000000E+00 0. -1.
         25    2    1    2    0    0 -0.41936890367E+00 -0.93330925075E+02 -0.33528785734E+03  0.36983461258E+03  0.12509538736E+03 0.  0.
          5    1    3    3  502    0  0.19536669926E+02 -0.10256333353E+03 -0.14774697793E+03  0.18096287117E+03  0.41800000000E+01 0.  1.
         -5    1    3    3    0  502 -0.19956038829E+02  0.92324084565E+01 -0.18754087941E+03  0.18887174141E+03  0.41800000000E+01 0.  1.
        -11    1    1    2    0    0  0.10339932001E+02 -0.16784748731E+02 -0.58139514505E+02  0.61390920588E+02  0.00000000000E+00 0. -1.
         11    1    1    2    0    0 -0.99205630977E+01  0.11011567381E+03 -0.25662714700E+03  0.27943044174E+03  0.00000000000E+00 0.  1.
</event>
<event>
 7    1  0.2855090E-009  0.1796263E+03  0.7561462E-02  0.1168165E+00
         -2   -1    0    0    0  501 -0.00000000000E+00  0.00000000000E+00  0.16275068281E+03  0.16275068281E+03  0.00000000000E+00 0.  1.
          2   -1    0    0  501    0  0.00000000000E+00 -0.00000000000E+00 -0.21177820147E+03  0.21177820147E+03  0.00000000000E+00 0. -1.
         25    2    1    2    0    0 -0.34153610887E+02 -0.14352774316E+03  0.49086559262E+01  0.19348956493E+03  0.12508970638E+03 0.  0.
          5    1    3    3  502    0  0.80456479929E+01  0.21242106015E+02 -0.22089211144E+01  0.23201535554E+02  0.41800000000E+01 0.  1.
         -5    1    3    3    0  502 -0.42199258880E+02 -0.16476984918E+03  0.71175770406E+01  0.17028802938E+03  0.41800000000E+01 0.  1.
        -11    1    1    2    0    0  0.31015296190E+02  0.10195613134E+02 -0.32301387519E+02  0.45926884943E+02  0.00000000000E+00 0. -1.
         11    1    1    2    0    0  0.31383146973E+01  0.13333213003E+03 -0.21634787066E+02  0.13511243440E+03  0.00000000000E+00 0.  1.
</event>
<event>
 7    1  0.2855090E-009  0.1071023E+03  0.7561462E-02  0.1266032E+00
          1   -1    0    0  501    0  0.00000000000E+00  0.00000000000E+00  0.25693709609E+03  0.25693709609E+03  0.00000000000E+00 0. -1.
         -1   -1    0    0    0  501 -0.00000000000E+00 -0.00000000000E+00 -0.52127133423E+02  0.52127133423E+02  0.00000000000E+00 0.  1.
         25    2    1    2    0    0 -0.27948880203E+02 -0.18337331280E+02  0.84183112075E+02  0.15441876937E+03  0.12506383311E+03 0.  0.
          5    1    3    3  502    0 -0.44029583262E+02 -0.64398922229E+02  0.37088726221E+02  0.86480468311E+02  0.41800000000E+01 0. -1.
         -5    1    3    3    0  502  0.16080703060E+02  0.46061590949E+02  0.47094385854E+02  0.67938301058E+02  0.41800000000E+01 0. -1.
        -11    1    1    2    0    0  0.37714359424E+02 -0.23310650233E+02  0.94852375840E+02  0.10470306836E+03  0.00000000000E+00 0. -1.
         11    1    1    2    0    0 -0.97654792218E+01  0.41647981513E+02  0.25774474750E+02  0.49942391785E+02  0.00000000000E+00 0.  1.
</event>
<event>
 7    1  0.2855090E-009  0.1195593E+03  0.7561462E-02  0.1243826E+00
          3   -1    0    0  501    0  0.00000000000E+00  0.00000000000E+00  0.78174734297E+02  0.78174734297E+02  0.00000000000E+00 0. -1.
         -3   -1    0    0    0  501 -0.00000000000E+00 -0.00000000000E+00 -0.22912851273E+03  0.22912851273E+03  0.00000000000E+00 0.  1.
         25    2    1    2    0    0  0.34878895671E+02 -0.69599233064E+02 -0.87743400760E+02  0.17147380472E+03  0.12507506035E+03 0.  0.
          5    1    3    3  502    0 -0.53402933568E+01 -0.85357395922E+02 -0.15236258478E+02  0.86971373130E+02  0.41800000000E+01 0. -1.
         -5    1    3    3    0  502  0.40219189027E+02  0.15758162858E+02 -0.72507142282E+02  0.84502431589E+02  0.41800000000E+01 0. -1.
        -11    1    1    2    0    0  0.24017576899E+02  0.32776651005E+02 -0.51156923255E+02  0.65331337412E+02  0.00000000000E+00 0.  1.
         11    1    1    2    0    0 -0.58896472569E+02  0.36822582059E+02 -0.12053454421E+02  0.70498104897E+02  0.00000000000E+00 0. -1.
</event>
<event>
 7    1  0.2855090E-009  0.3770384E+03  0.7561462E-02  0.1052034E+00
          1   -1    0    0  501    0  0.00000000000E+00  0.00000000000E+00  0.78834623174E+03  0.78834623174E+03  0.00000000000E+00 0.  1.
         -1   -1    0    0    0  501 -0.00000000000E+00 -0.00000000000E+00 -0.19303579844E+03  0.19303579844E+03  0.00000000000E+00 0. -1.
         25    2    1    2    0    0 -0.36758569716E+03  0.41033134451E+01  0.39132964940E+03  0.55128820253E+03  0.12507480087E+03 0.  0.
          5    1    3    3  502    0 -0.37622587705E+03  0.62362077733E+01  0.38891699249E+03  0.54116420826E+03  0.41800000000E+01 0. -1.
         -5    1    3    3    0  502  0.86401798884E+01 -0.21328943282E+01  0.24126569081E+01  0.10123994275E+02  0.41800000000E+01 0. -1.
        -11    1    1    2    0    0  0.10304900946E+03  0.59011129748E+01  0.10563323190E+03  0.14768988173E+03  0.00000000000E+00 0.  1.
         11    1    1    2    0    0  0.26453668770E+03 -0.10004426420E+02  0.98347551997E+02  0.28240394592E+03  0.00000000000E+00 0. -1.
</event>
<event>
 7    1  0.2855090E-009  0.1277695E+03  0.7561462E-02  0.1230803E+00
          4   -1    0    0  501    0  0.00000000000E+00  0.00000000000E+00  0.13235820568E+04  0.13235820568E+04  0.00000000000E+00 0. -1.
         -4   -1    0    0    0  501 -0.00000000000E+00 -0.00000000000E+00 -0.18698595327E+02  0.18698595327E+02  0.00000000000E+00 0.  1.
         25    2    1    2    0    0  0.10947637598E+03 -0.13685228495E+02  0.58157505020E+03  0.60502001124E+03  0.12508921859E+03 0.  0.
          5    1    3    3  502    0  0.10746777974E+03 -0.12829975606E+02  0.58752644946E+03  0.59742675967E+03  0.41800000000E+01 0.  1.
         -5    1    3    3    0  502  0.20085962391E+01 -0.85525288930E+00 -0.59513992540E+01  0.75932515721E+01  0.41800000000E+01 0.  1.
        -11    1    1    2    0    0 -0.21008336448E+02 -0.35529560864E+02  0.22941611721E+03  0.23309966695E+03  0.00000000000E+00 0. -1.
         11    1    1    2    0    0 -0.88468039535E+02  0.49214789360E+02  0.49389229409E+03  0.50416097397E+03  0.00000000000E+00 0.  1.
</event>
<event>
 7    1  0.2855090E-009  0.1384111E+03  0.7561462E-02  0.1215483E+00
          1   -1    0    0  501    0  0.00000000000E+00  0.00000000000E+00  0.14675268169E+04  0.14675268169E+04  0.00000000000E+00 0. -1.
         -1   -1    0    0    0  501 -0.00000000000E+00 -0.00000000000E+00 -0.20841385192E+02  0.20841385192E+02  0.00000000000E+00 0.  1.
         25    2    1    2    0    0  0.92169783581E+02  0.70172092664E+02  0.10799076008E+04  0.10932831251E+04  0.12509266087E+03 0.  0.
          5    1    3    3  502    0  0.80773091265E+01  0.41353215525E+02  0.76141295373E+03  0.76258933238E+03  0.41800000000E+01 0. -1.
         -5    1    3    3    0  502  0.84092474454E+02  0.28818877140E+02  0.31849464706E+03  0.33069379272E+03  0.41800000000E+01 0. -1.
        -11    1    1    2    0    0 -0.10631591154E+03 -0.75474090805E+02  0.30935131858E+03  0.33570470615E+03  0.00000000000E+00 0.  1.
         11    1    1    2    0    0  0.14146127958E+02  0.53019981411E+01  0.57426512390E+02  0.59380370879E+02  0.00000000000E+00 0. -1.
</event>
<event>
 7    1  0.2855090E-009  0.1169011E+03  0.7561462E-02  0.1248299E+00
          2   -1    0    0  501    0  0.00000000000E+00  0.00000000000E+00  0.12207802305E+04  0.12207802305E+04  0.00000000000E+00 0.  1.
         -2   -1    0    0    0  501 -0.00000000000E+00 -0.00000000000E+00 -0.12683281700E+02  0.12683281700E+02  0.00000000000E+00 0. -1.
         25    2    1    2    0    0  0.35320952303E+00  0.58905598710E+02  0.79254115154E+03  0.80451565704E+03  0.12511583118E+03 0.  0.
          5    1    3    3  502    0 -0.49453733498E+02  0.60133842287E+02  0.61978873864E+03  0.62467375781E+03  0.41800000000E+01 0.  1.
         -5    1    3    3    0  502  0.49806943021E+02 -0.12282435767E+01  0.17275241290E+03  0.17984189923E+03  0.41800000000E+01 0.  1.
        -11    1    1    2    0    0  0.43636336936E+02 -0.33718046990E+02  0.23742315175E+03  0.24374328623E+03  0.00000000000E+00 0.  1.
         11    1    1    2    0    0 -0.43989546459E+02 -0.25187551720E+02  0.17813264548E+03  0.18520456891E+03  0.00000000000E+00 0. -1.
</event>
<event>
 7    1  0.2855090E-009  0.1589423E+03  0.7561462E-02  0.1189896E+00
         -2   -1    0    0    0  501 -0.00000000000E+00  0.00000000000E+00  0.34495966909E+02  0.34495966909E+02  0.00000000000E+00 0.  1.
          2   -1    0    0  501    0  0.00000000000E+00 -0.00000000000E+00 -0.91484331469E+03  0.91484331469E+03  0.00000000000E+00 0. -1.
         25    2    1    2    0    0  0.54411035574E+02 -0.12500819415E+03 -0.57547063572E+03  0.60448321777E+03  0.12508356646E+03 0.  0.
          5    1    3    3  502    0  0.35279278904E+02  0.15779406866E+02 -0.78703939310E+02  0.87780405923E+02  0.41800000000E+01 0. -1.
         -5    1    3    3    0  502  0.19131756670E+02 -0.14078760102E+03 -0.49676669641E+03  0.51670281185E+03  0.41800000000E+01 0. -1.
        -11    1    1    2    0    0 -0.38031312203E+02  0.99858760522E+02 -0.13412471694E+03  0.17148642062E+03  0.00000000000E+00 0.  1.
         11    1    1    2    0    0 -0.16379723371E+02  0.25149433629E+02 -0.17075199512E+03  0.17336964321E+03  0.00000000000E+00 0. -1.
</event>
<event>
 7    1  0.2855090E-009  0.2890432E+03  0.7561462E-02  0.1090850E+00
          1   -1    0    0  501    0  0.00000000000E+00  0.00000000000E+00  0.90031525426E+03  0.90031525426E+03  0.00000000000E+00 0. -1.
         -1   -1    0    0    0  501 -0.00000000000E+00 -0.00000000000E+00 -0.97599748895E+02  0.97599748895E+02  0.00000000000E+00 0.  1.
         25    2    1    2    0    0  0.10509087255E+03  0.25336796908E+03  0.36169757873E+03  0.47086219584E+03  0.12508656909E+03 0.  0.
          5    1    3    3  502    0  0.12318788727E+03  0.17664997428E+03  0.30618376028E+03  0.37436137146E+03  0.41800000000E+01 0.  1.
         -5    1    3    3    0  502 -0.18097014715E+02  0.76717994798E+02  0.55513818445E+02  0.96500824379E+02  0.41800000000E+01 0.  1.
        -11    1    1    2    0    0  0.10681955302E+02 -0.34954814851E+02  0.95132402739E+02  0.10191230201E+03  0.00000000000E+00 0. -1.
         11    1    1    2    0    0 -0.11577282785E+03 -0.21841315423E+03  0.34588552390E+03  0.42514050530E+03  0.00000000000E+00 0.  1.
</event>
<event>
 7    1  0.2855090E-009  0.1275609E+03  0.7561462E-02  0.1231120E+00
          1   -1    0    0  501    0  0.00000000000E+00  0.00000000000E+00  0.10603020216E+04  0.10603020216E+04  0.00000000000E+00 0. -1.
         -1   -1    0    0    0  501 -0.00000000000E+00 -0.00000000000E+00 -0.22401159073E+02  0.22401159073E+02  0.00000000000E+00 0.  1.
         25    2    1    2    0    0 -0.43269302140E+02  0.98441285314E+02  0.51550150278E+03  0.54125088052E+03  0.12509115531E+03 0.  0.
          5    1    3    3  502    0 -0.17955939818E+02  0.94818708858E+02  0.50352457225E+03  0.51270602745E+03  0.41800000000E+01 0.  1.
         -5    1    3    3    0  502 -0.25313362322E+02  0.36225764553E+01  0.11976930537E+02  0.28544853079E+02  0.41800000000E+01 0.  1.
        -11    1    1    2    0    0  0.52317049276E+02 -0.23881445261E+02  0.32885566187E+03  0.33384643688E+03  0.00000000000E+00 0. -1.
         11    1    1    2    0    0 -0.90477471364E+01 -0.74559840052E+02  0.19354369789E+03  0.20760586328E+03  0.00000000000E+00 0.  1.
</event>
<event>
 7    1  0.2855090E-009  0.3070101E+03  0.7561462E-02  0.1081788E+00
          2   -1    0    0  501    0  0.00000000000E+00  0.00000000000E+00  0.10054771834E+04  0.10054771834E+04  0.00000000000E+00 0.  1.
         -2   -1    0    0    0  501 -0.00000000000E+00 -0.00000000000E+00 -0.10110362006E+03  0.10110362006E+03  0.00000000000E+00 0. -1.
         25    2    1    2    0    0  0.29218656004E+03  0.65706166633E+02  0.50195929070E+03  0.59774742318E+03  0.12509422928E+03 0.  0.
          5    1    3    3  502    0  0.45716025101E+01  0.64301019692E+01  0.97492955243E+02  0.97900942196E+02  0.41800000000E+01 0. -1.
         -5    1    3    3    0  502  0.28761495753E+03  0.59276064664E+02  0.40446633546E+03  0.49984648099E+03  0.41800000000E+01 0. -1.
        -11    1    1    2    0    0 -0.17967541966E+03  0.27599835748E+01  0.23086185226E+03  0.29255438600E+03  0.00000000000E+00 0. -1.
         11    1    1    2    0    0 -0.11251114038E+03 -0.68466150208E+02  0.17155242042E+03  0.21627899433E+03  0.00000000000E+00 0.  1.
</event>
<event>
 7    1  0.2855090E-009  0.1044549E+03  0.7561462E-02  0.1271197E+00
         -2   -1    0    0    0  501 -0.00000000000E+00  0.00000000000E+00  0.59806064958E+03  0.59806064958E+03  0.00000000000E+00 0. -1.
          2   -1    0    0  501    0  0.00000000000E+00 -0.00000000000E+00 -0.31107737367E+02  0.31107737367E+02  0.00000000000E+00 0.  1.
         25    2    1    2    0    0  0.53363706222E+02  0.27668197000E+02  0.18185839860E+03  0.22876781884E+03  0.12509605720E+03 0.  0.
          5    1    3    3  502    0  0.45602002136E+02 -0.25828600750E+02  0.17050588965E+02  0.55270735471E+02  0.41800000000E+01 0.  1.
         -5    1    3    3    0  502  0.77617040855E+01  0.53496797749E+02  0.16480780964E+03  0.17349708337E+03  0.41800000000E+01 0.  1.
        -11    1    1    2    0    0 -0.14628402275E+02 -0.53561814005E+02  0.13447401057E+03  0.14548579859E+03  0.00000000000E+00 0. -1.
         11    1    1    2    0    0 -0.38735303947E+02  0.25893617005E+02  0.25062050304E+03  0.25491476952E+03  0.00000000000E+00 0.  1.
</event>
<event>
 7    1  0.2855090E-009  0.8787070E+02  0.7561462E-02  0.1308092E+00
          1   -1    0    0  501    0  0.00000000000E+00  0.00000000000E+00  0.18417920649E+03  0.18417920649E+03  0.00000000000E+00 0. -1.
         -1   -1    0    0    0  501 -0.00000000000E+00 -0.00000000000E+00 -0.10187604238E+03  0.10187604238E+03  0.00000000000E+00 0.  1.
         25    2    1    2    0    0 -0.10961664652E+01  0.43843542090E+02  0.12264962734E+03  0.18059310470E+03  0.12508989014E+03 0.  0.
          5    1    3    3  502    0 -0.22576431493E+00 -0.18317834317E+02  0.11647406376E+03  0.11797997268E+03  0.41800000000E+01 0. -1.
         -5    1    3    3    0  502 -0.87040215024E+00  0.62161376407E+02  0.61755635786E+01  0.62613132027E+02  0.41800000000E+01 0. -1.
        -11    1    1    2    0    0 -0.19734419477E+02 -0.63199044034E+02 -0.16208882973E+02  0.68163732044E+02  0.00000000000E+00 0. -1.
         11    1    1    2    0    0  0.20830585942E+02  0.19355501944E+02 -0.24137580256E+02  0.37298412122E+02  0.00000000000E+00 0.  1.
</event>
<event>
 7    1  0.2855090E-009  0.8404889E+02  0.7561462E-02  0.1317939E+00
          2   -1    0    0  501    0  0.00000000000E+00  0.00000000000E+00  0.69834670899E+03  0.69834670899E+03  0.00000000000E+00 0. -1.
         -2   -1    0    0    0  501 -0.00000000000E+00 -0.00000000000E+00 -0.18759805936E+02  0.18759805936E+02  0.00000000000E+00 0.  1.
         25    2    1    2    0    0  0.22599960208E+02  0.27865673163E+02  0.39607983438E+03  0.41691011954E+03  0.12509020197E+03 0.  0.
          5    1    3    3  502    0 -0.29379981274E+02 -0.16310879234E+02  0.28124526704E+03  0.28327654458E+03  0.41800000000E+01 0. -1.
         -5    1    3    3    0  502  0.51979941482E+02  0.44176552397E+02  0.11483456734E+03  0.13363357496E+03  0.41800000000E+01 0. -1.
        -11    1    1    2    0    0  0.17154367746E+02  0.32129144399E+00  0.55989902447E+01  0.18047832355E+02  0.00000000000E+00 0.  1.
         11    1    1    2    0    0 -0.39754327954E+02 -0.28186964607E+02  0.27790807843E+03  0.28214856303E+03  0.00000000000E+00 0. -1.
</event>
<event>
 7    1  0.2855090E-009  0.1089424E+03  0.7561462E-02  0.1262541E+00
         -3   -1    0    0    0  501 -0.00000000000E+00  0.00000000000E+00  0.43204675223E+03  0.43204675223E+03  0.00000000000E+00 0.  1.
          3   -1    0    0  501    0  0.00000000000E+00 -0.00000000000E+00 -0.33633749271E+02  0.33633749271E+02  0.00000000000E+00 0. -1.
         25    2    1    2    0    0  0.41219413678E+02 -0.16715833277E+02  0.27605958412E+03  0.30632641291E+03  0.12509403708E+03 0.  0.
          5    1    3    3  502    0 -0.27215624772E+02  0.23765846432E+02  0.16919882170E+03  0.17306420587E+03  0.41800000000E+01 0. -1.
         -5    1    3    3    0  502  0.68435038450E+02 -0.40481679708E+02  0.10686076242E+03  0.13326220704E+03  0.41800000000E+01 0. -1.
        -11    1    1    2    0    0 -0.49734813573E+02 -0.27521014848E+02  0.63223360803E+02  0.85018534983E+02  0.00000000000E+00 0.  1.
         11    1    1    2    0    0  0.85153998953E+01  0.44236848125E+02  0.59130058039E+02  0.74335553614E+02  0.00000000000E+00 0. -1.
</event>
<event>
 7    1  0.2855090E-009  0.1078458E+03  0.7561462E-02  0.1264612E+00
         -1   -1    0    0    0  501 -0.00000000000E+00  0.00000000000E+00  0.24531016097E+02  0.24531016097E+02  0.00000000000E+00 0.  1.
          1   -1    0    0  501    0  0.00000000000E+00 -0.00000000000E+00 -0.66130012527E+03  0.66130012527E+03  0.00000000000E+00 0. -1.
         25    2    1    2    0    0 -0.53008189323E+02  0.18578308404E+02 -0.47950529497E+03  0.49872558308E+03  0.12508739998E+03 0.  0.
          5    1    3    3  502    0  0.27464636379E+02  0.40665410922E+02 -0.24176824514E+03  0.24673333511E+03  0.41800000000E+01 0.  1.
         -5    1    3    3    0  502 -0.80472825702E+02 -0.22087102517E+02 -0.23773704984E+03  0.25199224797E+03  0.41800000000E+01 0.  1.
        -11    1    1    2    0    0  0.61179071070E+02  0.15153224572E+01 -0.54088146712E+02  0.81674369014E+02  0.00000000000E+00 0.  1.
         11    1    1    2    0    0 -0.81708817467E+01 -0.20093630861E+02 -0.10317566749E+03  0.10543118927E+03  0.00000000000E+00 0. -1.
</event>
<event>
 7    1  0.2855090E-009  0.1022439E+03  0.7561462E-02  0.1275647E+00
          1   -1    0    0  501    0  0.00000000000E+00  0.00000000000E+00  0.60979912664E+02  0.60979912664E+02  0.00000000000E+00 0. -1.
         -1   -1    0    0    0  501 -0.00000000000E+00 -0.00000000000E+00 -0.44549645966E+03  0.44549645966E+03  0.00000000000E+00 0.  1.
         25    2    1    2    0    0  0.24788309014E+02 -0.29476609629E+02 -0.28563803844E+03  0.31419717768E+03  0.12508975450E+03 0.  0.
          5    1    3    3  502    0 -0.29295493571E+01  0.26371031573E+02 -0.58160648892E+01  0.27482950651E+02  0.41800000000E+01 0.  1.
         -5    1    3    3    0  502  0.27717858371E+02 -0.55847641202E+02 -0.27982197355E+03  0.28671422703E+03  0.41800000000E+01 0.  1.
        -11    1    1    2    0    0 -0.18495596644E+02 -0.40687363239E+02 -0.11203025513E+03  0.12061644452E+03  0.00000000000E+00 0.  1.
         11    1    1    2    0    0 -0.62927123697E+01  0.70163972868E+02  0.13151746576E+02  0.71662750125E+02  0.00000000000E+00 0. -1.
</event>
<event>
 7    1  0.2855090E-009  0.9803824E+02  0.7561462E-02  0.1284476E+00
          1   -1    0    0  501    0  0.00000000000E+00  0.00000000000E+00  0.35967693502E+02  0.35967693502E+02  0.00000000000E+00 0. -1.
         -1   -1    0    0    0  501 -0.00000000000E+00 -0.00000000000E+00 -0.46770996000E+03  0.46770996000E+03  0.00000000000E+00 0.  1.
         25    2    1    2    0    0 -0.56929053989E+01 -0.66891320893E+02 -0.19430068404E+03  0.24063879159E+03  0.12508962474E+03 0.  0.
          5    1    3    3  502    0  0.24512728397E+02 -0.63106710173E+01  0.83185949890E+01  0.26969795044E+02  0.41800000000E+01 0.  1.
         -5    1    3    3    0  502 -0.30205633796E+02 -0.60580649876E+02 -0.20261927903E+03  0.21366899655E+03  0.41800000000E+01 0.  1.
        -11    1    1    2    0    0 -0.29766005906E+02  0.35084963074E+01 -0.26722434104E+02  0.40154864443E+02  0.00000000000E+00 0. -1.
         11    1    1    2    0    0  0.35458911305E+02  0.63382824585E+02 -0.21071914836E+03  0.22288399747E+03  0.00000000000E+00 0.  1.
</event>
<event>
 7    1  0.2855090E-009  0.1034549E+03  0.7561462E-02  0.1273194E+00
         -2   -1    0    0    0  501 -0.00000000000E+00  0.00000000000E+00  0.10794621778E+03  0.10794621778E+03  0.00000000000E+00 0.  1.
          2   -1    0    0  501    0  0.00000000000E+00 -0.00000000000E+00 -0.13986521316E+03  0.13986521316E+03  0.00000000000E+00 0. -1.
         25    2    1    2    0    0  0.83918912138E+01  0.52260694064E+02  0.30419692567E+01  0.13586835490E+03  0.12509737130E+03 0.  0.
          5    1    3    3  502    0  0.33080152654E+02  0.68690923484E+02 -0.37817949447E+02  0.85208034651E+02  0.41800000000E+01 0.  1.
         -5    1    3    3    0  502 -0.24688261440E+02 -0.16430229420E+02  0.40859918703E+02  0.50660320253E+02  0.41800000000E+01 0.  1.
        -11    1    1    2    0    0  0.30606242999E+02  0.53156863118E+01  0.54121511632E+01  0.31532364512E+02  0.00000000000E+00 0. -1.
         11    1    1    2    0    0 -0.38998134213E+02 -0.57576380376E+02 -0.40373115794E+02  0.80410711526E+02  0.00000000000E+00 0.  1.
</event>
<event>
 7    1  0.2855090E-009  0.1317430E+03  0.7561462E-02  0.1224892E+00
         -3   -1    0    0    0  501 -0.00000000000E+00  0.00000000000E+00  0.21687058023E+03  0.21687058023E+03  0.00000000000E+00 0.  1.
          3   -1    0    0  501    0  0.00000000000E+00 -0.00000000000E+00 -0.22903116016E+03  0.22903116016E+03  0.00000000000E+00 0. -1.
         25    2    1    2    0    0  0.44710914963E+02 -0.10880036397E+03  0.14811888895E+03  0.22675226896E+03  0.12506318842E+03 0.  0.
          5    1    3    3  502    0  0.24925084328E+02 -0.10860689223E+03  0.42689765013E+02  0.11940102724E+03  0.41800000000E+01 0.  1.
         -5    1    3    3    0  502  0.19785830635E+02 -0.19347174088E+00  0.10542912394E+03  0.10735124173E+03  0.41800000000E+01 0.  1.
        -11    1    1    2    0    0 -0.43490771933E+02  0.29746551891E+02 -0.16757612579E+02  0.55291248603E+02  0.00000000000E+00 0.  1.
         11    1    1    2    0    0 -0.12201430291E+01  0.79053812079E+02 -0.14352185630E+03  0.16385822283E+03  0.00000000000E+00 0. -1.
</event>
<event>
 7    1  0.2855090E-009  0.1077574E+03  0.7561462E-02  0.1264780E+00
         -2   -1    0    0    0  501 -0.00000000000E+00  0.00000000000E+00  0.15108333064E+02  0.15108333064E+02  0.00000000000E+00 0. -1.
          2   -1    0    0  501    0  0.00000000000E+00 -0.00000000000E+00 -0.87274601203E+03  0.87274601203E+03  0.00000000000E+00 0.  1.
         25    2    1    2    0    0  0.20257276113E+02 -0.28682000662E+02 -0.39815888562E+03  0.41882069196E+03  0.12508900598E+03 0.  0.
          5    1    3    3  502    0 -0.23627525310E+02 -0.62206216598E+02 -0.28682863251E+03  0.29447582271E+03  0.41800000000E+01 0. -1.
         -5    1    3    3    0  502  0.43884801423E+02  0.33524215936E+02 -0.11133025311E+03  0.12434486925E+03  0.41800000000E+01 0. -1.
        -11    1    1    2    0    0  0.22806781801E+01  0.57124059202E+02 -0.25182919455E+03  0.25823691228E+03  0.00000000000E+00 0.  1.
         11    1    1    2    0    0 -0.22537954293E+02 -0.28442058541E+02 -0.20764959879E+03  0.21079674086E+03  0.00000000000E+00 0. -1.
</event>
<event>
 7    1  0.2855090E-009  0.1084409E+03  0.7561462E-02  0.1263485E+00
         -3   -1    0    0    0  501 -0.00000000000E+00  0.00000000000E+00  0.16434220789E+03  0.16434220789E+03  0.00000000000E+00 0.  1.
          3   -1    0    0  501    0  0.00000000000E+00 -0.00000000000E+00 -0.79817444899E+02  0.79817444899E+02  0.00000000000E+00 0. -1.
         25    2    1    2    0    0 -0.14809389846E+02 -0.38969194750E+02  0.42326100565E+02  0.13847984791E+03  0.12508898161E+03 0.  0.
          5    1    3    3  502    0 -0.21082077261E+01  0.45334319473E+02  0.22607390492E+02  0.50874468712E+02  0.41800000000E+01 0. -1.
         -5    1    3    3    0  502 -0.12701182120E+02 -0.84303514223E+02  0.19718710074E+02  0.87605379198E+02  0.41800000000E+01 0. -1.
        -11    1    1    2    0    0 -0.15871020165E+02 -0.16290505833E+02  0.35445362829E+02  0.42114648371E+02  0.00000000000E+00 0.  1.
         11    1    1    2    0    0  0.30680410011E+02  0.55259700583E+02  0.67532996013E+01  0.63565156512E+02  0.00000000000E+00 0. -1.
</event>
<event>
 7    1  0.2855090E-009  0.2074644E+03  0.7561462E-02  0.1143590E+00
          2   -1    0    0  501    0  0.00000000000E+00  0.00000000000E+00  0.85949968026E+03  0.85949968026E+03  0.00000000000E+00 0. -1.
         -2   -1    0    0    0  501 -0.00000000000E+00 -0.00000000000E+00 -0.64199692227E+02  0.64199692227E+02  0.00000000000E+00 0.  1.
         25    2    1    2    0    0 -0.12552953916E+03  0.14127683965E+03  0.24104321244E+03  0.33085826108E+03  0.12509415668E+03 0.  0.
          5    1    3    3  502    0 -0.13752966235E+03  0.12146819458E+03  0.24588424659E+03  0.30683133061E+03  0.41800000000E+01 0.  1.
         -5    1    3    3    0  502  0.12000123194E+02  0.19808645071E+02 -0.48410341472E+01  0.24026930471E+02  0.41800000000E+01 0.  1.
        -11    1    1    2    0    0  0.73772139331E+02 -0.20670792848E+02  0.16181762281E+03  0.17903785430E+03  0.00000000000E+00 0.  1.
         11    1    1    2    0    0  0.51757399829E+02 -0.12060604680E+03  0.39243915277E+03  0.41380325711E+03  0.00000000000E+00 0. -1.
</event>
<event>
 7    1  0.2855090E-009  0.1192959E+03  0.7561462E-02  0.1244263E+00
          1   -1    0    0  501    0  0.00000000000E+00  0.00000000000E+00  0.27964389382E+03  0.27964389382E+03  0.00000000000E+00 0. -1.
         -1   -1    0    0    0  501 -0.00000000000E+00 -0.00000000000E+00 -0.83177946919E+02  0.83177946919E+02  0.00000000000E+00 0.  1.
         25    2    1    2    0    0 -0.30087502923E+02  0.69046558526E+02  0.19757923875E+03  0.24567906587E+03  0.12509181727E+03 0.  0.
          5    1    3    3  502    0 -0.47348205812E+02  0.96887628894E+02  0.17525678703E+03  0.20581904438E+03  0.41800000000E+01 0. -1.
         -5    1    3    3    0  502  0.17260702889E+02 -0.27841070368E+02  0.22322451712E+02  0.39860021499E+02  0.41800000000E+01 0. -1.
        -11    1    1    2    0    0 -0.29078040835E+01 -0.64240265467E+02  0.30520264250E+02  0.71181132063E+02  0.00000000000E+00 0. -1.
         11    1    1    2    0    0  0.32995307007E+02 -0.48062930586E+01 -0.31633556097E+02  0.45961642799E+02  0.00000000000E+00 0.  1.
</event>
<event>
 7    1  0.2855090E-009  0.1958825E+03  0.7561462E-02  0.1153260E+00
          3   -1    0    0  501    0  0.00000000000E+00  0.00000000000E+00  0.11402890174E+03  0.11402890174E+03  0.00000000000E+00 0. -1.
         -3   -1    0    0    0  501 -0.00000000000E+00 -0.00000000000E+00 -0.42290725047E+03  0.42290725047E+03  0.00000000000E+00 0.  1.
         25    2    1    2    0    0  0.21402210974E+02 -0.18831587773E+03 -0.13894414822E+03  0.26622296628E+03  0.12509303342E+03 0.  0.
          5    1    3    3  502    0  0.13293573935E+02 -0.16506044132E+03 -0.48807138008E+02  0.17268838269E+03  0.41800000000E+01 0. -1.
         -5    1    3    3    0  502  0.81086370392E+01 -0.23255436412E+02 -0.90137010214E+02  0.93534583591E+02  0.41800000000E+01 0. -1.
        -11    1    1    2    0    0  0.23844159363E+02  0.86370088541E+02 -0.11668609812E+03  0.14711893700E+03  0.00000000000E+00 0.  1.
         11    1    1    2    0    0 -0.45246370338E+02  0.10194578919E+03 -0.53248102387E+02  0.12359424893E+03  0.00000000000E+00 0. -1.
</event>
<event>
 7    1  0.2855090E-009  0.1313390E+03  0.7561462E-02  0.1225482E+00
         -1   -1    0    0    0  501 -0.00000000000E+00  0.00000000000E+00  0.39936451263E+02  0.39936451263E+02  0.00000000000E+00 0.  1.
          1   -1    0    0  501    0  0.00000000000E+00 -0.00000000000E+00 -0.57769389801E+03  0.57769389801E+03  0.00000000000E+00 0. -1.
         25    2    1    2    0    0 -0.99878234883E+01  0.10362331796E+03 -0.33721294787E+03  0.37443284551E+03  0.12509930032E+03 0.  0.
          5    1    3    3  502    0 -0.21679879346E+02 -0.18562882297E+02 -0.13334315973E+03  0.13642752074E+03  0.41800000000E+01 0.  1.
         -5    1    3    3    0  502  0.11692055858E+02  0.12218620026E+03 -0.20386978814E+03  0.23800532477E+03  0.41800000000E+01 0.  1.
        -11    1    1    2    0    0 -0.14748882722E+02 -0.46052623739E+02 -0.16328844329E+03  0.17029823665E+03  0.00000000000E+00 0. -1.
         11    1    1    2    0    0  0.24736706211E+02 -0.57570694224E+02 -0.37256055590E+02  0.72899267114E+02  0.00000000000E+00 0.  1.
</event>
<event>
 7    1  0.2855090E-009  0.8587301E+02  0.7561462E-02  0.1313165E+00
         -2   -1    0    0    0  501 -0.00000000000E+00  0.00000000000E+00  0.53650531319E+02  0.53650531319E+02  0.00000000000E+00 0.  1.
          2   -1    0    0  501    0  0.00000000000E+00 -0.00000000000E+00 -0.36127026593E+03  0.36127026593E+03  0.00000000000E+00 0. -1.
         25    2    1    2    0    0  0.49009183667E+02  0.68102013279E+02 -0.14115220531E+03  0.20642599320E+03  0.12509181152E+03 0.  0.
          5    1    3    3  502    0  0.29864860721E+02  0.57431754149E+02 -0.13779567449E+01  0.64882104276E+02  0.41800000000E+01 0. -1.
         -5    1    3    3    0  502  0.19144322946E+02  0.10670259131E+02 -0.13977424856E+03  0.14154388893E+03  0.41800000000E+01 0. -1.
        -11    1    1    2    0    0 -0.32571403601E+02 -0.53201379184E+02 -0.17417438210E+03  0.18500810377E+03  0.00000000000E+00 0. -1.
         11    1    1    2    0    0 -0.16437780066E+02 -0.14900634095E+02  0.77068527985E+01  0.23486700279E+02  0.00000000000E+00 0.  1.
</event>
<event>
 7    1  0.2855090E-009  0.3878824E+03  0.7561462E-02  0.1048058E+00
          1   -1    0    0  501    0  0.00000000000E+00  0.00000000000E+00  0.13779733932E+03  0.13779733932E+03  0.00000000000E+00 0. -1.
         -1   -1    0    0    0  501 -0.00000000000E+00 -0.00000000000E+00 -0.14128074365E+04  0.14128074365E+04  0.00000000000E+00 0.  1.
         25    2    1    2    0    0 -0.14730666272E+03  0.35487394618E+03 -0.31410999212E+03  0.51180462207E+03  0.12507643048E+03 0.  0.
          5    1    3    3  502    0 -0.52826721179E+02  0.22179955799E+03 -0.24446105001E+03  0.33431180620E+03  0.41800000000E+01 0.  1.
         -5    1    3    3    0  502 -0.94479941538E+02  0.13307438820E+03 -0.69648942103E+02  0.17749281586E+03  0.41800000000E+01 0.  1.
        -11    1    1    2    0    0  0.81091830825E+02 -0.17788885463E+03 -0.60561139822E+03  0.63638470698E+03  0.00000000000E+00 0.  1.
         11    1    1    2    0    0  0.66214831892E+02 -0.17698509155E+03 -0.35528870686E+03  0.40241544679E+03  0.00000000000E+00 0. -1.
</event>
<event>
 7    1  0.2855090E-009  0.7317789E+02  0.7561462E-02  0.1349608E+00
          2   -1    0    0  501    0  0.00000000000E+00  0.00000000000E+00  0.50899448597E+03  0.50899448597E+03  0.00000000000E+00 0. -1.
         -2   -1    0    0    0  501 -0.00000000000E+00 -0.00000000000E+00 -0.25941198108E+02  0.25941198108E+02  0.00000000000E+00 0.  1.
         25    2    1    2    0    0  0.14510993565E+02 -0.87781234070E+01  0.20671985447E+03  0.24221496915E+03  0.12508944264E+03 0.  0.
          5    1    3    3  502    0 -0.18229416605E+02  0.84398224887E+01  0.20384701253E+03  0.20487708303E+03  0.41800000000E+01 0.  1.
         -5    1    3    3    0  502  0.32740410171E+02 -0.17217945896E+02  0.28728419465E+01  0.37337886120E+02  0.41800000000E+01 0.  1.
        -11    1    1    2    0    0  0.36831529861E+02  0.36448447481E+01  0.17652789084E+03  0.18036613521E+03  0.00000000000E+00 0.  1.
         11    1    1    2    0    0 -0.51342523426E+02  0.51332786589E+01  0.99805542549E+02  0.11235457972E+03  0.00000000000E+00 0. -1.
</event>
<event>
 7    1  0.2855090E-009  0.1898498E+03  0.7561462E-02  0.1158597E+00
         -1   -1    0    0    0  501 -0.00000000000E+00  0.00000000000E+00  0.59144668586E+03  0.59144668586E+03  0.00000000000E+00 0.  1.
          1   -1    0    0  501    0  0.00000000000E+00 -0.00000000000E+00 -0.76376737175E+02  0.76376737175E+02  0.00000000000E+00 0. -1.
         25    2    1    2    0    0 -0.16935245314E+03  0.46461863477E+02  0.18834381194E+03  0.28628721107E+03  0.12509203645E+03 0.  0.
          5    1    3    3  502    0 -0.25401032953E+02  0.48683768268E+02  0.10833111231E+03  0.12152540501E+03  0.41800000000E+01 0. -1.
         -5    1    3    3    0  502 -0.14395142019E+03 -0.22219047913E+01  0.80012699631E+02  0.16476180606E+03  0.41800000000E+01 0. -1.
        -11    1    1    2    0    0  0.13338336846E+03 -0.17715361554E+02  0.29876405711E+03  0.32766586462E+03  0.00000000000E+00 0.  1.
         11    1    1    2    0    0  0.35969084683E+02 -0.28746501923E+02  0.27962079632E+02  0.53870347345E+02  0.00000000000E+00 0. -1.
</event>
<event>
 7    1  0.2855090E-009  0.9362352E+02  0.7561462E-02  0.1294307E+00
         -2   -1    0    0    0  501 -0.00000000000E+00  0.00000000000E+00  0.82794793706E+02  0.82794793706E+02  0.00000000000E+00 0.  1.
          2   -1    0    0  501    0  0.00000000000E+00 -0.00000000000E+00 -0.12718712853E+03  0.12718712853E+03  0.00000000000E+00 0. -1.
         25    2    1    2    0    0 -0.26619400061E+02  0.18791836316E+01 -0.16097762976E+02  0.12891650131E+03  0.12509277576E+03 0.  0.
          5    1    3    3  502    0  0.40099146565E+02 -0.30228648788E+02 -0.21007279197E+02  0.54593872752E+02  0.41800000000E+01 0.  1.
         -5    1    3    3    0  502 -0.66718546625E+02  0.32107832419E+02  0.49095162211E+01  0.74322628560E+02  0.41800000000E+01 0.  1.
        -11    1    1    2    0    0  0.44192160892E+02 -0.61341273713E+01 -0.39672055567E+02  0.59702986490E+02  0.00000000000E+00 0. -1.
         11    1    1    2    0    0 -0.17572760831E+02  0.42549437398E+01  0.11377483715E+02  0.21362434439E+02  0.00000000000E+00 0.  1.
</event>
<event>
 7    1  0.2855090E-009  0.1003246E+03  0.7561462E-02  0.1279615E+00
          2   -1    0    0  501    0  0.00000000000E+00  0.00000000000E+00  0.12940801694E+03  0.12940801694E+03  0.00000000000E+00 0.  1.
         -2   -1    0    0    0  501 -0.00000000000E+00 -0.00000000000E+00 -0.95758571418E+02  0.95758571418E+02  0.00000000000E+00 0. -1.
         25    2    1    2    0    0 -0.78086597670E+01 -0.24197133309E+02  0.13253918852E+02  0.12833121150E+03  0.12508699793E+03 0.  0.
          5    1    3    3  502    0  0.51184219753E+02  0.16143989980E+02 -0.60864757537E+01  0.54175366647E+02  0.41800000000E+01 0.  1.
         -5    1    3    3    0  502 -0.58992879520E+02 -0.40341123289E+02  0.19340394605E+02  0.74155844853E+02  0.41800000000E+01 0.  1.
        -11    1    1    2    0    0  0.22842256823E+02  0.44467072840E+02 -0.16050967124E+02  0.52504502753E+02  0.00000000000E+00 0. -1.
         11    1    1    2    0    0 -0.15033597056E+02 -0.20269939531E+02  0.36446493798E+02  0.44330874108E+02  0.00000000000E+00 0.  1.
</event>
<event>
 7    1  0.2855090E-009  0.7701629E+02  0.7561462E-02  0.1337739E+00
          1   -1    0    0  501    0  0.00000000000E+00  0.00000000000E+00  0.24722590879E+03  0.24722590879E+03  0.00000000000E+00 0. -1.
         -1   -1    0    0    0  501 -0.00000000000E+00 -0.00000000000E+00 -0.88467589761E+02  0.88467589761E+02  0.00000000000E+00 0.  1.
         25    2    1    2    0    0 -0.84120614078E+01 -0.70487498185E+02  0.16769781359E+03  0.22092140982E+03  0.12507782561E+03 0.  0.
          5    1    3    3  502    0  0.15627747354E+02 -0.43230132664E+02  0.17720903610E+03  0.18312177842E+03  0.41800000000E+01 0.  1.
         -5    1    3    3    0  502 -0.24039808761E+02 -0.27257365521E+02 -0.95112225105E+01  0.37799631401E+02  0.41800000000E+01 0.  1.
        -11    1    1    2    0    0 -0.95654637729E+00  0.13959038888E+02 -0.44962868111E+02  0.47089587559E+02  0.00000000000E+00 0.  1.
         11    1    1    2    0    0  0.93686077851E+01  0.56528459297E+02  0.36023373551E+02  0.67682501168E+02  0.00000000000E+00 0. -1.
</event>
<event>
 7    1  0.2855090E-009  0.1000833E+03  0.7561462E-02  0.1280121E+00
         -2   -1    0    0    0  501 -0.00000000000E+00  0.00000000000E+00  0.69380642588E+02  0.69380642588E+02  0.00000000000E+00 0.  1.
          2   -1    0    0  501    0  0.00000000000E+00 -0.00000000000E+00 -0.38375962437E+03  0.38375962437E+03  0.00000000000E+00 0. -1.
         25    2    1    2    0    0  0.26564515112E+02 -0.41600441784E+02 -0.32368388540E+03  0.35050651703E+03  0.12508913060E+03 0.  0.
          5    1    3    3  502    0 -0.36645340876E+02 -0.87987138247E+01 -0.30193225341E+02  0.48470626460E+02  0.41800000000E+01 0. -1.
         -5    1    3    3    0  502  0.63209855988E+02 -0.32801727959E+02 -0.29349066006E+03  0.30203589057E+03  0.41800000000E+01 0. -1.
        -11    1    1    2    0    0 -0.25510355687E+02 -0.18051237679E+02 -0.19026709741E+02  0.36587444740E+02  0.00000000000E+00 0. -1.
         11    1    1    2    0    0 -0.10541594254E+01  0.59651679463E+02  0.28331613351E+02  0.66046305195E+02  0.00000000000E+00 0.  1.
</event>
<event>
 7    1  0.2855090E-009  0.4586369E+02  0.7561462E-02  0.1469021E+00
         -1   -1    0    0    0  501 -0.00000000000E+00  0.00000000000E+00  0.23237377464E+02  0.23237377464E+02  0.00000000000E+00 0.  1.
          1   -1    0    0  501    0  0.00000000000E+00 -0.00000000000E+00 -0.56086509832E+03  0.56086509832E+03  0.00000000000E+00 0. -1.
         25    2    1    2    0    0 -0.16328174538E+01 -0.30666745102E+01 -0.38233984175E+03  0.40229758188E+03  0.12509004442E+03 0.  0.
          5    1    3    3  502    0  0.43676689172E+00 -0.98530569940E+01 -0.39053382166E+03  0.39068070307E+03  0.41800000000E+01 0.  1.
         -5    1    3    3    0  502 -0.20695843455E+01  0.67863824838E+01  0.81939799050E+01  0.11616878809E+02  0.41800000000E+01 0.  1.
        -11    1    1    2    0    0 -0.11298368868E+02 -0.32780252202E+02 -0.17489082259E+02  0.38833826385E+02  0.00000000000E+00 0.  1.
         11    1    1    2    0    0  0.12931186322E+02  0.35846926712E+02 -0.13779879685E+03  0.14297106752E+03  0.00000000000E+00 0. -1.
</event>
<event>
 7    1  0.2855090E-009  0.1804280E+03  0.7561462E-02  0.1167390E+00
          1   -1    0    0  501    0  0.00000000000E+00  0.00000000000E+00  0.33926639059E+03  0.33926639059E+03  0.00000000000E+00 0. -1.
         -1   -1    0    0    0  501 -0.00000000000E+00 -0.00000000000E+00 -0.10656179306E+03  0.10656179306E+03  0.00000000000E+00 0.  1.
         25    2    1    2    0    0  0.40597688830E+02 -0.15002173186E+03  0.13875908639E+03  0.24301370883E+03  0.12508751439E+03 0.  0.
          5    1    3    3  502    0 -0.38386251820E+02 -0.94274221370E+02  0.59872124026E+02  0.11816630983E+03  0.41800000000E+01 0.  1.
         -5    1    3    3    0  502  0.78983940650E+02 -0.55747510488E+02  0.78886962367E+02  0.12484739900E+03  0.41800000000E+01 0.  1.
        -11    1    1    2    0    0 -0.33708809290E+02  0.41460667191E+02 -0.76386750844E+01  0.53977959435E+02  0.00000000000E+00 0.  1.
         11    1    1    2    0    0 -0.68888795400E+01  0.10856106467E+03  0.10158418622E+03  0.14883651539E+03  0.00000000000E+00 0. -1.
</event>
<event>
 7    1  0.2855090E-009  0.1160675E+03  0.7561462E-02  0.1249729E+00
         -2   -1    0    0    0  501 -0.00000000000E+00  0.00000000000E+00  0.15717290616E+03  0.15717290616E+03  0.00000000000E+00 0.  1.
          2   -1    0    0  501    0  0.00000000000E+00 -0.00000000000E+00 -0.11578228135E+03  0.11578228135E+03  0.00000000000E+00 0. -1.
         25    2    1    2    0    0  0.30440354952E+02 -0.49389751942E+02  0.77405190826E+02  0.15812911281E+03  0.12508912801E+03 0.  0.
          5    1    3    3  502    0  0.65009789285E+02 -0.71083158902E+02  0.48394418350E+02  0.10788225206E+03  0.41800000000E+01 0. -1.
         -5    1    3    3    0  502 -0.34569434332E+02  0.21693406960E+02  0.29010772477E+02  0.50246860750E+02  0.41800000000E+01 0. -1.
        -11    1    1    2    0    0 -0.19011307082E+02  0.69230470234E+02 -0.50460520050E+02  0.87752788500E+02  0.00000000000E+00 0. -1.
         11    1    1    2    0    0 -0.11429047870E+02 -0.19840718292E+02  0.14445954036E+02  0.27073286198E+02  0.00000000000E+00 0.  1.
</event>
<event>
 7    1  0.2855090E-009  0.2561534E+03  0.7561462E-02  0.1109477E+00
         -2   -1    0    0    0  501 -0.00000000000E+00  0.00000000000E+00  0.61383193205E+03  0.61383193205E+03  0.00000000000E+00 0. -1.
          2   -1    0    0  501    0  0.00000000000E+00 -0.00000000000E+00 -0.11135259275E+03  0.11135259275E+03  0.00000000000E+00 0.  1.
         25    2    1    2    0    0  0.18841198400E+03  0.14103792960E+03  0.21386019700E+03  0.34172293796E+03  0.12509040396E+03 0.  0.
          5    1    3    3  502    0  0.11185879919E+03  0.14820426463E+03  0.17618366200E+03  0.25599814485E+03  0.41800000000E+01 0.  1.
         -5    1    3    3    0  502  0.76553184816E+02 -0.71663350379E+01  0.37676534999E+02  0.85724793105E+02  0.41800000000E+01 0.  1.
        -11    1    1    2    0    0 -0.93277946372E+02 -0.12027267611E+03  0.14704169032E+03  0.21163069387E+03  0.00000000000E+00 0.  1.
         11    1    1    2    0    0 -0.95134037631E+02 -0.20765253487E+02  0.14157745198E+03  0.17183089297E+03  0.00000000000E+00 0. -1.
</event>
<event>
 7    1  0.2855090E-009  0.9920680E+02  0.7561462E-02  0.1281973E+00
          1   -1    0    0  501    0  0.00000000000E+00  0.00000000000E+00  0.39643819563E+03  0.39643819563E+03  0.00000000000E+00 0. -1.
         -1   -1    0    0    0  501 -0.00000000000E+00 -0.00000000000E+00 -0.42315014350E+02  0.42315014350E+02  0.00000000000E+00 0.  1.
         25    2    1    2    0    0 -0.16408785335E+02 -0.59443024728E+02  0.24927029222E+03  0.28563153923E+03  0.12508787390E+03 0.  0.
          5    1    3    3  502    0  0.83803641049E+01  0.20668838460E+02  0.16542026914E+03  0.16696936613E+03  0.41800000000E+01 0. -1.
         -5    1    3    3    0  502 -0.24789149440E+02 -0.80111863187E+02  0.83850023081E+02  0.11866217310E+03  0.41800000000E+01 0. -1.
        -11    1    1    2    0    0  0.49778884659E+01  0.73484262082E+02  0.11167263856E+03  0.13377404214E+03  0.00000000000E+00 0. -1.
         11    1    1    2    0    0  0.11430896869E+02 -0.14041237354E+02 -0.68197494970E+01  0.19347628611E+02  0.00000000000E+00 0.  1.
</event>
<event>
 7    1  0.2855090E-009  0.9688979E+02  0.7561462E-02  0.1286976E+00
          4   -1    0    0  501    0  0.00000000000E+00  0.00000000000E+00  0.35264305670E+03  0.35264305670E+03  0.00000000000E+00 0. -1.
         -4   -1    0    0    0  501 -0.00000000000E+00 -0.00000000000E+00 -0.41383714646E+02  0.41383714646E+02  0.00000000000E+00 0.  1.
         25    2    1    2    0    0  0.39586230766E+02 -0.15560852314E+02  0.22525744045E+03  0.26114667075E+03  0.12508980525E+03 0.  0.
          5    1    3    3  502    0 -0.23652878504E+02 -0.42388072453E+02  0.38449394007E+02  0.62064769776E+02  0.41800000000E+01 0.  1.
         -5    1    3    3    0  502  0.63239109270E+02  0.26827220139E+02  0.18680804644E+03  0.19908190097E+03  0.41800000000E+01 0.  1.
        -11    1    1    2    0    0 -0.42744052939E+02  0.35798939169E+02  0.13260984640E+02  0.57310311645E+02  0.00000000000E+00 0.  1.
         11    1    1    2    0    0  0.31578221724E+01 -0.20238086855E+02  0.72740916966E+02  0.75569788947E+02  0.00000000000E+00 0. -1.
</event>
<event>
 7    1  0.2855090E-009  0.1620244E+03  0.7561462E-02  0.1186430E+00
         -1   -1    0    0    0  501 -0.00000000000E+00  0.00000000000E+00  0.19829662684E+03  0.19829662684E+03  0.00000000000E+00 0.  1.
          1   -1    0    0  501    0  0.00000000000E+00 -0.00000000000E+00 -0.13798412661E+03  0.13798412661E+03  0.00000000000E+00 0. -1.
         25    2    1    2    0    0  0.86612241969E+02  0.85460011256E+02  0.58085744532E+02  0.18391424923E+03  0.12508158685E+03 0.  0.
          5    1    3    3  502    0  0.41942745975E+02 -0.28114390622E+02  0.55194807893E+01  0.50966164935E+02  0.41800000000E+01 0. -1.
         -5    1    3    3    0  502  0.44669495994E+02  0.11357440188E+03  0.52566263743E+02  0.13294808430E+03  0.41800000000E+01 0. -1.
        -11    1    1    2    0    0 -0.28011983705E+02  0.17335509845E+02  0.80020569064E+01  0.33900207188E+02  0.00000000000E+00 0.  1.
         11    1    1    2    0    0 -0.58600258265E+02 -0.10279552110E+03 -0.57753012105E+01  0.11846629703E+03  0.00000000000E+00 0. -1.
</event>
<event>
 7    1  0.2855090E-009  0.1067541E+03  0.7561462E-02  0.1266702E+00
          2   -1    0    0  501    0  0.00000000000E+00  0.00000000000E+00  0.79380616967E+03  0.79380616967E+03  0.00000000000E+00 0.  1.
         -2   -1    0    0    0  501 -0.00000000000E+00 -0.00000000000E+00 -0.18272205446E+02  0.18272205446E+02  0.00000000000E+00 0. -1.
         25    2    1    2    0    0  0.50646053771E+02  0.17452900902E+01  0.50379130361E+03  0.52155612370E+03  0.12508814402E+03 0.  0.
          5    1    3    3  502    0  0.25271341503E+02 -0.53890072206E+02  0.36484566249E+03  0.36969258908E+03  0.41800000000E+01 0.  1.
         -5    1    3    3    0  502  0.25374712268E+02  0.55635362296E+02  0.13894564112E+03  0.15186353462E+03  0.41800000000E+01 0.  1.
        -11    1    1    2    0    0 -0.78677141620E+01  0.35173318448E+02  0.17335829531E+03  0.17706541675E+03  0.00000000000E+00 0.  1.
         11    1    1    2    0    0 -0.42778339609E+02 -0.36918608538E+02  0.98384365313E+02  0.11345683467E+03  0.00000000000E+00 0. -1.
</event>
<event>
 7    1  0.2855090E-009  0.1145256E+03  0.7561462E-02  0.1252412E+00
          3   -1    0    0  501    0  0.00000000000E+00  0.00000000000E+00  0.15688569036E+02  0.15688569036E+02  0.00000000000E+00 0. -1.
         -3   -1    0    0    0  501 -0.00000000000E+00 -0.00000000000E+00 -0.89840754996E+03  0.89840754996E+03  0.00000000000E+00 0.  1.
         25    2    1    2    0    0  0.38648018017E+02 -0.33597008023E+02 -0.56821740127E+03  0.58407285068E+03  0.12509057340E+03 0.  0.
          5    1    3    3  502    0 -0.31010918534E+02 -0.52465056767E+02 -0.21368133239E+03  0.22224185803E+03  0.41800000000E+01 0. -1.
         -5    1    3    3    0  502  0.69658936551E+02  0.18868048744E+02 -0.35453606888E+03  0.36183099265E+03  0.41800000000E+01 0. -1.
        -11    1    1    2    0    0 -0.23285177662E+02  0.60425877808E+02 -0.16286060174E+03  0.17526283636E+03  0.00000000000E+00 0. -1.
         11    1    1    2    0    0 -0.15362840355E+02 -0.26828869784E+02 -0.15164097792E+03  0.15476043196E+03  0.00000000000E+00 0.  1.
</event>
<event>
 7    1  0.2855090E-009  0.4347798E+02  0.7561462E-02  0.1484073E+00
         -2   -1    0    0    0  501 -0.00000000000E+00  0.00000000000E+00  0.73512143983E+02  0.73512143983E+02  0.00000000000E+00 0.  1.
          2   -1    0    0  501    0  0.00000000000E+00 -0.00000000000E+00 -0.16250656032E+03  0.16250656032E+03  0.00000000000E+00 0. -1.
         25    2    1    2    0    0  0.93156541994E+01 -0.16190694706E+02 -0.78048609687E+02  0.14862092768E+03  0.12509066577E+03 0.  0.
          5    1    3    3  502    0  0.34363774761E+01  0.42354456762E+01  0.33903176152E+02  0.34592563412E+02  0.41800000000E+01 0. -1.
         -5    1    3    3    0  502  0.58792767233E+01 -0.20426140382E+02 -0.11195178584E+03  0.11402836427E+03  0.41800000000E+01 0. -1.
        -11    1    1    2    0    0  0.23131898741E+02  0.27282185443E+01  0.27019366607E+02  0.35673156401E+02  0.00000000000E+00 0.  1.
         11    1    1    2    0    0 -0.32447552941E+02  0.13462476162E+02 -0.37965173252E+02  0.51724620214E+02  0.00000000000E+00 0. -1.
</event>
<event>
 7    1  0.2855090E-009  0.1112658E+03  0.7561462E-02  0.1258244E+00
         -2   -1    0    0    0  501 -0.00000000000E+00  0.00000000000E+00  0.33093702787E+02  0.33093702787E+02  0.00000000000E+00 0.  1.
          2   -1    0    0  501    0  0.00000000000E+00 -0.00000000000E+00 -0.49389164654E+03  0.49389164654E+03  0.00000000000E+00 0. -1.
         25    2    1    2    0    0  0.30686823022E+02  0.34382223079E+02 -0.35854352235E+03  0.38252418582E+03  0.12508987549E+03 0.  0.
          5    1    3    3  502    0 -0.24161352297E+02  0.58273427363E+02 -0.11025181155E+03  0.12709247669E+03  0.41800000000E+01 0.  1.
         -5    1    3    3    0  502  0.54848175319E+02 -0.23891204284E+02 -0.24829171080E+03  0.25543170913E+03  0.41800000000E+01 0.  1.
        -11    1    1    2    0    0 -0.61927987105E+02 -0.21680650713E+02 -0.82378246960E+02  0.10531524949E+03  0.00000000000E+00 0. -1.
         11    1    1    2    0    0  0.31241164083E+02 -0.12701572366E+02 -0.19876174445E+02  0.39145914019E+02  0.00000000000E+00 0.  1.
</event>
<event>
 7    1  0.2855090E-009  0.1083592E+03  0.7561462E-02  0.1263639E+00
          1   -1    0    0  501    0  0.00000000000E+00  0.00000000000E+00  0.12442928579E+04  0.12442928579E+04  0.00000000000E+00 0. -1.
         -1   -1    0    0    0  501 -0.00000000000E+00 -0.00000000000E+00 -0.12563358772E+02  0.12563358772E+02  0.00000000000E+00 0.  1.
         25    2    1    2    0    0  0.37847290293E+02  0.50997179764E+02  0.68972201510E+03  0.70384442106E+03  0.12508949283E+03 0.  0.
          5    1    3    3  502    0  0.47961805430E+02  0.70280611022E+02  0.26102974075E+03  0.27457912707E+03  0.41800000000E+01 0.  1.
         -5    1    3    3    0  502 -0.10114515137E+02 -0.19283431258E+02  0.42869227435E+03  0.42926529400E+03  0.41800000000E+01 0.  1.
        -11    1    1    2    0    0  0.29376193081E+02 -0.12850156875E+02  0.13786560813E+03  0.14154509230E+03  0.00000000000E+00 0.  1.
         11    1    1    2    0    0 -0.67223483374E+02 -0.38147022888E+02  0.40414187589E+03  0.41146670329E+03  0.00000000000E+00 0. -1.
</event>
<event>
 7    1  0.2855090E-009  0.1224679E+03  0.7561462E-02  0.1239080E+00
          1   -1    0    0  501    0  0.00000000000E+00  0.00000000000E+00  0.36935536504E+02  0.36935536504E+02  0.00000000000E+00 0. -1.
         -1   -1    0    0    0  501 -0.00000000000E+00 -0.00000000000E+00 -0.41472355563E+03  0.41472355563E+03  0.00000000000E+00 0.  1.
         25    2    1    2    0    0 -0.44781725697E+02  0.35556727238E+02 -0.19306759735E+03  0.23704991699E+03  0.12509149528E+03 0.  0.
          5    1    3    3  502    0  0.41564928781E+02 -0.41906901632E+01 -0.50905558137E+02  0.65985251669E+02  0.41800000000E+01 0.  1.
         -5    1    3    3    0  502 -0.86346654479E+02  0.39747417401E+02 -0.14216203921E+03  0.17106466532E+03  0.41800000000E+01 0.  1.
        -11    1    1    2    0    0  0.68115941281E+02 -0.35686119052E+01 -0.13302260907E+03  0.14949090598E+03  0.00000000000E+00 0.  1.
         11    1    1    2    0    0 -0.23334215584E+02 -0.31988115332E+02 -0.51697812708E+02  0.65118269159E+02  0.00000000000E+00 0. -1.
</event>
<event>
 7    1  0.2855090E-009  0.8987728E+02  0.7561462E-02  0.1303149E+00
          3   -1    0    0  501    0  0.00000000000E+00  0.00000000000E+00  0.59797519302E+02  0.59797519302E+02  0.00000000000E+00 0. -1.
         -3   -1    0    0    0  501 -0.00000000000E+00 -0.00000000000E+00 -0.25448748231E+03  0.25448748231E+03  0.00000000000E+00 0.  1.
         25    2    1    2    0    0 -0.15214997817E+02  0.61221017471E+01 -0.17967054196E+03  0.21954049109E+03  0.12509015665E+03 0.  0.
          5    1    3    3  502    0  0.43817639790E+02  0.38400509119E+02 -0.91443362388E+02  0.10850781346E+03  0.41800000000E+01 0. -1.
         -5    1    3    3    0  502 -0.59032637608E+02 -0.32278407372E+02 -0.88227179573E+02  0.11103267763E+03  0.41800000000E+01 0. -1.
        -11    1    1    2    0    0  0.33926039792E+02  0.92009333017E+00 -0.46429839155E+02  0.57511326812E+02  0.00000000000E+00 0.  1.
         11    1    1    2    0    0 -0.18711041974E+02 -0.70421950773E+01  0.31410418111E+02  0.37233183710E+02  0.00000000000E+00 0. -1.
</event>
<event>
 7    1  0.2855090E-009  0.9379825E+02  0.7561462E-02  0.1293906E+00
          1   -1    0    0  501    0  0.00000000000E+00  0.00000000000E+00  0.23843570019E+03  0.23843570019E+03  0.00000000000E+00 0. -1.
         -1   -1    0    0    0  501 -0.00000000000E+00 -0.00000000000E+00 -0.54237836223E+02  0.54237836223E+02  0.00000000000E+00 0.  1.
         25    2    1    2    0    0 -0.85807798638E-01  0.28016686433E+02  0.68823764984E+02  0.14549820235E+03  0.12509226266E+03 0.  0.
          5    1    3    3  502    0  0.46671458784E+02  0.32630202093E+02  0.78772094634E+02  0.97290649328E+02  0.41800000000E+01 0.  1.
         -5    1    3    3    0  502 -0.46757266583E+02 -0.46135156602E+01 -0.99483296502E+01  0.48207553017E+02  0.41800000000E+01 0.  1.
        -11    1    1    2    0    0  0.13783593831E+02  0.25011293803E+02  0.13667748908E+02  0.31660063753E+02  0.00000000000E+00 0.  1.
         11    1    1    2    0    0 -0.13697786033E+02 -0.53027980236E+02  0.10170635007E+03  0.11551527031E+03  0.00000000000E+00 0. -1.
</event>
<event>
 7    1  0.2855090E-009  0.1085620E+03  0.7561462E-02  0.1263256E+00
         -1   -1    0    0    0  501 -0.00000000000E+00  0.00000000000E+00  0.48271183932E+02  0.48271183932E+02  0.00000000000E+00 0.  1.
          1   -1    0    0  501    0  0.00000000000E+00 -0.00000000000E+00 -0.30739629735E+03  0.30739629735E+03  0.00000000000E+00 0. -1.
         25    2    1    2    0    0 -0.48668631385E+02 -0.93918433584E+01 -0.18147023487E+03  0.22591264564E+03  0.12509290513E+03 0.  0.
          5    1    3    3  502    0 -0.62542462990E+02 -0.48291592468E+02 -0.65443494113E+02  0.10268379084E+03  0.41800000000E+01 0. -1.
         -5    1    3    3    0  502  0.13873831605E+02  0.38899749109E+02 -0.11602674076E+03  0.12322885480E+03  0.41800000000E+01 0. -1.
        -11    1    1    2    0    0  0.18013911735E+02 -0.36843571463E+02 -0.99050122059E+01  0.42190745916E+02  0.00000000000E+00 0.  1.
         11    1    1    2    0    0  0.30654719649E+02  0.46235414821E+02 -0.67749866343E+02  0.87564089728E+02  0.00000000000E+00 0. -1.
</event>
<event>
 7    1  0.2855090E-009  0.9654248E+02  0.7561462E-02  0.1287739E+00
         -1   -1    0    0    0  501 -0.00000000000E+00  0.00000000000E+00  0.19104142259E+02  0.19104142259E+02  0.00000000000E+00 0.  1.
          1   -1    0    0  501    0  0.00000000000E+00 -0.00000000000E+00 -0.70081819784E+03  0.70081819784E+03  0.00000000000E+00 0. -1.
         25    2    1    2    0    0  0.78170116436E+01  0.35073034272E+02 -0.34547460170E+03  0.36917606297E+03  0.12508813551E+03 0.  0.
          5    1    3    3  502    0 -0.29124660669E+02 -0.16106925453E+02 -0.23279775715E+02  0.40830126916E+02  0.41800000000E+01 0. -1.
         -5    1    3    3    0  502  0.36941672313E+02  0.51179959725E+02 -0.32219482599E+03  0.32834593606E+03  0.41800000000E+01 0. -1.
        -11    1    1    2    0    0  0.23539038219E+02  0.21320489124E+02 -0.15865956192E+03  0.16180700283E+03  0.00000000000E+00 0. -1.
         11    1    1    2    0    0 -0.31356049862E+02 -0.56393523396E+02 -0.17757989195E+03  0.18893927429E+03  0.00000000000E+00 0.  1.
</event>
<event>
 7    1  0.2855090E-009  0.1043548E+03  0.7561462E-02  0.1271396E+00
         -1   -1    0    0    0  501 -0.00000000000E+00  0.00000000000E+00  0.36474814705E+03  0.36474814705E+03  0.00000000000E+00 0.  1.
          1   -1    0    0  501    0  0.00000000000E+00 -0.00000000000E+00 -0.36004473871E+02  0.36004473871E+02  0.00000000000E+00 0. -1.
         25    2    1    2    0    0  0.56083451910E+01  0.35764622055E+02  0.17370548168E+03  0.21709675712E+03  0.12508735292E+03 0.  0.
          5    1    3    3  502    0 -0.91780800549E+01  0.78212120681E+02  0.14027804203E+03  0.16092474778E+03  0.41800000000E+01 0. -1.
         -5    1    3    3    0  502  0.14786425246E+02 -0.42447498626E+02  0.33427439652E+02  0.56172009336E+02  0.41800000000E+01 0. -1.
        -11    1    1    2    0    0 -0.38780448785E+02 -0.33856300569E+02  0.43897791933E+02  0.67654921719E+02  0.00000000000E+00 0. -1.
         11    1    1    2    0    0  0.33172103594E+02 -0.19083214855E+01  0.11114039957E+03  0.11600094208E+03  0.00000000000E+00 0.  1.
</event>
<event>
 7    1  0.2855090E-009  0.1165226E+03  0.7561462E-02  0.1248946E+00
          2   -1    0    0  501    0  0.00000000000E+00  0.00000000000E+00  0.66746313528E+03  0.66746313528E+03  0.00000000000E+00 0. -1.
         -2   -1    0    0    0  501 -0.00000000000E+00 -0.00000000000E+00 -0.22706059382E+02  0.22706059382E+02  0.00000000000E+00 0.  1.
         25    2    1    2    0    0  0.21313891009E+02 -0.49769780730E+02  0.29885540424E+03  0.32846954217E+03  0.12508546864E+03 0.  0.
          5    1    3    3  502    0 -0.47277633105E+02 -0.39148827755E+01  0.15959159500E+03  0.16654564087E+03  0.41800000000E+01 0.  1.
         -5    1    3    3    0  502  0.68591524114E+02 -0.45854897954E+02  0.13926380924E+03  0.16192390130E+03  0.41800000000E+01 0.  1.
        -11    1    1    2    0    0 -0.30301925754E+02  0.72385714993E+02  0.29531890665E+03  0.30556694040E+03  0.00000000000E+00 0. -1.
         11    1    1    2    0    0  0.89880347456E+01 -0.22615934263E+02  0.50582765000E+02  0.56132712087E+02  0.00000000000E+00 0.  1.
</event>
<event>
 7    1  0.2855090E-009  0.2788692E+03  0.7561462E-02  0.1096308E+00
          1   -1    0    0  501    0  0.00000000000E+00  0.00000000000E+00  0.80186802763E+03  0.80186802763E+03  0.00000000000E+00 0. -1.
         -1   -1    0    0    0  501 -0.00000000000E+00 -0.00000000000E+00 -0.11502888004E+03  0.11502888004E+03  0.00000000000E+00 0.  1.
         25    2    1    2    0    0  0.26660430929E+03  0.21863863500E+02  0.49198947481E+03  0.57380926904E+03  0.12509015810E+03 0.  0.
          5    1    3    3  502    0  0.26371924370E+03  0.46593038676E+01  0.39376253597E+03  0.47395775734E+03  0.41800000000E+01 0.  1.
         -5    1    3    3    0  502  0.28850655978E+01  0.17204559633E+02  0.98226938837E+02  0.99851511700E+02  0.41800000000E+01 0.  1.
        -11    1    1    2    0    0 -0.86487808485E+02 -0.39397274655E+02  0.10299139969E+03  0.14014105279E+03  0.00000000000E+00 0.  1.
         11    1    1    2    0    0 -0.18011650081E+03  0.17533411155E+02  0.91858273084E+02  0.20294658584E+03  0.00000000000E+00 0. -1.
</event>
<event>
 7    1  0.2855090E-009  0.1110868E+03  0.7561462E-02  0.1258570E+00
          3   -1    0    0  501    0  0.00000000000E+00  0.00000000000E+00  0.16158429342E+03  0.16158429342E+03  0.00000000000E+00 0. -1.
         -3   -1    0    0    0  501 -0.00000000000E+00 -0.00000000000E+00 -0.12683654240E+03  0.12683654240E+03  0.00000000000E+00 0.  1.
         25    2    1    2    0    0  0.88307319592E+02  0.59240210672E+01 -0.20776477716E+02  0.15466717342E+03  0.12512791770E+03 0.  0.
          5    1    3    3  502    0  0.17052858101E+01 -0.16181095415E+02 -0.56031620840E+02  0.58495733028E+02  0.41800000000E+01 0. -1.
         -5    1    3    3    0  502  0.86602033782E+02  0.22105116482E+02  0.35255143125E+02  0.96171440390E+02  0.41800000000E+01 0. -1.
        -11    1    1    2    0    0 -0.35425598449E+02  0.34412856270E+02  0.44216340897E+02  0.66289535406E+02  0.00000000000E+00 0. -1.
         11    1    1    2    0    0 -0.52881721143E+02 -0.40336877337E+02  0.11307887837E+02  0.67464126999E+02  0.00000000000E+00 0.  1.
</event>
<event>
 7    1  0.2855090E-009  0.1207141E+03  0.7561462E-02  0.1241924E+00
         -2   -1    0    0    0  501 -0.00000000000E+00  0.00000000000E+00  0.13136472690E+03  0.13136472690E+03  0.00000000000E+00 0.  1.
          2   -1    0    0  501    0  0.00000000000E+00 -0.00000000000E+00 -0.17515882317E+03  0.17515882317E+03  0.00000000000E+00 0. -1.
         25    2    1    2    0    0  0.42170776966E+02 -0.75251268548E+02 -0.86184176782E+02  0.17465260845E+03  0.12503876784E+03 0.  0.
          5    1    3    3  502    0 -0.42326019218E+02 -0.26803384682E+02 -0.49317238883E+02  0.70424255654E+02  0.41800000000E+01 0.  1.
         -5    1    3    3    0  502  0.84496796185E+02 -0.48447883866E+02 -0.36866937899E+02  0.10422835280E+03  0.41800000000E+01 0.  1.
        -11    1    1    2    0    0 -0.10781986446E+02 -0.13648471324E+01 -0.23607560668E+02  0.25989054622E+02  0.00000000000E+00 0. -1.
         11    1    1    2    0    0 -0.31388790521E+02  0.76616115680E+02  0.65997641180E+02  0.10588188699E+03  0.00000000000E+00 0.  1.
</event>
<event>
 7    1  0.2855090E-009  0.1259519E+03  0.7561462E-02  0.1233589E+00
          1   -1    0    0  501    0  0.00000000000E+00  0.00000000000E+00  0.59934120392E+03  0.59934120392E+03  0.00000000000E+00 0. -1.
         -1   -1    0    0    0  501 -0.00000000000E+00 -0.00000000000E+00 -0.42198625437E+02  0.42198625437E+02  0.00000000000E+00 0.  1.
         25    2    1    2    0    0  0.33231459017E+02  0.90718007721E+02  0.17067421538E+03  0.23262896930E+03  0.12510980286E+03 0.  0.
          5    1    3    3  502    0  0.44501611508E+02  0.11160817791E+02  0.24285218658E+01  0.46133798879E+02  0.41800000000E+01 0.  1.
         -5    1    3    3    0  502 -0.11270152491E+02  0.79557189930E+02  0.16824569351E+03  0.18649517042E+03  0.41800000000E+01 0.  1.
        -11    1    1    2    0    0  0.25381589333E+02 -0.42382482782E+02  0.87928996039E+02  0.10085637445E+03  0.00000000000E+00 0.  1.
         11    1    1    2    0    0 -0.58613048350E+02 -0.48335524940E+02  0.29853936706E+03  0.30805448559E+03  0.00000000000E+00 0. -1.
</event>
<event>
 7    1  0.2855090E-009  0.1324216E+03  0.7561462E-02  0.1223906E+00
         -1   -1    0    0    0  501 -0.00000000000E+00  0.00000000000E+00  0.84584571250E+02  0.84584571250E+02  0.00000000000E+00 0.  1.
          1   -1    0    0  501    0  0.00000000000E+00 -0.00000000000E+00 -0.32717233714E+03  0.32717233714E+03  0.00000000000E+00 0. -1.
         25    2    1    2    0    0 -0.57131819852E+02 -0.55100069517E+02 -0.25043535110E+03  0.29097658378E+03  0.12509774071E+03 0.  0.
          5    1    3    3  502    0 -0.92345189005E+02 -0.60625098017E+02 -0.20667210738E+03  0.23437975341E+03  0.41800000000E+01 0. -1.
         -5    1    3    3    0  502  0.35213369153E+02  0.55250284997E+01 -0.43763243722E+02  0.56596830371E+02  0.41800000000E+01 0. -1.
        -11    1    1    2    0    0  0.39887899505E+02  0.79256916022E+02  0.15635881922E+02  0.90095416464E+02  0.00000000000E+00 0.  1.
         11    1    1    2    0    0  0.17243920348E+02 -0.24156846505E+02 -0.77882967141E+01  0.30684908143E+02  0.00000000000E+00 0. -1.
</event>
<event>
 7    1  0.3018471E-009  0.1054144E+03  0.7561462E-02  0.1269305E+00
          1   -1    0    0  501    0  0.00000000000E+00  0.00000000000E+00  0.79861452231E+02  0.79861452231E+02  0.00000000000E+00 0. -1.
         -1   -1    0    0    0  501 -0.00000000000E+00 -0.00000000000E+00 -0.25741358976E+03  0.25741358976E+03  0.00000000000E+00 0.  1.
         25    2    1    2    0    0  0.77049085739E+02  0.34743608451E+02 -0.14248978639E+03  0.20759026083E+03  0.12508675879E+03 0.  0.
          5    1    3    3  502    0  0.98766026697E+02  0.30208625255E+02 -0.15139868037E+03  0.18332027135E+03  0.41800000000E+01 0. -1.
         -5    1    3    3    0  502 -0.21716940958E+02  0.45349831962E+01  0.89088939863E+01  0.24269989477E+02  0.41800000000E+01 0. -1.
        -11    1    1    2    0    0 -0.43715824937E+02 -0.15414347043E+02 -0.65735122372E+02  0.80434953583E+02  0.00000000000E+00 0.  1.
         11    1    1    2    0    0 -0.33333260802E+02 -0.19329261408E+02  0.30672771227E+02  0.49249827584E+02  0.00000000000E+00 0. -1.
</event>
<event>
 7    1  0.2855090E-009  0.1299827E+03  0.7561462E-02  0.1227481E+00
         -2   -1    0    0    0  501 -0.00000000000E+00  0.00000000000E+00  0.15151361868E+02  0.15151361868E+02  0.00000000000E+00 0.  1.
          2   -1    0    0  501    0  0.00000000000E+00 -0.00000000000E+00 -0.16682135296E+04  0.16682135296E+04  0.00000000000E+00 0. -1.
         25    2    1    2    0    0  0.38683675778E+02 -0.93041864642E+02 -0.12039333013E+04  0.12146010916E+04  0.12508877739E+03 0.  0.
          5    1    3    3  502    0  0.60489875565E+02 -0.35510789062E+02 -0.97433659151E+03  0.97686708775E+03  0.41800000000E+01 0.  1.
         -5    1    3    3    0  502 -0.21806199787E+02 -0.57531075580E+02 -0.22959670984E+03  0.23773400382E+03  0.41800000000E+01 0.  1.
        -11    1    1    2    0    0 -0.60018877707E+02  0.43604306071E+02 -0.32670474118E+03  0.33502177406E+03  0.00000000000E+00 0. -1.
         11    1    1    2    0    0  0.21335201930E+02  0.49437558570E+02 -0.12242412521E+03  0.13374202583E+03  0.00000000000E+00 0.  1.
</event>
<event>
 7    1  0.2855090E-009  0.1040245E+03  0.7561462E-02  0.1272054E+00
         -2   -1    0    0    0  501 -0.00000000000E+00  0.00000000000E+00  0.51088438922E+02  0.51088438922E+02  0.00000000000E+00 0.  1.
          2   -1    0    0  501    0  0.00000000000E+00 -0.00000000000E+00 -0.44705521565E+03  0.44705521565E+03  0.00000000000E+00 0. -1.
         25    2    1    2    0    0  0.78132839420E+02 -0.57016015443E+02 -0.28068945523E+03  0.32216370566E+03  0.12508923357E+03 0.  0.
          5    1    3    3  502    0  0.54550080527E+02 -0.65946052832E+02 -0.72014970090E+02  0.11192953804E+03  0.41800000000E+01 0.  1.
         -5    1    3    3    0  502  0.23582758894E+02  0.89300373893E+01 -0.20867448514E+03  0.21023416762E+03  0.41800000000E+01 0.  1.
        -11    1    1    2    0    0 -0.13373410978E+02  0.79927554049E+01  0.15535873146E+02  0.22002172951E+02  0.00000000000E+00 0.  1.
         11    1    1    2    0    0 -0.64759428442E+02  0.49023260038E+02 -0.13081319464E+03  0.15397777596E+03  0.00000000000E+00 0. -1.
</event>
<event>
 7    1  0.2855090E-009  0.9602997E+02  0.7561462E-02  0.1288873E+00
         -3   -1    0    0    0  501 -0.00000000000E+00  0.00000000000E+00  0.69727938784E+02  0.69727938784E+02  0.00000000000E+00 0.  1.
          3   -1    0    0  501    0  0.00000000000E+00 -0.00000000000E+00 -0.18753879396E+03  0.18753879396E+03  0.00000000000E+00 0. -1.
         25    2    1    2    0    0  0.32429601845E+01  0.19339869322E+01 -0.22823852836E+02  0.12721051152E+03  0.12508928366E+03 0.  0.
          5    1    3    3  502    0  0.12104539211E+02 -0.51854982361E+02 -0.43370085894E+02  0.68803312534E+02  0.41800000000E+01 0.  1.
         -5    1    3    3    0  502 -0.88615790268E+01  0.53788969293E+02  0.20546233058E+02  0.58407198985E+02  0.41800000000E+01 0.  1.
        -11    1    1    2    0    0  0.27580833944E+02 -0.31078736239E+02 -0.25832724662E+02  0.48927700852E+02  0.00000000000E+00 0.  1.
         11    1    1    2    0    0 -0.30823794128E+02  0.29144749307E+02 -0.69154277675E+02  0.81128520370E+02  0.00000000000E+00 0. -1.
</event>
<event>
 7    1  0.2855090E-009  0.3056033E+03  0.7561462E-02  0.1082473E+00
         -1   -1    0    0    0  501 -0.00000000000E+00  0.00000000000E+00  0.65993245197E+02  0.65993245197E+02  0.00000000000E+00 0.  1.
          1   -1    0    0  501    0  0.00000000000E+00 -0.00000000000E+00 -0.15164812843E+04  0.15164812843E+04  0.00000000000E+00 0. -1.
         25    2    1    2    0    0  0.24180426925E+03 -0.17026298297E+03 -0.67727333360E+03  0.74953644017E+03  0.12508764422E+03 0.  0.
          5    1    3    3  502    0  0.24278717488E+03 -0.13321628792E+03 -0.63721855478E+03  0.69480727587E+03  0.41800000000E+01 0. -1.
         -5    1    3    3    0  502 -0.98290563781E+00 -0.37046695051E+02 -0.40054778826E+02  0.54729164296E+02  0.41800000000E+01 0. -1.
        -11    1    1    2    0    0 -0.14971992616E+03  0.89282898695E+02 -0.33177555124E+03  0.37478328230E+03  0.00000000000E+00 0.  1.
         11    1    1    2    0    0 -0.92084343082E+02  0.80980084272E+02 -0.44143915421E+03  0.45815480698E+03  0.00000000000E+00 0. -1.
</event>
<event>
 7    1  0.2855090E-009  0.1087802E+03  0.7561462E-02  0.1262846E+00
         -1   -1    0    0    0  501 -0.00000000000E+00  0.00000000000E+00  0.30950966789E+03  0.30950966789E+03  0.00000000000E+00 0.  1.
          1   -1    0    0  501    0  0.00000000000E+00 -0.00000000000E+00 -0.67895871241E+02  0.67895871241E+02  0.00000000000E+00 0. -1.
         25    2    1    2    0    0  0.10574289789E+02  0.65032339600E+02  0.42524635017E+02  0.14764001484E+03  0.12509279996E+03 0.  0.
          5    1    3    3  502    0  0.21391694761E+01 -0.18769027751E+02 -0.30479271971E+02  0.36101397046E+02  0.41800000000E+01 0. -1.
         -5    1    3    3    0  502  0.84351203134E+01  0.83801367351E+02  0.73003906988E+02  0.11153861780E+03  0.41800000000E+01 0. -1.
        -11    1    1    2    0    0 -0.50209944059E+02 -0.20407215014E+02  0.10846255590E+03  0.12125023274E+03  0.00000000000E+00 0.  1.
         11    1    1    2    0    0  0.39635654269E+02 -0.44625124585E+02  0.90626605734E+02  0.10851529155E+03  0.00000000000E+00 0. -1.
</event>
<event>
 7    1  0.2855090E-009  0.7803946E+02  0.7561462E-02  0.1334709E+00
          2   -1    0    0  501    0  0.00000000000E+00  0.00000000000E+00  0.13627115913E+04  0.13627115913E+04  0.00000000000E+00 0.  1.
         -2   -1    0    0    0  501 -0.00000000000E+00 -0.00000000000E+00 -0.13550900011E+02  0.13550900011E+02  0.00000000000E+00 0. -1.
         25    2    1    2    0    0 -0.32625515071E+02 -0.48931714900E+02  0.10385003781E+04  0.10476588264E+04  0.12508894548E+03 0.  0.
          5    1    3    3  502    0 -0.21986010443E+02 -0.59537766464E+02  0.22000325197E+03  0.22901317335E+03  0.41800000000E+01 0. -1.
         -5    1    3    3    0  502 -0.10639504628E+02  0.10606051564E+02  0.81849712614E+03  0.81864565307E+03  0.41800000000E+01 0. -1.
        -11    1    1    2    0    0 -0.10147645740E+02  0.26933620893E+02  0.22706253216E+02  0.36660177080E+02  0.00000000000E+00 0. -1.
         11    1    1    2    0    0  0.42773160811E+02  0.21998094007E+02  0.28795405992E+03  0.29194348776E+03  0.00000000000E+00 0.  1.
</event>
<event>
 7    1  0.2855090E-009  0.7814681E+02  0.7561462E-02  0.1334394E+00
          1   -1    0    0  501    0  0.00000000000E+00  0.00000000000E+00  0.77148199510E+02  0.77148199510E+02  0.00000000000E+00 0. -1.
         -1   -1    0    0    0  501 -0.00000000000E+00 -0.00000000000E+00 -0.20610341455E+03  0.20610341455E+03  0.00000000000E+00 0.  1.
         25    2    1    2    0    0  0.56234661032E+02 -0.13098138689E+02 -0.10522884303E+03  0.17334650894E+03  0.12506799918E+03 0.  0.
          5    1    3    3  502    0  0.43462409134E+02 -0.19109211740E+01  0.19170428210E+02  0.47724316079E+02  0.41800000000E+01 0. -1.
         -5    1    3    3    0  502  0.12772251898E+02 -0.11187217515E+02 -0.12439927124E+03  0.12562219287E+03  0.41800000000E+01 0. -1.
        -11    1    1    2    0    0 -0.69974763007E+01  0.38893459526E+02 -0.35460128284E+02  0.53095071018E+02  0.00000000000E+00 0.  1.
         11    1    1    2    0    0 -0.49237184731E+02 -0.25795320837E+02  0.11733756281E+02  0.56810034095E+02  0.00000000000E+00 0. -1.
</event>
<event>
 7    1  0.2855090E-009  0.1403478E+03  0.7561462E-02  0.1212862E+00
         -2   -1    0    0    0  501 -0.00000000000E+00  0.00000000000E+00  0.10556717234E+03  0.10556717234E+03  0.00000000000E+00 0. -1.
          2   -1    0    0  501    0  0.00000000000E+00 -0.00000000000E+00 -0.27598780894E+03  0.27598780894E+03  0.00000000000E+00 0.  1.
         25    2    1    2    0    0  0.97726242411E+02 -0.60069370603E+02 -0.18703323614E+02  0.17075153975E+03  0.12509007263E+03 0.  0.
          5    1    3    3  502    0  0.11954630576E+03 -0.63618531078E+02  0.81370334528E+01  0.13572884893E+03  0.41800000000E+01 0.  1.
         -5    1    3    3    0  502 -0.21820063351E+02  0.35491604755E+01 -0.26840357067E+02  0.35022690819E+02  0.41800000000E+01 0.  1.
        -11    1    1    2    0    0 -0.93803717202E+02  0.39514764727E+02 -0.15887770564E+03  0.18868672275E+03  0.00000000000E+00 0.  1.
         11    1    1    2    0    0 -0.39225252095E+01  0.20554605875E+02  0.71603926565E+01  0.22116718783E+02  0.00000000000E+00 0. -1.
</event>
<event>
 7    1  0.2855090E-009  0.1178000E+03  0.7561462E-02  0.1246771E+00
         -1   -1    0    0    0  501 -0.00000000000E+00  0.00000000000E+00  0.33000638167E+02  0.33000638167E+02  0.00000000000E+00 0.  1.
          1   -1    0    0  501    0  0.00000000000E+00 -0.00000000000E+00 -0.50456886481E+03  0.50456886481E+03  0.00000000000E+00 0. -1.
         25    2    1    2    0    0  0.53880459605E+02  0.34090120940E+02 -0.31933751259E+03  0.34883989741E+03  0.12509031458E+03 0.  0.
          5    1    3    3  502    0 -0.24746884665E+02  0.37668085922E+02 -0.46692604782E+02  0.65030490841E+02  0.41800000000E+01 0. -1.
         -5    1    3    3    0  502  0.78627344270E+02 -0.35779649816E+01 -0.27264490781E+03  0.28380940657E+03  0.41800000000E+01 0. -1.
        -11    1    1    2    0    0  0.26137571354E+02 -0.73945180514E+01 -0.34975981578E+02  0.44285108342E+02  0.00000000000E+00 0.  1.
         11    1    1    2    0    0 -0.80018030959E+02 -0.26695602889E+02 -0.11725473247E+03  0.14444449723E+03  0.00000000000E+00 0. -1.
</event>
<event>
 7    1  0.2855090E-009  0.9829229E+02  0.7561462E-02  0.1283929E+00
         -4   -1    0    0    0  501 -0.00000000000E+00  0.00000000000E+00  0.29882879993E+02  0.29882879993E+02  0.00000000000E+00 0.  1.
          4   -1    0    0  501    0  0.00000000000E+00 -0.00000000000E+00 -0.43124343384E+03  0.43124343384E+03  0.00000000000E+00 0. -1.
         25    2    1    2    0    0  0.78314672417E+01 -0.29182263924E+02 -0.21732446854E+03  0.25256714354E+03  0.12508917203E+03 0.  0.
          5    1    3    3  502    0 -0.23341473710E+02 -0.69188823855E+02 -0.15992999784E+03  0.17586072430E+03  0.41800000000E+01 0. -1.
         -5    1    3    3    0  502  0.31172940952E+02  0.40006559931E+02 -0.57394470700E+02  0.76706419236E+02  0.41800000000E+01 0. -1.
        -11    1    1    2    0    0 -0.15879192814E+02  0.48817419660E+02 -0.17971524791E+03  0.18690334283E+03  0.00000000000E+00 0.  1.
         11    1    1    2    0    0  0.80477255723E+01 -0.19635155736E+02 -0.43208373892E+01  0.21655827470E+02  0.00000000000E+00 0. -1.
</event>
<event>
 7    1  0.2855090E-009  0.1448442E+03  0.7561462E-02  0.1206955E+00
         -1   -1    0    0    0  501 -0.00000000000E+00  0.00000000000E+00  0.69990351823E+02  0.69990351823E+02  0.00000000000E+00 0.  1.
          1   -1    0    0  501    0  0.00000000000E+00 -0.00000000000E+00 -0.31165389486E+03  0.31165389486E+03  0.00000000000E+00 0. -1.
         25    2    1    2    0    0 -0.11207734459E+03 -0.32315015025E+02 -0.12529892685E+03  0.21202211700E+03  0.12509182892E+03 0.  0.
          5    1    3    3  502    0 -0.13961473027E+03 -0.26732176509E+02 -0.98707620094E+02  0.17311137696E+03  0.41800000000E+01 0. -1.
         -5    1    3    3    0  502  0.27537385675E+02 -0.55828385166E+01 -0.26591306754E+02  0.38910740041E+02  0.41800000000E+01 0. -1.
        -11    1    1    2    0    0  0.76806440090E+02  0.10306218684E+02 -0.53181216666E+02  0.93987707648E+02  0.00000000000E+00 0.  1.
         11    1    1    2    0    0  0.35270904504E+02  0.22008796341E+02 -0.63183399523E+02  0.75634422033E+02  0.00000000000E+00 0. -1.
</event>
<event>
 7    1  0.2855090E-009  0.2114122E+03  0.7561462E-02  0.1140453E+00
         -2   -1    0    0    0  501 -0.00000000000E+00  0.00000000000E+00  0.81562939610E+02  0.81562939610E+02  0.00000000000E+00 0.  1.
          2   -1    0    0  501    0  0.00000000000E+00 -0.00000000000E+00 -0.57912423642E+03  0.57912423642E+03  0.00000000000E+00 0. -1.
         25    2    1    2    0    0  0.17072592546E+03  0.77835469951E+02 -0.24040847242E+03  0.32961875208E+03  0.12508631463E+03 0.  0.
          5    1    3    3  502    0 -0.45702422459E+01  0.45068088439E+02 -0.65868105983E+02  0.80050605841E+02  0.41800000000E+01 0. -1.
         -5    1    3    3    0  502  0.17529616771E+03  0.32767381512E+02 -0.17454036644E+03  0.24956814624E+03  0.41800000000E+01 0. -1.
        -11    1    1    2    0    0 -0.87742531332E+01 -0.28246401321E+02 -0.95574754689E+01  0.31083629823E+02  0.00000000000E+00 0.  1.
         11    1    1    2    0    0 -0.16195167233E+03 -0.49589068630E+02 -0.24759534892E+03  0.29998479412E+03  0.00000000000E+00 0. -1.
</event>
<event>
 7    1  0.2855090E-009  0.1711300E+03  0.7561462E-02  0.1176675E+00
          1   -1    0    0  501    0  0.00000000000E+00  0.00000000000E+00  0.81505308145E+03  0.81505308145E+03  0.00000000000E+00 0. -1.
         -1   -1    0    0    0  501 -0.00000000000E+00 -0.00000000000E+00 -0.40649421506E+02  0.40649421506E+02  0.00000000000E+00 0.  1.
         25    2    1    2    0    0 -0.13437612355E+03  0.53337289094E+02  0.36469460354E+03  0.41176596160E+03  0.12508894555E+03 0.  0.
          5    1    3    3  502    0 -0.65916232377E+01  0.62504028075E+02  0.12188798893E+03  0.13720188507E+03  0.41800000000E+01 0. -1.
         -5    1    3    3    0  502 -0.12778450031E+03 -0.91667389817E+01  0.24280661461E+03  0.27456407653E+03  0.41800000000E+01 0. -1.
        -11    1    1    2    0    0  0.40848523204E+02  0.45434182417E+01  0.36877627343E+02  0.55219597026E+02  0.00000000000E+00 0.  1.
         11    1    1    2    0    0  0.93527600347E+02 -0.57880707335E+02  0.37283142907E+03  0.38871694433E+03  0.00000000000E+00 0. -1.
</event>
<event>
 7    1  0.2855090E-009  0.1721582E+03  0.7561462E-02  0.1175616E+00
          1   -1    0    0  501    0  0.00000000000E+00  0.00000000000E+00  0.18327944728E+03  0.18327944728E+03  0.00000000000E+00 0. -1.
         -1   -1    0    0    0  501 -0.00000000000E+00 -0.00000000000E+00 -0.27731728924E+03  0.27731728924E+03  0.00000000000E+00 0.  1.
         25    2    1    2    0    0 -0.59229278157E+02  0.12274787196E+03  0.97142119582E+02  0.20894724780E+03  0.12508882245E+03 0.  0.
          5    1    3    3  502    0  0.11031092724E+02  0.11214505100E+03  0.70260151659E+02  0.13286142699E+03  0.41800000000E+01 0. -1.
         -5    1    3    3    0  502 -0.70260370881E+02  0.10602820964E+02  0.26881967923E+02  0.76085820809E+02  0.41800000000E+01 0. -1.
        -11    1    1    2    0    0  0.48891291443E+02 -0.13613719938E+02 -0.85220763032E+02  0.99188054730E+02  0.00000000000E+00 0. -1.
         11    1    1    2    0    0  0.10337986714E+02 -0.10913415203E+03 -0.10595919851E+03  0.15246143400E+03  0.00000000000E+00 0.  1.
</event>
<event>
 7    1  0.2855090E-009  0.1105320E+03  0.7561462E-02  0.1259588E+00
         -1   -1    0    0    0  501 -0.00000000000E+00  0.00000000000E+00  0.10134884503E+03  0.10134884503E+03  0.00000000000E+00 0.  1.
          1   -1    0    0  501    0  0.00000000000E+00 -0.00000000000E+00 -0.17089753928E+03  0.17089753928E+03  0.00000000000E+00 0. -1.
         25    2    1    2    0    0  0.39058377245E+02  0.38595226593E+02 -0.96974883162E+02  0.16752753582E+03  0.12508476704E+03 0.  0.
          5    1    3    3  502    0 -0.43016931436E+02  0.13011437291E+01 -0.15471419255E+02  0.45923703890E+02  0.41800000000E+01 0. -1.
         -5    1    3    3    0  502  0.82075308681E+02  0.37294082864E+02 -0.81503463907E+02  0.12160383193E+03  0.41800000000E+01 0. -1.
        -11    1    1    2    0    0 -0.12628609422E+02 -0.55025739153E+02  0.41989411619E+02  0.70359252649E+02  0.00000000000E+00 0.  1.
         11    1    1    2    0    0 -0.26429767823E+02  0.16430512560E+02 -0.14563222705E+02  0.34359595832E+02  0.00000000000E+00 0. -1.
</event>
<event>
 7    1  0.2855090E-009  0.1775090E+03  0.7561462E-02  0.1170236E+00
          2   -1    0    0  501    0  0.00000000000E+00  0.00000000000E+00  0.71540273559E+03  0.71540273559E+03  0.00000000000E+00 0.  1.
         -2   -1    0    0    0  501 -0.00000000000E+00 -0.00000000000E+00 -0.50746470313E+02  0.50746470313E+02  0.00000000000E+00 0. -1.
         25    2    1    2    0    0 -0.12100123467E+03  0.84095324941E+02  0.25310128828E+03  0.31846717002E+03  0.12509098203E+03 0.  0.
          5    1    3    3  502    0 -0.81606296995E+02  0.11003824332E+03  0.22483510186E+03  0.26331786520E+03  0.41800000000E+01 0.  1.
         -5    1    3    3    0  502 -0.39394937676E+02 -0.25942918377E+02  0.28266186414E+02  0.55149304826E+02  0.41800000000E+01 0.  1.
        -11    1    1    2    0    0  0.25428430843E+02  0.17693373063E+02  0.38895025916E+02  0.49724074516E+02  0.00000000000E+00 0. -1.
         11    1    1    2    0    0  0.95572803828E+02 -0.10178869800E+03  0.37265995109E+03  0.39795796137E+03  0.00000000000E+00 0.  1.
</event>
<event>
 7    1  0.2855090E-009  0.2196622E+03  0.7561462E-02  0.1134135E+00
          2   -1    0    0  501    0  0.00000000000E+00  0.00000000000E+00  0.29360435106E+03  0.29360435106E+03  0.00000000000E+00 0.  1.
         -2   -1    0    0    0  501 -0.00000000000E+00 -0.00000000000E+00 -0.25693172012E+03  0.25693172012E+03  0.00000000000E+00 0. -1.
         25    2    1    2    0    0  0.14325629862E+03 -0.14687995169E+03 -0.12798824386E+03  0.27225881712E+03  0.12509110931E+03 0.  0.
          5    1    3    3  502    0 -0.17234398175E+02 -0.30072021907E+02  0.19677085049E+01  0.34967059625E+02  0.41800000000E+01 0.  1.
         -5    1    3    3    0  502  0.16049069680E+03 -0.11680792978E+03 -0.12995595237E+03  0.23729175749E+03  0.41800000000E+01 0.  1.
        -11    1    1    2    0    0 -0.28912821175E+02  0.20511297007E+02  0.81022677797E+02  0.88438333604E+02  0.00000000000E+00 0.  1.
         11    1    1    2    0    0 -0.11434347745E+03  0.12636865468E+03  0.83638197012E+02  0.18983892046E+03  0.00000000000E+00 0. -1.
</event>
<event>
 7    1  0.2855090E-009  0.1240957E+03  0.7561462E-02  0.1236489E+00
          2   -1    0    0  501    0  0.00000000000E+00  0.00000000000E+00  0.14184742352E+03  0.14184742352E+03  0.00000000000E+00 0. -1.
         -2   -1    0    0    0  501 -0.00000000000E+00 -0.00000000000E+00 -0.13671754675E+03  0.13671754675E+03  0.00000000000E+00 0.  1.
         25    2    1    2    0    0 -0.85072346941E+02  0.18617506051E+02  0.32243306881E+01  0.15245242439E+03  0.12508968641E+03 0.  0.
          5    1    3    3  502    0 -0.57836386816E+02  0.67082573025E+02 -0.21848349412E+02  0.91323282987E+02  0.41800000000E+01 0. -1.
         -5    1    3    3    0  502 -0.27235960125E+02 -0.48465066974E+02  0.25072680101E+02  0.61129141399E+02  0.41800000000E+01 0. -1.
        -11    1    1    2    0    0 -0.43467893464E+01 -0.13524133140E+02  0.29208174814E+02  0.32479443203E+02  0.00000000000E+00 0. -1.
         11    1    1    2    0    0  0.89419136287E+02 -0.50933729110E+01 -0.27302628728E+02  0.93633102680E+02  0.00000000000E+00 0.  1.
</event>
<event>
 7    1  0.2855090E-009  0.1395011E+03  0.7561462E-02  0.1214002E+00
          1   -1    0    0  501    0  0.00000000000E+00  0.00000000000E+00  0.58351848306E+03  0.58351848306E+03  0.00000000000E+00 0. -1.
         -1   -1    0    0    0  501 -0.00000000000E+00 -0.00000000000E+00 -0.49202569628E+02  0.49202569628E+02  0.00000000000E+00 0.  1.
         25    2    1    2    0    0  0.93541356840E+02 -0.53442370444E+02  0.42009285612E+03  0.45136481494E+03  0.12508443551E+03 0.  0.
          5    1    3    3  502    0  0.29514712512E+02 -0.77886215234E+02  0.31482894739E+03  0.32568714941E+03  0.41800000000E+01 0. -1.
         -5    1    3    3    0  502  0.64026644328E+02  0.24443844790E+02  0.10526390873E+03  0.12567766553E+03  0.41800000000E+01 0. -1.
        -11    1    1    2    0    0 -0.87838194446E+02  0.68146683928E+02  0.63049683923E+02  0.12780759593E+03  0.00000000000E+00 0.  1.
         11    1    1    2    0    0 -0.57031623938E+01 -0.14704313485E+02  0.51173373392E+02  0.53548641819E+02  0.00000000000E+00 0. -1.
</event>
<event>
 7    1  0.2855090E-009  0.9828171E+02  0.7561462E-02  0.1283951E+00
          3   -1    0    0  501    0  0.00000000000E+00  0.00000000000E+00  0.10057142624E+03  0.10057142624E+03  0.00000000000E+00 0. -1.
         -3   -1    0    0    0  501 -0.00000000000E+00 -0.00000000000E+00 -0.17352271363E+03  0.17352271363E+03  0.00000000000E+00 0.  1.
         25    2    1    2    0    0 -0.74216099628E+02 -0.28939930420E+02 -0.49464009383E+02  0.15633344495E+03  0.12509160152E+03 0.  0.
          5    1    3    3  502    0 -0.92147667393E+02 -0.14940936242E+02 -0.76491884355E+02  0.12075969921E+03  0.41800000000E+01 0.  1.
         -5    1    3    3    0  502  0.17931567765E+02 -0.13998994178E+02  0.27027874972E+02  0.35573745741E+02  0.41800000000E+01 0.  1.
        -11    1    1    2    0    0  0.53468175639E+02  0.17290401837E+02 -0.54761092739E+02  0.78463883920E+02  0.00000000000E+00 0.  1.
         11    1    1    2    0    0  0.20747923989E+02  0.11649528583E+02  0.31273814739E+02  0.39296810995E+02  0.00000000000E+00 0. -1.
</event>
<event>
 7    1  0.2855090E-009  0.1320281E+03  0.7561462E-02  0.1224477E+00
          2   -1    0    0  501    0  0.00000000000E+00  0.00000000000E+00  0.55370096027E+03  0.55370096027E+03  0.00000000000E+00 0. -1.
         -2   -1    0    0    0  501 -0.00000000000E+00 -0.00000000000E+00 -0.43637488971E+02  0.43637488971E+02  0.00000000000E+00 0.  1.
         25    2    1    2    0    0  0.31784669372E+02 -0.10476679490E+03  0.29574670043E+03  0.33926439073E+03  0.12509144448E+03 0.  0.
          5    1    3    3  502    0 -0.18467035344E+02 -0.88003937170E+02  0.26020387944E+03  0.27533480642E+03  0.41800000000E+01 0.  1.
         -5    1    3    3    0  502  0.50251704715E+02 -0.16762857726E+02  0.35542820992E+02  0.63929584310E+02  0.41800000000E+01 0.  1.
        -11    1    1    2    0    0  0.13528368001E+02  0.36848682732E+02  0.13861671443E+02  0.41629173605E+02  0.00000000000E+00 0.  1.
         11    1    1    2    0    0 -0.45313037373E+02  0.67918112164E+02  0.20045509942E+03  0.21644488490E+03  0.00000000000E+00 0. -1.
</event>
<event>
 7    1  0.2855090E-009  0.1022594E+03  0.7561462E-02  0.1275615E+00
         -1   -1    0    0    0  501 -0.00000000000E+00  0.00000000000E+00  0.44641345389E+02  0.44641345389E+02  0.00000000000E+00 0.  1.
          1   -1    0    0  501    0  0.00000000000E+00 -0.00000000000E+00 -0.29394675983E+03  0.29394675983E+03  0.00000000000E+00 0. -1.
         25    2    1    2    0    0 -0.75922478904E+01  0.87843077683E+01 -0.87001969006E+02  0.15281876980E+03  0.12509767185E+03 0.  0.
          5    1    3    3  502    0 -0.64644225381E+02  0.49751532664E+01 -0.63528485006E+02  0.90867864684E+02  0.41800000000E+01 0.  1.
         -5    1    3    3    0  502  0.57051977490E+02  0.38091545019E+01 -0.23473484000E+02  0.61950905116E+02  0.41800000000E+01 0.  1.
        -11    1    1    2    0    0  0.32323718940E+02 -0.33989329494E+02 -0.52373324146E+02  0.70306915788E+02  0.00000000000E+00 0.  1.
         11    1    1    2    0    0 -0.24731471049E+02  0.25205021726E+02 -0.10993012129E+03  0.11546241963E+03  0.00000000000E+00 0. -1.
</event>
<event>
 7    1  0.2855090E-009  0.1062672E+03  0.7561462E-02  0.1267643E+00
         -3   -1    0    0    0  501 -0.00000000000E+00  0.00000000000E+00  0.40449593242E+02  0.40449593242E+02  0.00000000000E+00 0.  1.
          3   -1    0    0  501    0  0.00000000000E+00 -0.00000000000E+00 -0.55257878220E+03  0.55257878220E+03  0.00000000000E+00 0. -1.
         25    2    1    2    0    0  0.17297913487E+02 -0.70009282903E+02 -0.41956752250E+03  0.44372327599E+03  0.12511163903E+03 0.  0.
          5    1    3    3  502    0  0.50029596994E+02 -0.55117761787E+02 -0.38976700784E+03  0.39683336684E+03  0.41800000000E+01 0.  1.
         -5    1    3    3    0  502 -0.32731683506E+02 -0.14891521116E+02 -0.29800514657E+02  0.46889909150E+02  0.41800000000E+01 0.  1.
        -11    1    1    2    0    0 -0.40998782061E+02  0.18304341565E+02 -0.53945160076E+01  0.45222227428E+02  0.00000000000E+00 0.  1.
         11    1    1    2    0    0  0.23700868573E+02  0.51704941338E+02 -0.87167150452E+02  0.10408287202E+03  0.00000000000E+00 0. -1.
</event>
<event>
 7    1  0.2855090E-009  0.1383798E+03  0.7561462E-02  0.1215526E+00
         -1   -1    0    0    0  501 -0.00000000000E+00  0.00000000000E+00  0.33525477931E+03  0.33525477931E+03  0.00000000000E+00 0.  1.
          1   -1    0    0  501    0  0.00000000000E+00 -0.00000000000E+00 -0.74459274253E+02  0.74459274253E+02  0.00000000000E+00 0. -1.
         25    2    1    2    0    0 -0.10761653788E+03 -0.17577839413E+02  0.18244393616E+03  0.24662654136E+03  0.12509421009E+03 0.  0.
          5    1    3    3  502    0 -0.60822067534E+02 -0.49388625426E+02  0.30058044122E+02  0.84020941658E+02  0.41800000000E+01 0. -1.
         -5    1    3    3    0  502 -0.46794470342E+02  0.31810786014E+02  0.15238589204E+03  0.16260559970E+03  0.41800000000E+01 0. -1.
        -11    1    1    2    0    0  0.78911853959E+02 -0.31288528207E+02  0.58261683093E+02  0.10295861503E+03  0.00000000000E+00 0.  1.
         11    1    1    2    0    0  0.28704683917E+02  0.48866367620E+02  0.20089885798E+02  0.60128897167E+02  0.00000000000E+00 0. -1.
</event>
<event>
 7    1  0.2855090E-009  0.1531933E+03  0.7561462E-02  0.1196603E+00
         -2   -1    0    0    0  501 -0.00000000000E+00  0.00000000000E+00  0.10906089814E+03  0.10906089814E+03  0.00000000000E+00 0. -1.
          2   -1    0    0  501    0  0.00000000000E+00 -0.00000000000E+00 -0.37311161718E+03  0.37311161718E+03  0.00000000000E+00 0.  1.
         25    2    1    2    0    0 -0.10809129237E+03 -0.90462145326E+02 -0.25331685869E+03  0.31572877850E+03  0.12509237969E+03 0.  0.
          5    1    3    3  502    0 -0.75330198653E+02 -0.56225611331E+02 -0.49273237172E+02  0.10621338193E+03  0.41800000000E+01 0.  1.
         -5    1    3    3    0  502 -0.32761093714E+02 -0.34236533995E+02 -0.20404362151E+03  0.20951539658E+03  0.41800000000E+01 0.  1.
        -11    1    1    2    0    0  0.10162862626E+03  0.32930734099E+02  0.32702176738E+01  0.10688079925E+03  0.00000000000E+00 0.  1.
         11    1    1    2    0    0  0.64626661060E+01  0.57531411227E+02 -0.14004078025E+02  0.59562937573E+02  0.00000000000E+00 0. -1.
</event>
<event>
 7    1  0.3108192E-009  0.1943264E+03  0.7561462E-02  0.1154616E+00
         -1   -1    0    0    0  501 -0.00000000000E+00  0.00000000000E+00  0.46047512963E+02  0.46047512963E+02  0.00000000000E+00 0.  1.
          1   -1    0    0  501    0  0.00000000000E+00 -0.00000000000E+00 -0.10658530392E+04  0.10658530392E+04  0.00000000000E+00 0. -1.
         25    2    1    2    0    0 -0.17871645227E+03  0.68996614012E+02 -0.58168596831E+03  0.62506366195E+03  0.12508362285E+03 0.  0.
          5    1    3    3  502    0 -0.11209257932E+03  0.35627491978E+02 -0.17059888615E+03  0.20725712745E+03  0.41800000000E+01 0. -1.
         -5    1    3    3    0  502 -0.66623872945E+02  0.33369122034E+02 -0.41108708216E+03  0.41780653450E+03  0.41800000000E+01 0. -1.
        -11    1    1    2    0    0  0.67894780481E+02 -0.43573641744E+01 -0.72788905437E+02  0.99633892797E+02  0.00000000000E+00 0.  1.
         11    1    1    2    0    0  0.11082167178E+03 -0.64639249838E+02 -0.36533065244E+03  0.38720299737E+03  0.00000000000E+00 0. -1.
</event>
<event>
 7    1  0.2855090E-009  0.1236970E+03  0.7561462E-02  0.1237120E+00
          4   -1    0    0  501    0  0.00000000000E+00  0.00000000000E+00  0.12509197962E+03  0.12509197962E+03  0.00000000000E+00 0. -1.
         -4   -1    0    0    0  501 -0.00000000000E+00 -0.00000000000E+00 -0.19013500737E+03  0.19013500737E+03  0.00000000000E+00 0.  1.
         25    2    1    2    0    0  0.82375563736E+02  0.44854462018E+02 -0.90906521647E+02  0.18085875433E+03  0.12509291377E+03 0.  0.
          5    1    3    3  502    0  0.17384744704E+02 -0.41058616329E+02 -0.95276630757E+01  0.45785238746E+02  0.41800000000E+01 0. -1.
         -5    1    3    3    0  502  0.64990819032E+02  0.85913078347E+02 -0.81378858571E+02  0.13507351558E+03  0.41800000000E+01 0. -1.
        -11    1    1    2    0    0 -0.50995281815E+02 -0.35229783062E+02 -0.30549781513E+02  0.69100980691E+02  0.00000000000E+00 0.  1.
         11    1    1    2    0    0 -0.31380281921E+02 -0.96246789561E+01  0.56413275409E+02  0.65267251979E+02  0.00000000000E+00 0. -1.
</event>
<event>
 7    1  0.2952636E-009  0.2357524E+03  0.7561462E-02  0.1122655E+00
         -2   -1    0    0    0  501 -0.00000000000E+00  0.00000000000E+00  0.17647893594E+03  0.17647893594E+03  0.00000000000E+00 0.  1.
          2   -1    0    0  501    0  0.00000000000E+00 -0.00000000000E+00 -0.32138200634E+03  0.32138200634E+03  0.00000000000E+00 0. -1.
         25    2    1    2    0    0  0.21081962056E+03 -0.14001859768E+02 -0.62815443969E+02  0.25344543185E+03  0.12509133638E+03 0.  0.
          5    1    3    3  502    0  0.14406265529E+03 -0.64552520926E+02 -0.19627183202E+02  0.15913445676E+03  0.41800000000E+01 0.  1.
         -5    1    3    3    0  502  0.66756965269E+02  0.50550661158E+02 -0.43188260766E+02  0.94310975095E+02  0.41800000000E+01 0.  1.
        -11    1    1    2    0    0 -0.10974885123E+03 -0.37922264738E+02 -0.33647304830E+02  0.12089271951E+03  0.00000000000E+00 0.  1.
         11    1    1    2    0    0 -0.10107076933E+03  0.51924124506E+02 -0.48440321596E+02  0.12352279092E+03  0.00000000000E+00 0. -1.
</event>
<event>
 7    1  0.2855090E-009  0.1657769E+03  0.7561462E-02  0.1182325E+00
         -1   -1    0    0    0  501 -0.00000000000E+00  0.00000000000E+00  0.97898656700E+02  0.97898656700E+02  0.00000000000E+00 0.  1.
          1   -1    0    0  501    0  0.00000000000E+00 -0.00000000000E+00 -0.36288041267E+03  0.36288041267E+03  0.00000000000E+00 0. -1.
         25    2    1    2    0    0  0.13642394055E+03  0.65148428120E+01 -0.52557770035E+02  0.19251926776E+03  0.12508962601E+03 0.  0.
          5    1    3    3  502    0  0.13842523240E+03 -0.33564799682E+02 -0.27806190030E+02  0.14518538957E+03  0.41800000000E+01 0. -1.
         -5    1    3    3    0  502 -0.20012918422E+01  0.40079642494E+02 -0.24751580005E+02  0.47333878187E+02  0.41800000000E+01 0. -1.
        -11    1    1    2    0    0 -0.11852493875E+03  0.16376518661E+02 -0.11263447910E+03  0.16432552252E+03  0.00000000000E+00 0.  1.
         11    1    1    2    0    0 -0.17899001805E+02 -0.22891361473E+02 -0.99789506835E+02  0.10393427909E+03  0.00000000000E+00 0. -1.
</event>
<event>
 7    1  0.2855090E-009  0.1171378E+03  0.7561462E-02  0.1247895E+00
         -1   -1    0    0    0  501 -0.00000000000E+00  0.00000000000E+00  0.58479258616E+03  0.58479258616E+03  0.00000000000E+00 0.  1.
          1   -1    0    0  501    0  0.00000000000E+00 -0.00000000000E+00 -0.26124703754E+02  0.26124703754E+02  0.00000000000E+00 0. -1.
         25    2    1    2    0    0 -0.45603441676E+02 -0.31071232322E+02  0.32681094867E+03  0.35425692035E+03  0.12508986398E+03 0.  0.
          5    1    3    3  502    0 -0.40930614900E+02  0.43168824207E+02  0.11191516115E+03  0.12681221674E+03  0.41800000000E+01 0.  1.
         -5    1    3    3    0  502 -0.46728267755E+01 -0.74240056529E+02  0.21489578752E+03  0.22744470360E+03  0.41800000000E+01 0.  1.
        -11    1    1    2    0    0  0.50081352008E+02 -0.16213077528E+02  0.67622478974E+02  0.85696005534E+02  0.00000000000E+00 0. -1.
         11    1    1    2    0    0 -0.44779103319E+01  0.47284309850E+02  0.16423445476E+03  0.17096436403E+03  0.00000000000E+00 0.  1.
</event>
<event>
 7    1  0.2855090E-009  0.1175483E+03  0.7561462E-02  0.1247197E+00
          1   -1    0    0  501    0  0.00000000000E+00  0.00000000000E+00  0.31347227334E+02  0.31347227334E+02  0.00000000000E+00 0. -1.
         -1   -1    0    0    0  501 -0.00000000000E+00 -0.00000000000E+00 -0.60451700695E+03  0.60451700695E+03  0.00000000000E+00 0.  1.
         25    2    1    2    0    0  0.55145487267E+02 -0.22573199550E+02 -0.17959872816E+03  0.22683262498E+03  0.12508701968E+03 0.  0.
          5    1    3    3  502    0  0.24281646800E+02 -0.69257360725E+02 -0.60613252521E+02  0.95276540486E+02  0.41800000000E+01 0.  1.
         -5    1    3    3    0  502  0.30863840467E+02  0.46684161175E+02 -0.11898547564E+03  0.13155608449E+03  0.41800000000E+01 0.  1.
        -11    1    1    2    0    0 -0.60407075913E+02 -0.19183657750E+02 -0.16778988050E+03  0.17936128775E+03  0.00000000000E+00 0. -1.
         11    1    1    2    0    0  0.52615886461E+01  0.41756857301E+02 -0.22578117095E+03  0.22967032155E+03  0.00000000000E+00 0.  1.
</event>
<event>
 7    1  0.2855090E-009  0.1261414E+03  0.7561462E-02  0.1233296E+00
          1   -1    0    0  501    0  0.00000000000E+00  0.00000000000E+00  0.52973802071E+03  0.52973802071E+03  0.00000000000E+00 0. -1.
         -1   -1    0    0    0  501 -0.00000000000E+00 -0.00000000000E+00 -0.40643643223E+02  0.40643643223E+02  0.00000000000E+00 0.  1.
         25    2    1    2    0    0  0.41395452799E+02  0.58336640695E+02  0.39521485045E+03  0.42066379517E+03  0.12508598401E+03 0.  0.
          5    1    3    3  502    0  0.67588714104E+02  0.80540153832E+02  0.24725933161E+03  0.26871844024E+03  0.41800000000E+01 0.  1.
         -5    1    3    3    0  502 -0.26193261305E+02 -0.22203513137E+02  0.14795551883E+03  0.15194535494E+03  0.41800000000E+01 0.  1.
        -11    1    1    2    0    0 -0.23766258139E+02 -0.80621256469E+02  0.85952143220E+02  0.12021810573E+03  0.00000000000E+00 0.  1.
         11    1    1    2    0    0 -0.17629194660E+02  0.22284615774E+02  0.79273838155E+01  0.29499763028E+02  0.00000000000E+00 0. -1.
</event>
<event>
 7    1  0.2871515E-009  0.1158484E+03  0.7561462E-02  0.1250107E+00
         -2   -1    0    0    0  501 -0.00000000000E+00  0.00000000000E+00  0.38650805900E+02  0.38650805900E+02  0.00000000000E+00 0. -1.
          2   -1    0    0  501    0  0.00000000000E+00 -0.00000000000E+00 -0.54385401971E+03  0.54385401971E+03  0.00000000000E+00 0.  1.
         25    2    1    2    0    0 -0.91153993718E+02 -0.29640227403E+02 -0.26694965422E+03  0.30999297670E+03  0.12508370822E+03 0.  0.
          5    1    3    3  502    0 -0.48515297769E+02  0.12637881767E+02 -0.23789511122E+03  0.24315634171E+03  0.41800000000E+01 0.  1.
         -5    1    3    3    0  502 -0.42638695948E+02 -0.42278109170E+02 -0.29054543000E+02  0.66836634985E+02  0.41800000000E+01 0.  1.
        -11    1    1    2    0    0  0.89814254693E+02 -0.16983471091E+01 -0.11839299634E+03  0.14861489263E+03  0.00000000000E+00 0. -1.
         11    1    1    2    0    0  0.13397390250E+01  0.31338574512E+02 -0.11986056326E+03  0.12389695629E+03  0.00000000000E+00 0.  1.
</event>
<event>
 7    1  0.2855090E-009  0.5478523E+02  0.7561462E-02  0.1421117E+00
         -1   -1    0    0    0  501 -0.00000000000E+00  0.00000000000E+00  0.36746147705E+03  0.36746147705E+03  0.00000000000E+00 0.  1.
          1   -1    0    0  501    0  0.00000000000E+00 -0.00000000000E+00 -0.45549102796E+02  0.45549102796E+02  0.00000000000E+00 0. -1.
         25    2    1    2    0    0 -0.30664664152E+02 -0.29169130988E+01  0.79927022198E+02  0.15160284360E+03  0.12508502428E+03 0.  0.
          5    1    3    3  502    0 -0.47838860489E+01 -0.17596112485E+02  0.10852318666E+03  0.11012385383E+03  0.41800000000E+01 0.  1.
         -5    1    3    3    0  502 -0.25880778103E+02  0.14679199386E+02 -0.28596164463E+02  0.41478989764E+02  0.41800000000E+01 0.  1.
        -11    1    1    2    0    0  0.32879054227E+02  0.23309970917E+02  0.23685953604E+03  0.24026407714E+03  0.00000000000E+00 0.  1.
         11    1    1    2    0    0 -0.22143900748E+01 -0.20393057819E+02  0.51258160165E+01  0.21143659107E+02  0.00000000000E+00 0. -1.
</event>
<event>
 7    1  0.2855090E-009  0.8326878E+02  0.7561462E-02  0.1320023E+00
         -1   -1    0    0    0  501 -0.00000000000E+00  0.00000000000E+00  0.21911745625E+02  0.21911745625E+02  0.00000000000E+00 0.  1.
          1   -1    0    0  501    0  0.00000000000E+00 -0.00000000000E+00 -0.69081346408E+03  0.69081346408E+03  0.00000000000E+00 0. -1.
         25    2    1    2    0    0 -0.30529755247E+02 -0.17146293821E+02 -0.52478262890E+03  0.54061942670E+03  0.12508595277E+03 0.  0.
          5    1    3    3  502    0  0.17993995726E+01  0.21622435815E+02 -0.44854489348E+03  0.44908881241E+03  0.41800000000E+01 0.  1.
         -5    1    3    3    0  502 -0.32329154820E+02 -0.38768729636E+02 -0.76237735420E+02  0.91530614283E+02  0.41800000000E+01 0.  1.
        -11    1    1    2    0    0 -0.91370864585E+01  0.44614229838E+02 -0.76691621305E+02  0.89193725292E+02  0.00000000000E+00 0.  1.
         11    1    1    2    0    0  0.39666841705E+02 -0.27467936017E+02 -0.67427468248E+02  0.82912057714E+02  0.00000000000E+00 0. -1.
</event>
<event>
 7    1  0.2855090E-009  0.1385545E+03  0.7561462E-02  0.1215287E+00
         -1   -1    0    0    0  501 -0.00000000000E+00  0.00000000000E+00  0.56771964856E+02  0.56771964856E+02  0.00000000000E+00 0.  1.
          1   -1    0    0  501    0  0.00000000000E+00 -0.00000000000E+00 -0.43926846342E+03  0.43926846342E+03  0.00000000000E+00 0. -1.
         25    2    1    2    0    0 -0.51010118173E+02 -0.10070670901E+03 -0.22533879065E+03  0.28136862954E+03  0.12508741633E+03 0.  0.
          5    1    3    3  502    0 -0.74306415067E+02 -0.18420628695E+02 -0.69134252907E+02  0.10323652555E+03  0.41800000000E+01 0.  1.
         -5    1    3    3    0  502  0.23296296894E+02 -0.82286080314E+02 -0.15620453774E+03  0.17813210400E+03  0.41800000000E+01 0.  1.
        -11    1    1    2    0    0  0.20787183469E+02  0.63876069358E+02 -0.20938541038E+02  0.70361081103E+02  0.00000000000E+00 0.  1.
         11    1    1    2    0    0  0.30222934704E+02  0.36830639651E+02 -0.13621916688E+03  0.14431071763E+03  0.00000000000E+00 0. -1.
</event>
<event>
 7    1  0.2855090E-009  0.2494498E+03  0.7561462E-02  0.1113653E+00
          2   -1    0    0  501    0  0.00000000000E+00  0.00000000000E+00  0.17471301555E+04  0.17471301555E+04  0.00000000000E+00 0. -1.
         -2   -1    0    0    0  501 -0.00000000000E+00 -0.00000000000E+00 -0.37004228263E+02  0.37004228263E+02  0.00000000000E+00 0.  1.
         25    2    1    2    0    0 -0.48021669807E+02  0.22074031572E+03  0.74272590917E+03  0.78633792859E+03  0.12511272535E+03 0.  0.
          5    1    3    3  502    0 -0.87758841822E+02  0.14515817227E+03  0.54808957612E+03  0.57375270383E+03  0.41800000000E+01 0. -1.
         -5    1    3    3    0  502  0.39737172015E+02  0.75582143456E+02  0.19463633304E+03  0.21258522477E+03  0.41800000000E+01 0. -1.
        -11    1    1    2    0    0  0.36739361571E+02 -0.18425801909E+02  0.13705110344E+03  0.14308143073E+03  0.00000000000E+00 0.  1.
         11    1    1    2    0    0  0.11282308236E+02 -0.20231451381E+03  0.83034891464E+03  0.85471502445E+03  0.00000000000E+00 0. -1.
</event>
<event>
 7    1  0.3133794E-009  0.7727819E+02  0.7561462E-02  0.1336958E+00
          2   -1    0    0  501    0  0.00000000000E+00  0.00000000000E+00  0.19560018431E+03  0.19560018431E+03  0.00000000000E+00 0. -1.
         -2   -1    0    0    0  501 -0.00000000000E+00 -0.00000000000E+00 -0.67361642802E+02  0.67361642802E+02  0.00000000000E+00 0.  1.
         25    2    1    2    0    0  0.64635364357E+01 -0.35133486788E+02  0.58377091749E+02  0.14258718843E+03  0.12508829788E+03 0.  0.
          5    1    3    3  502    0 -0.37968512434E+02 -0.14246854552E+02  0.79213356554E+02  0.89088770660E+02  0.41800000000E+01 0. -1.
         -5    1    3    3    0  502  0.44432048870E+02 -0.20886632236E+02 -0.20836264806E+02  0.53498417771E+02  0.41800000000E+01 0. -1.
        -11    1    1    2    0    0 -0.17946200059E+02  0.45582959491E+02  0.85371923526E+02  0.98428845463E+02  0.00000000000E+00 0. -1.
         11    1    1    2    0    0  0.11482663624E+02 -0.10449472703E+02 -0.15510473764E+02  0.21945793220E+02  0.00000000000E+00 0.  1.
</event>
<event>
 7    1  0.2855090E-009  0.9702875E+02  0.7561462E-02  0.1286671E+00
          1   -1    0    0  501    0  0.00000000000E+00  0.00000000000E+00  0.27345808183E+03  0.27345808183E+03  0.00000000000E+00 0. -1.
         -1   -1    0    0    0  501 -0.00000000000E+00 -0.00000000000E+00 -0.76247911198E+02  0.76247911198E+02  0.00000000000E+00 0.  1.
         25    2    1    2    0    0  0.19800410752E+02 -0.53580236675E+02  0.20420158816E+03  0.24618416022E+03  0.12508178966E+03 0.  0.
          5    1    3    3  502    0  0.69611066542E+02 -0.17407841214E+02  0.13857923373E+03  0.15611024931E+03  0.41800000000E+01 0.  1.
         -5    1    3    3    0  502 -0.49810655790E+02 -0.36172395461E+02  0.65622354435E+02  0.90073910902E+02  0.41800000000E+01 0.  1.
        -11    1    1    2    0    0 -0.12097143611E+02  0.85937782218E+01 -0.42934736252E+02  0.45426704533E+02  0.00000000000E+00 0.  1.
         11    1    1    2    0    0 -0.77032671410E+01  0.44986458454E+02  0.35943318723E+02  0.58095128278E+02  0.00000000000E+00 0. -1.
</event>
<event>
 7    1  0.2855090E-009  0.3242069E+03  0.7561462E-02  0.1073729E+00
          2   -1    0    0  501    0  0.00000000000E+00  0.00000000000E+00  0.78835133669E+03  0.78835133669E+03  0.00000000000E+00 0.  1.
         -2   -1    0    0    0  501 -0.00000000000E+00 -0.00000000000E+00 -0.15527745332E+03  0.15527745332E+03  0.00000000000E+00 0. -1.
         25    2    1    2    0    0  0.31536964474E+03 -0.32746576627E+02  0.45540859136E+03  0.56883628583E+03  0.12508950350E+03 0.  0.
          5    1    3    3  502    0  0.75033177490E+02  0.52370131151E+01  0.21052684746E+03  0.22359881470E+03  0.41800000000E+01 0.  1.
         -5    1    3    3    0  502  0.24033646725E+03 -0.37983589742E+02  0.24488174389E+03  0.34523747113E+03  0.41800000000E+01 0.  1.
        -11    1    1    2    0    0 -0.91597985255E+02  0.51652214391E+02  0.49518910294E+02  0.11623366393E+03  0.00000000000E+00 0.  1.
         11    1    1    2    0    0 -0.22377165948E+03 -0.18905637764E+02  0.12814638172E+03  0.25855884026E+03  0.00000000000E+00 0. -1.
</event>
<event>
 7    1  0.2855090E-009  0.1425252E+03  0.7561462E-02  0.1209971E+00
         -2   -1    0    0    0  501 -0.00000000000E+00  0.00000000000E+00  0.57811581353E+02  0.57811581353E+02  0.00000000000E+00 0.  1.
          2   -1    0    0  501    0  0.00000000000E+00 -0.00000000000E+00 -0.37797910748E+03  0.37797910748E+03  0.00000000000E+00 0. -1.
         25    2    1    2    0    0  0.23963239090E+02 -0.90557379858E+02 -0.11987153388E+03  0.19695262795E+03  0.12508507963E+03 0.  0.
          5    1    3    3  502    0  0.73771236887E+02 -0.68663244549E+02 -0.87319438828E+02  0.13341286797E+03  0.41800000000E+01 0. -1.
         -5    1    3    3    0  502 -0.49807997797E+02 -0.21894135309E+02 -0.32552095052E+02  0.63539759976E+02  0.41800000000E+01 0. -1.
        -11    1    1    2    0    0  0.33968976129E+02  0.25319352032E+02 -0.75367397638E+02  0.86459271066E+02  0.00000000000E+00 0.  1.
         11    1    1    2    0    0 -0.57932215219E+02  0.65238027825E+02 -0.12492859461E+03  0.15237878982E+03  0.00000000000E+00 0. -1.
</event>
<event>
 7    1  0.2855090E-009  0.9786373E+02  0.7561462E-02  0.1284853E+00
          2   -1    0    0  501    0  0.00000000000E+00  0.00000000000E+00  0.32502420438E+03  0.32502420438E+03  0.00000000000E+00 0. -1.
         -2   -1    0    0    0  501 -0.00000000000E+00 -0.00000000000E+00 -0.59124963653E+02  0.59124963653E+02  0.00000000000E+00 0.  1.
         25    2    1    2    0    0  0.66412361088E+02  0.39112530316E+02  0.19919492365E+03  0.24752070589E+03  0.12508992966E+03 0.  0.
          5    1    3    3  502    0  0.42059163173E+02 -0.23348659242E+02  0.13631444044E+02  0.50173915155E+02  0.41800000000E+01 0.  1.
         -5    1    3    3    0  502  0.24353197915E+02  0.62461189557E+02  0.18556347961E+03  0.19734679074E+03  0.41800000000E+01 0.  1.
        -11    1    1    2    0    0 -0.34423679734E+02 -0.73683815812E+01 -0.18848473573E+02  0.39931788459E+02  0.00000000000E+00 0.  1.
         11    1    1    2    0    0 -0.31988681354E+02 -0.31744148734E+02  0.85552790651E+02  0.96696673685E+02  0.00000000000E+00 0. -1.
</event>
<event>
 7    1  0.2855090E-009  0.9009409E+02  0.7561462E-02  0.1302624E+00
          1   -1    0    0  501    0  0.00000000000E+00  0.00000000000E+00  0.10812777610E+03  0.10812777610E+03  0.00000000000E+00 0. -1.
         -1   -1    0    0    0  501 -0.00000000000E+00 -0.00000000000E+00 -0.13584919721E+03  0.13584919721E+03  0.00000000000E+00 0.  1.
         25    2    1    2    0    0  0.27801121461E+02  0.32438051786E+02 -0.53775596026E+02  0.14270245156E+03  0.12508815050E+03 0.  0.
          5    1    3    3  502    0 -0.76172663938E+01  0.52367350454E+02  0.21326574778E+02  0.57207144070E+02  0.41800000000E+01 0. -1.
         -5    1    3    3    0  502  0.35418387855E+02 -0.19929298668E+02 -0.75102170804E+02  0.85495307492E+02  0.41800000000E+01 0. -1.
        -11    1    1    2    0    0 -0.53850323121E+02 -0.22724907999E+02 -0.61019705951E+01  0.58766595860E+02  0.00000000000E+00 0.  1.
         11    1    1    2    0    0  0.26049201659E+02 -0.97131437866E+01  0.32156145515E+02  0.42507925893E+02  0.00000000000E+00 0. -1.
</event>
<event>
 7    1  0.2855090E-009  0.1952190E+03  0.7561462E-02  0.1153837E+00
          2   -1    0    0  501    0  0.00000000000E+00  0.00000000000E+00  0.19953820558E+03  0.19953820558E+03  0.00000000000E+00 0. -1.
         -2   -1    0    0    0  501 -0.00000000000E+00 -0.00000000000E+00 -0.28918546298E+03  0.28918546298E+03  0.00000000000E+00 0.  1.
         25    2    1    2    0    0  0.26644896930E+02 -0.16168509443E+03 -0.18646191372E+03  0.27797016931E+03  0.12508936592E+03 0.  0.
          5    1    3    3  502    0  0.69976954245E+02 -0.13534443525E+03 -0.15856018738E+03  0.21994020938E+03  0.41800000000E+01 0. -1.
         -5    1    3    3    0  502 -0.43332057315E+02 -0.26340659172E+02 -0.27901726338E+02  0.58029959929E+02  0.41800000000E+01 0. -1.
        -11    1    1    2    0    0  0.33718194451E+02  0.62865465138E+02  0.34199213304E+02  0.79111121435E+02  0.00000000000E+00 0.  1.
         11    1    1    2    0    0 -0.60363091381E+02  0.98819629288E+02  0.62615443019E+02  0.13164237782E+03  0.00000000000E+00 0. -1.
</event>
<event>
 7    1  0.2855090E-009  0.1021845E+03  0.7561462E-02  0.1275768E+00
         -1   -1    0    0    0  501 -0.00000000000E+00  0.00000000000E+00  0.35045803228E+02  0.35045803228E+02  0.00000000000E+00 0.  1.
          1   -1    0    0  501    0  0.00000000000E+00 -0.00000000000E+00 -0.35605525609E+03  0.35605525609E+03  0.00000000000E+00 0. -1.
         25    2    1    2    0    0  0.22732272438E+02 -0.16565819945E+02 -0.18928788619E+03  0.22862307992E+03  0.12508967268E+03 0.  0.
          5    1    3    3  502    0  0.30570322034E+02 -0.59411102525E+02 -0.16614095460E+03  0.17912150314E+03  0.41800000000E+01 0. -1.
         -5    1    3    3    0  502 -0.78380495957E+01  0.42845282580E+02 -0.23146931593E+02  0.49501576773E+02  0.41800000000E+01 0. -1.
        -11    1    1    2    0    0 -0.66069970873E+01  0.53216980618E+02 -0.89138837669E+02  0.10402611123E+03  0.00000000000E+00 0.  1.
         11    1    1    2    0    0 -0.16125275351E+02 -0.36651160673E+02 -0.42582729002E+02  0.58451868174E+02  0.00000000000E+00 0. -1.
</event>
<event>
 7    1  0.2855090E-009  0.9134322E+02  0.7561462E-02  0.1299631E+00
          4   -1    0    0  501    0  0.00000000000E+00  0.00000000000E+00  0.37739786360E+02  0.37739786360E+02  0.00000000000E+00 0. -1.
         -4   -1    0    0    0  501 -0.00000000000E+00 -0.00000000000E+00 -0.31748599594E+03  0.31748599594E+03  0.00000000000E+00 0.  1.
         25    2    1    2    0    0 -0.15291283708E+02 -0.10035865290E+02 -0.17943398890E+03  0.21949759180E+03  0.12509234382E+03 0.  0.
          5    1    3    3  502    0 -0.17527497120E+02  0.40120705213E+02 -0.13383398552E+02  0.45972512427E+02  0.41800000000E+01 0.  1.
         -5    1    3    3    0  502  0.22362134122E+01 -0.50156570504E+02 -0.16605059035E+03  0.17352507937E+03  0.41800000000E+01 0.  1.
        -11    1    1    2    0    0 -0.18087401445E+02  0.39727630723E+02 -0.32077501854E+02  0.54170147305E+02  0.00000000000E+00 0. -1.
         11    1    1    2    0    0  0.33378685153E+02 -0.29691765433E+02 -0.68234718831E+02  0.81558043202E+02  0.00000000000E+00 0.  1.
</event>
<event>
 7    1  0.2855090E-009  0.1035320E+03  0.7561462E-02  0.1273039E+00
          2   -1    0    0  501    0  0.00000000000E+00  0.00000000000E+00  0.96957176954E+02  0.96957176954E+02  0.00000000000E+00 0. -1.
         -2   -1    0    0    0  501 -0.00000000000E+00 -0.00000000000E+00 -0.12393390317E+03  0.12393390317E+03  0.00000000000E+00 0.  1.
         25    2    1    2    0    0  0.26405098045E+01 -0.40290336096E+02 -0.48600102762E+02  0.14014283208E+03  0.12509100656E+03 0.  0.
          5    1    3    3  502    0 -0.90639672211E+01  0.43490715741E+02 -0.28967010408E+02  0.53199228842E+02  0.41800000000E+01 0. -1.
         -5    1    3    3    0  502  0.11704477026E+02 -0.83781051837E+02 -0.19633092354E+02  0.86943603242E+02  0.41800000000E+01 0. -1.
        -11    1    1    2    0    0 -0.31584984857E+02  0.36947271968E+02  0.14978851662E+02  0.50863328355E+02  0.00000000000E+00 0.  1.
         11    1    1    2    0    0  0.28944475052E+02  0.33430641279E+01  0.66445248819E+01  0.29884919687E+02  0.00000000000E+00 0. -1.
</event>
<event>
 7    1  0.2855090E-009  0.1629152E+03  0.7561462E-02  0.1185444E+00
         -2   -1    0    0    0  501 -0.00000000000E+00  0.00000000000E+00  0.14801898962E+03  0.14801898962E+03  0.00000000000E+00 0.  1.
          2   -1    0    0  501    0  0.00000000000E+00 -0.00000000000E+00 -0.21962856461E+03  0.21962856461E+03  0.00000000000E+00 0. -1.
         25    2    1    2    0    0 -0.51540058653E+02 -0.12933252115E+03 -0.75986466570E+02  0.20200489486E+03  0.12509498700E+03 0.  0.
          5    1    3    3  502    0 -0.82442152153E+02 -0.79933176463E+02 -0.84955757392E+02  0.14290197432E+03  0.41800000000E+01 0. -1.
         -5    1    3    3    0  502  0.30902093500E+02 -0.49399344689E+02  0.89692908218E+01  0.59102920539E+02  0.41800000000E+01 0. -1.
        -11    1    1    2    0    0 -0.12062992814E+02  0.46680937086E+02  0.31861381197E+02  0.57790771708E+02  0.00000000000E+00 0.  1.
         11    1    1    2    0    0  0.63603051467E+02  0.82651584065E+02 -0.27484489617E+02  0.10785188767E+03  0.00000000000E+00 0. -1.
</event>
<event>
 7    1  0.2855090E-009  0.2023805E+03  0.7561462E-02  0.1147746E+00
          1   -1    0    0  501    0  0.00000000000E+00  0.00000000000E+00  0.33368159795E+03  0.33368159795E+03  0.00000000000E+00 0. -1.
         -1   -1    0    0    0  501 -0.00000000000E+00 -0.00000000000E+00 -0.13812195682E+03  0.13812195682E+03  0.00000000000E+00 0.  1.
         25    2    1    2    0    0  0.11741602997E+03 -0.13979784601E+03  0.12129546960E+03  0.25236965302E+03  0.12509152239E+03 0.  0.
          5    1    3    3  502    0 -0.23137022213E+02 -0.47482365939E+02  0.32548911144E+02  0.62183606270E+02  0.41800000000E+01 0. -1.
         -5    1    3    3    0  502  0.14055305218E+03 -0.92315480074E+02  0.88746558454E+02  0.19018604675E+03  0.41800000000E+01 0. -1.
        -11    1    1    2    0    0 -0.55032880633E+02  0.50895275791E+02 -0.17814927344E+02  0.77047509271E+02  0.00000000000E+00 0.  1.
         11    1    1    2    0    0 -0.62383149337E+02  0.88902570223E+02  0.92079098878E+02  0.14238639248E+03  0.00000000000E+00 0. -1.
</event>
<event>
 7    1  0.2855090E-009  0.2850873E+03  0.7561462E-02  0.1092942E+00
         -1   -1    0    0    0  501 -0.00000000000E+00  0.00000000000E+00  0.46136576427E+02  0.46136576427E+02  0.00000000000E+00 0.  1.
          1   -1    0    0  501    0  0.00000000000E+00 -0.00000000000E+00 -0.20828614860E+04  0.20828614860E+04  0.00000000000E+00 0. -1.
         25    2    1    2    0    0  0.23767004441E+03 -0.14408518617E+03 -0.75279888349E+03  0.81215910714E+03  0.12509462594E+03 0.  0.
          5    1    3    3  502    0  0.11540912125E+03 -0.93908636424E+02 -0.55215373998E+03  0.57186477618E+03  0.41800000000E+01 0.  1.
         -5    1    3    3    0  502  0.12226092316E+03 -0.50176549751E+02 -0.20064514351E+03  0.24029433096E+03  0.41800000000E+01 0.  1.
        -11    1    1    2    0    0 -0.10609523569E+03  0.11075899120E+03 -0.78111855750E+03  0.79603389000E+03  0.00000000000E+00 0. -1.
         11    1    1    2    0    0 -0.13157480872E+03  0.33326194974E+02 -0.50280746862E+03  0.52080506532E+03  0.00000000000E+00 0.  1.
</event>
<event>
 7    1  0.2855090E-009  0.1136902E+03  0.7561462E-02  0.1253885E+00
         -2   -1    0    0    0  501 -0.00000000000E+00  0.00000000000E+00  0.53918463981E+02  0.53918463981E+02  0.00000000000E+00 0.  1.
          2   -1    0    0  501    0  0.00000000000E+00 -0.00000000000E+00 -0.26940334600E+03  0.26940334600E+03  0.00000000000E+00 0. -1.
         25    2    1    2    0    0 -0.16488130581E+01  0.52639287347E+02 -0.10078978442E+03  0.16905592138E+03  0.12509081003E+03 0.  0.
          5    1    3    3  502    0 -0.56143499353E+02 -0.18418581816E+01 -0.57846234131E+02  0.80741217258E+02  0.41800000000E+01 0.  1.
         -5    1    3    3    0  502  0.54494686295E+02  0.54481145529E+02 -0.42943550290E+02  0.88314704121E+02  0.41800000000E+01 0.  1.
        -11    1    1    2    0    0  0.36925877894E+02 -0.44224782229E+02 -0.36859019269E+02  0.68395461275E+02  0.00000000000E+00 0.  1.
         11    1    1    2    0    0 -0.35277064836E+02 -0.84145051179E+01 -0.77836078323E+02  0.85870427323E+02  0.00000000000E+00 0. -1.
</event>
<event>
 7    1  0.2855090E-009  0.3650813E+03  0.7561462E-02  0.1056590E+00
         -1   -1    0    0    0  501 -0.00000000000E+00  0.00000000000E+00  0.58576982518E+02  0.58576982518E+02  0.00000000000E+00 0.  1.
          1   -1    0    0  501    0  0.00000000000E+00 -0.00000000000E+00 -0.30780518294E+04  0.30780518294E+04  0.00000000000E+00 0. -1.
         25    2    1    2    0    0  0.19752896765E+03  0.30489083400E+03 -0.22284328542E+04  0.22613123381E+04  0.12507753882E+03 0.  0.
          5    1    3    3  502    0  0.13821544153E+03  0.19431223343E+03 -0.17701058608E+04  0.17860999365E+04  0.41800000000E+01 0.  1.
         -5    1    3    3    0  502  0.59313526114E+02  0.11057860056E+03 -0.45832699345E+03  0.47521240157E+03  0.41800000000E+01 0.  1.
        -11    1    1    2    0    0 -0.17537345178E+03 -0.23785997499E+03 -0.55279440541E+03  0.62682921912E+03  0.00000000000E+00 0.  1.
         11    1    1    2    0    0 -0.22155515864E+02 -0.67030859007E+02 -0.23824758728E+03  0.24848725478E+03  0.00000000000E+00 0. -1.
</event>
<event>
 7    1  0.2855090E-009  0.2556331E+03  0.7561462E-02  0.1109796E+00
         -2   -1    0    0    0  501 -0.00000000000E+00  0.00000000000E+00  0.56282356423E+02  0.56282356423E+02  0.00000000000E+00 0.  1.
          2   -1    0    0  501    0  0.00000000000E+00 -0.00000000000E+00 -0.16867781455E+04  0.16867781455E+04  0.00000000000E+00 0. -1.
         25    2    1    2    0    0  0.23199035800E+03  0.24039409300E+02 -0.35100376329E+03  0.43960017538E+03  0.12508898009E+03 0.  0.
          5    1    3    3  502    0  0.12628808455E+03  0.74275677859E+02 -0.21376024361E+03  0.25918424097E+03  0.41800000000E+01 0. -1.
         -5    1    3    3    0  502  0.10570227345E+03 -0.50236268559E+02 -0.13724351969E+03  0.18041593441E+03  0.41800000000E+01 0. -1.
        -11    1    1    2    0    0 -0.14391109487E+03  0.26068538513E+02 -0.81825448318E+03  0.83122221528E+03  0.00000000000E+00 0. -1.
         11    1    1    2    0    0 -0.88079263128E+02 -0.50107947812E+02 -0.46123754256E+03  0.47223811123E+03  0.00000000000E+00 0.  1.
</event>
<event>
 7    1  0.2855090E-009  0.1060939E+03  0.7561462E-02  0.1267979E+00
          2   -1    0    0  501    0  0.00000000000E+00  0.00000000000E+00  0.29676293904E+03  0.29676293904E+03  0.00000000000E+00 0. -1.
         -2   -1    0    0    0  501 -0.00000000000E+00 -0.00000000000E+00 -0.43758204965E+02  0.43758204965E+02  0.00000000000E+00 0.  1.
         25    2    1    2    0    0  0.32485045112E+02 -0.60007359697E+01  0.16925102095E+03  0.21303252226E+03  0.12508261454E+03 0.  0.
          5    1    3    3  502    0  0.93641887593E+01  0.52636020808E+02  0.33302988101E+02  0.63125273338E+02  0.41800000000E+01 0.  1.
         -5    1    3    3    0  502  0.23120856353E+02 -0.58636756777E+02  0.13594803285E+03  0.14990724892E+03  0.41800000000E+01 0.  1.
        -11    1    1    2    0    0  0.16898553802E+02  0.34471196974E+02  0.26163126867E+02  0.46457870688E+02  0.00000000000E+00 0.  1.
         11    1    1    2    0    0 -0.49383598914E+02 -0.28470461004E+02  0.57590586263E+02  0.81030751062E+02  0.00000000000E+00 0. -1.
</event>
<event>
 7    1  0.2855090E-009  0.1067717E+03  0.7561462E-02  0.1266668E+00
          3   -1    0    0  501    0  0.00000000000E+00  0.00000000000E+00  0.11701113770E+03  0.11701113770E+03  0.00000000000E+00 0. -1.
         -3   -1    0    0    0  501 -0.00000000000E+00 -0.00000000000E+00 -0.11746395776E+03  0.11746395776E+03  0.00000000000E+00 0.  1.
         25    2    1    2    0    0 -0.67099399889E+01  0.34390134075E+02  0.28031017671E+02  0.13289422918E+03  0.12508970214E+03 0.  0.
          5    1    3    3  502    0  0.41049446872E+02  0.53660341162E+02 -0.10419723003E+02  0.68487461112E+02  0.41800000000E+01 0. -1.
         -5    1    3    3    0  502 -0.47759386861E+02 -0.19270207087E+02  0.38450740674E+02  0.64406768068E+02  0.41800000000E+01 0. -1.
        -11    1    1    2    0    0 -0.34811456735E+02 -0.39151613449E+02 -0.28804405264E+02  0.59786119779E+02  0.00000000000E+00 0.  1.
         11    1    1    2    0    0  0.41521396724E+02  0.47614793738E+01  0.32056752788E+00  0.41794746503E+02  0.00000000000E+00 0. -1.
</event>
<event>
 7    1  0.2855090E-009  0.9460119E+02  0.7561462E-02  0.1292077E+00
          2   -1    0    0  501    0  0.00000000000E+00  0.00000000000E+00  0.69969469137E+02  0.69969469137E+02  0.00000000000E+00 0. -1.
         -2   -1    0    0    0  501 -0.00000000000E+00 -0.00000000000E+00 -0.18636712253E+03  0.18636712253E+03  0.00000000000E+00 0.  1.
         25    2    1    2    0    0 -0.35058711296E+02 -0.85435325967E+01 -0.74535075081E+02  0.15001548012E+03  0.12508821556E+03 0.  0.
          5    1    3    3  502    0  0.28866477307E+02  0.35620427847E+02 -0.61919243355E+01  0.46453209998E+02  0.41800000000E+01 0.  1.
         -5    1    3    3    0  502 -0.63925188602E+02 -0.44163960444E+02 -0.68343150746E+02  0.10356227013E+03  0.41800000000E+01 0.  1.
        -11    1    1    2    0    0  0.88698060243E+01 -0.22826399331E+02  0.20381732541E+02  0.31861151685E+02  0.00000000000E+00 0. -1.
         11    1    1    2    0    0  0.26188905271E+02  0.31369931928E+02 -0.62244310851E+02  0.74459959856E+02  0.00000000000E+00 0.  1.
</event>
<event>
 7    1  0.2855090E-009  0.1328493E+03  0.7561462E-02  0.1223288E+00
          1   -1    0    0  501    0  0.00000000000E+00  0.00000000000E+00  0.58026550512E+03  0.58026550512E+03  0.00000000000E+00 0. -1.
         -1   -1    0    0    0  501 -0.00000000000E+00 -0.00000000000E+00 -0.35826944285E+02  0.35826944285E+02  0.00000000000E+00 0.  1.
         25    2    1    2    0    0  0.11633923799E+02 -0.92816065479E+02  0.26444144794E+03  0.30712739501E+03  0.12509111552E+03 0.  0.
          5    1    3    3  502    0  0.29598518837E+01 -0.12023643450E+03  0.16978809494E+03  0.20811302335E+03  0.41800000000E+01 0. -1.
         -5    1    3    3    0  502  0.86740719152E+01  0.27420369022E+02  0.94653353000E+02  0.99014371659E+02  0.41800000000E+01 0. -1.
        -11    1    1    2    0    0 -0.33327496757E+02  0.16960863207E+02  0.33698660419E+02  0.50338778640E+02  0.00000000000E+00 0.  1.
         11    1    1    2    0    0  0.21693572959E+02  0.75855202271E+02  0.24629845248E+03  0.25862627576E+03  0.00000000000E+00 0. -1.
</event>
<event>
 7    1  0.2855090E-009  0.2365402E+03  0.7561462E-02  0.1122119E+00
          2   -1    0    0  501    0  0.00000000000E+00  0.00000000000E+00  0.23574548414E+03  0.23574548414E+03  0.00000000000E+00 0. -1.
         -2   -1    0    0    0  501 -0.00000000000E+00 -0.00000000000E+00 -0.42693941973E+03  0.42693941973E+03  0.00000000000E+00 0.  1.
         25    2    1    2    0    0  0.94088451684E+02  0.20884491879E+03 -0.29621593353E+03  0.39479231997E+03  0.12509300456E+03 0.  0.
          5    1    3    3  502    0  0.44421065817E+02  0.17807286570E+03 -0.27856264415E+03  0.33361324270E+03  0.41800000000E+01 0. -1.
         -5    1    3    3    0  502  0.49667385866E+02  0.30772053083E+02 -0.17653289375E+02  0.61179077269E+02  0.41800000000E+01 0. -1.
        -11    1    1    2    0    0 -0.28848586345E+02 -0.99499554505E+02  0.12049157586E+01  0.10360431508E+03  0.00000000000E+00 0.  1.
         11    1    1    2    0    0 -0.65239865339E+02 -0.10934536428E+03  0.10381708218E+03  0.16428826882E+03  0.00000000000E+00 0. -1.
</event>
<event>
 7    1  0.2855090E-009  0.1753306E+03  0.7561462E-02  0.1172400E+00
         -2   -1    0    0    0  501 -0.00000000000E+00  0.00000000000E+00  0.12210932121E+03  0.12210932121E+03  0.00000000000E+00 0.  1.
          2   -1    0    0  501    0  0.00000000000E+00 -0.00000000000E+00 -0.33878809768E+03  0.33878809768E+03  0.00000000000E+00 0. -1.
         25    2    1    2    0    0  0.14297332704E+03 -0.96935320529E+02 -0.12627160287E+03  0.24785637632E+03  0.12510170655E+03 0.  0.
          5    1    3    3  502    0  0.73370316416E+02 -0.43050679413E+02  0.98098159413E+01  0.85733711092E+02  0.41800000000E+01 0. -1.
         -5    1    3    3    0  502  0.69603010626E+02 -0.53884641116E+02 -0.13608141881E+03  0.16212266523E+03  0.41800000000E+01 0. -1.
        -11    1    1    2    0    0 -0.71699995802E+02  0.24559192027E+02  0.18616113926E+01  0.75812326887E+02  0.00000000000E+00 0.  1.
         11    1    1    2    0    0 -0.71273331240E+02  0.72376128502E+02 -0.92268784994E+02  0.13722871568E+03  0.00000000000E+00 0. -1.
</event>
<event>
 7    1  0.2855090E-009  0.1027546E+03  0.7561462E-02  0.1274608E+00
         -2   -1    0    0    0  501 -0.00000000000E+00  0.00000000000E+00  0.46715392106E+03  0.46715392106E+03  0.00000000000E+00 0.  1.
          2   -1    0    0  501    0  0.00000000000E+00 -0.00000000000E+00 -0.35103861621E+02  0.35103861621E+02  0.00000000000E+00 0. -1.
         25    2    1    2    0    0 -0.67183943400E+02 -0.62801500439E+01  0.22276407436E+03  0.26424202735E+03  0.12508754398E+03 0.  0.
          5    1    3    3  502    0  0.21923687780E+02 -0.15634244587E+02  0.36662094016E+01  0.27495293799E+02  0.41800000000E+01 0. -1.
         -5    1    3    3    0  502 -0.89107631181E+02  0.93540945435E+01  0.21909786496E+03  0.23674673355E+03  0.41800000000E+01 0. -1.
        -11    1    1    2    0    0  0.49390245089E+02 -0.22857968810E+02  0.46182394210E+02  0.71377143281E+02  0.00000000000E+00 0. -1.
         11    1    1    2    0    0  0.17793698311E+02  0.29138118854E+02  0.16310359087E+03  0.16663861205E+03  0.00000000000E+00 0.  1.
</event>
<event>
 7    1  0.2855090E-009  0.3206236E+03  0.7561462E-02  0.1075363E+00
          2   -1    0    0  501    0  0.00000000000E+00  0.00000000000E+00  0.24222379106E+04  0.24222379106E+04  0.00000000000E+00 0. -1.
         -2   -1    0    0    0  501 -0.00000000000E+00 -0.00000000000E+00 -0.52317898282E+02  0.52317898282E+02  0.00000000000E+00 0.  1.
         25    2    1    2    0    0 -0.98733853440E+02  0.29129243572E+03  0.16388579069E+04  0.16721549972E+04  0.12508972364E+03 0.  0.
          5    1    3    3  502    0 -0.64931675407E+02  0.24285378811E+03  0.15039973987E+04  0.15248671197E+04  0.41800000000E+01 0.  1.
         -5    1    3    3    0  502 -0.33802178033E+02  0.48438647611E+02  0.13486050811E+03  0.14728787754E+03  0.41800000000E+01 0.  1.
        -11    1    1    2    0    0  0.21403349070E+02 -0.23247052526E+03  0.52657830170E+03  0.57600812172E+03  0.00000000000E+00 0.  1.
         11    1    1    2    0    0  0.77330504370E+02 -0.58821910465E+02  0.20448380378E+03  0.22639268996E+03  0.00000000000E+00 0. -1.
</event>
<event>
 6    1  0.2855090E-009  0.8813050E+02  0.7561462E-02  0.1307443E+00
         -1   -1    0    0    0  501 -0.00000000000E+00  0.00000000000E+00  0.23326832882E+03  0.23326832882E+03  0.00000000000E+00 0.  1.
          1   -1    0    0  501    0  0.00000000000E+00 -0.00000000000E+00 -0.52931276340E+02  0.52931276340E+02  0.00000000000E+00 0. -1.
          5    1    1    2  502    0  0.55411941511E+02  0.23138014666E+02  0.41768662260E+02  0.73266257798E+02  0.41800000000E+01 0.  1.
         -5    1    1    2    0  502 -0.56171068090E+02 -0.15718698056E+02  0.10130800720E+03  0.11697457451E+03  0.41800000000E+01 0.  1.
        -11    1    1    2    0    0 -0.28097316487E+02 -0.57784419809E+01  0.55010564421E+02  0.62040404443E+02  0.00000000000E+00 0.  1.
         11    1    1    2    0    0  0.28856443065E+02 -0.16408746289E+01 -0.17750181400E+02  0.33918368411E+02  0.00000000000E+00 0. -1.
</event>
<event>
 7    1  0.2855090E-009  0.1202702E+03  0.7561462E-02  0.1242652E+00
         -2   -1    0    0    0  501 -0.00000000000E+00  0.00000000000E+00  0.87675110721E+02  0.87675110721E+02  0.00000000000E+00 0.  1.
          2   -1    0    0  501    0  0.00000000000E+00 -0.00000000000E+00 -0.17418455575E+03  0.17418455575E+03  0.00000000000E+00 0. -1.
         25    2    1    2    0    0  0.49127496502E+02  0.18755289641E+02 -0.77881589272E+02  0.15645645198E+03  0.12509119720E+03 0.  0.
          5    1    3    3  502    0 -0.38841629984E+02 -0.14043432970E+02 -0.19955364021E+02  0.46060603368E+02  0.41800000000E+01 0. -1.
         -5    1    3    3    0  502  0.87969126486E+02  0.32798722611E+02 -0.57926225251E+02  0.11039584862E+03  0.41800000000E+01 0. -1.
        -11    1    1    2    0    0  0.27021347850E+02 -0.77398835822E+01 -0.23621767514E+01  0.28207072100E+02  0.00000000000E+00 0.  1.
         11    1    1    2    0    0 -0.76148844351E+02 -0.11015406059E+02 -0.62656790098E+01  0.77196142392E+02  0.00000000000E+00 0. -1.
</event>
<event>
 7    1  0.2855090E-009  0.2653078E+03  0.7561462E-02  0.1103996E+00
          1   -1    0    0  501    0  0.00000000000E+00  0.00000000000E+00  0.34650807063E+03  0.34650807063E+03  0.00000000000E+00 0. -1.
         -1   -1    0    0    0  501 -0.00000000000E+00 -0.00000000000E+00 -0.49175253207E+03  0.49175253207E+03  0.00000000000E+00 0.  1.
         25    2    1    2    0    0  0.25803453591E+03 -0.25925689176E+02 -0.38266971433E+03  0.47889188649E+03  0.12508943037E+03 0.  0.
          5    1    3    3  502    0  0.80055689876E+02 -0.20614784145E+02 -0.38330501090E+02  0.91217227105E+02  0.41800000000E+01 0. -1.
         -5    1    3    3    0  502  0.17797884604E+03 -0.53109050314E+01 -0.34433921324E+03  0.38767465938E+03  0.41800000000E+01 0. -1.
        -11    1    1    2    0    0 -0.18088597959E+03  0.52147044629E+02  0.16827779784E+03  0.25250043390E+03  0.00000000000E+00 0. -1.
         11    1    1    2    0    0 -0.77148556320E+02 -0.26221355453E+02  0.69147455052E+02  0.10686828231E+03  0.00000000000E+00 0.  1.
</event>
<event>
 7    1  0.2855090E-009  0.8202114E+02  0.7561462E-02  0.1323412E+00
          1   -1    0    0  501    0  0.00000000000E+00  0.00000000000E+00  0.32768969333E+02  0.32768969333E+02  0.00000000000E+00 0.  1.
         -1   -1    0    0    0  501 -0.00000000000E+00 -0.00000000000E+00 -0.59699215911E+03  0.59699215911E+03  0.00000000000E+00 0. -1.
         25    2    1    2    0    0  0.59696790958E+02 -0.70355036331E+01 -0.46260084727E+03  0.48297000794E+03  0.12508908629E+03 0.  0.
          5    1    3    3  502    0  0.60704216802E+02  0.29744876083E+01 -0.46719239243E+03  0.47114759201E+03  0.41800000000E+01 0.  1.
         -5    1    3    3    0  502 -0.10074258443E+01 -0.10009991241E+02  0.45915451559E+01  0.11822415929E+02  0.41800000000E+01 0.  1.
        -11    1    1    2    0    0 -0.36145348880E+02 -0.30915020771E+02 -0.15934069167E+02  0.50160934153E+02  0.00000000000E+00 0.  1.
         11    1    1    2    0    0 -0.23551442078E+02  0.37950524404E+02 -0.85688273344E+02  0.96630186356E+02  0.00000000000E+00 0. -1.
</event>
<event>
 7    1  0.2855090E-009  0.1056088E+03  0.7561462E-02  0.1268925E+00
          1   -1    0    0  501    0  0.00000000000E+00  0.00000000000E+00  0.24465765210E+02  0.24465765210E+02  0.00000000000E+00 0. -1.
         -1   -1    0    0    0  501 -0.00000000000E+00 -0.00000000000E+00 -0.10413438278E+04  0.10413438278E+04  0.00000000000E+00 0.  1.
         25    2    1    2    0    0 -0.17105003224E+01  0.14714933386E+02 -0.92804531885E+03  0.93655158962E+03  0.12506522739E+03 0.  0.
          5    1    3    3  502    0 -0.59878385779E+02 -0.34148830539E+00 -0.60239796028E+03  0.60538113007E+03  0.41800000000E+01 0. -1.
         -5    1    3    3    0  502  0.58167885457E+02  0.15056421692E+02 -0.32564735857E+03  0.33117045955E+03  0.41800000000E+01 0. -1.
        -11    1    1    2    0    0 -0.32597392423E+02  0.23062956289E+02 -0.55244646297E+02  0.68164953532E+02  0.00000000000E+00 0.  1.
         11    1    1    2    0    0  0.34307892745E+02 -0.37777889676E+02 -0.33588097476E+02  0.61093049892E+02  0.00000000000E+00 0. -1.
</event>
<event>
 7    1  0.2855090E-009  0.8423068E+02  0.7561462E-02  0.1317457E+00
         -1   -1    0    0    0  501 -0.00000000000E+00  0.00000000000E+00  0.66997060060E+02  0.66997060060E+02  0.00000000000E+00 0. -1.
          1   -1    0    0  501    0  0.00000000000E+00 -0.00000000000E+00 -0.21981395148E+03  0.21981395148E+03  0.00000000000E+00 0.  1.
         25    2    1    2    0    0  0.30559423381E+01  0.27749505494E+02 -0.14030241811E+03  0.19003577628E+03  0.12509777736E+03 0.  0.
          5    1    3    3  502    0  0.36247772306E+02  0.21728833917E+02  0.31754812125E+01  0.42586374599E+02  0.41800000000E+01 0. -1.
         -5    1    3    3    0  502 -0.33191829968E+02  0.60206715773E+01 -0.14347789932E+03  0.14744940168E+03  0.41800000000E+01 0. -1.
        -11    1    1    2    0    0 -0.32361049736E+02  0.18480635173E+02 -0.18693065404E+02  0.41691751110E+02  0.00000000000E+00 0.  1.
         11    1    1    2    0    0  0.29305107398E+02 -0.46230140667E+02  0.61785920938E+01  0.55083484149E+02  0.00000000000E+00 0. -1.
</event>
<event>
 7    1  0.2855090E-009  0.1094533E+03  0.7561462E-02  0.1261586E+00
          2   -1    0    0  501    0  0.00000000000E+00  0.00000000000E+00  0.14364579380E+03  0.14364579380E+03  0.00000000000E+00 0. -1.
         -2   -1    0    0    0  501 -0.00000000000E+00 -0.00000000000E+00 -0.10212874867E+03  0.10212874867E+03  0.00000000000E+00 0.  1.
         25    2    1    2    0    0 -0.39811093447E+02 -0.12725476798E+02 -0.97638864352E+01  0.13224892680E+03  0.12509030434E+03 0.  0.
          5    1    3    3  502    0  0.37632538316E+02 -0.31455718571E+02  0.95858066095E+01  0.50150077361E+02  0.41800000000E+01 0.  1.
         -5    1    3    3    0  502 -0.77443631764E+02  0.18730241773E+02 -0.19349693045E+02  0.82098849435E+02  0.41800000000E+01 0.  1.
        -11    1    1    2    0    0  0.49965518940E+02 -0.21352338208E+02  0.41630598042E+01  0.54495931012E+02  0.00000000000E+00 0.  1.
         11    1    1    2    0    0 -0.10154425493E+02  0.34077815006E+02  0.47117871761E+02  0.59029684667E+02  0.00000000000E+00 0. -1.
</event>
<event>
 7    1  0.2855090E-009  0.1224063E+03  0.7561462E-02  0.1239179E+00
         -1   -1    0    0    0  501 -0.00000000000E+00  0.00000000000E+00  0.47907722006E+02  0.47907722006E+02  0.00000000000E+00 0.  1.
          1   -1    0    0  501    0  0.00000000000E+00 -0.00000000000E+00 -0.49474060347E+03  0.49474060347E+03  0.00000000000E+00 0. -1.
         25    2    1    2    0    0  0.47024891488E+02 -0.81104177377E+02 -0.17839787271E+03  0.23719685543E+03  0.12508924507E+03 0.  0.
          5    1    3    3  502    0  0.28179455364E+02  0.40738699971E+01 -0.13799966032E+03  0.14096828285E+03  0.41800000000E+01 0.  1.
         -5    1    3    3    0  502  0.18845436125E+02 -0.85178047374E+02 -0.40398212396E+02  0.96228572587E+02  0.41800000000E+01 0.  1.
        -11    1    1    2    0    0 -0.55667195092E+02  0.93773946320E+01 -0.50110308892E+02  0.75483873753E+02  0.00000000000E+00 0.  1.
         11    1    1    2    0    0  0.86423036037E+01  0.71726782745E+02 -0.21832469986E+03  0.22996759629E+03  0.00000000000E+00 0. -1.
</event>
<event>
 7    1  0.2855090E-009  0.2549106E+03  0.7561462E-02  0.1110240E+00
         -3   -1    0    0    0  501 -0.00000000000E+00  0.00000000000E+00  0.53512564007E+03  0.53512564007E+03  0.00000000000E+00 0.  1.
          3   -1    0    0  501    0  0.00000000000E+00 -0.00000000000E+00 -0.12822843314E+03  0.12822843314E+03  0.00000000000E+00 0. -1.
         25    2    1    2    0    0  0.11912538632E+03  0.20668490002E+03  0.21878716017E+03  0.34702312975E+03  0.12509086924E+03 0.  0.
          5    1    3    3  502    0  0.12161827632E+03  0.22091707625E+03  0.21522936007E+03  0.33156674977E+03  0.41800000000E+01 0.  1.
         -5    1    3    3    0  502 -0.24928900039E+01 -0.14232176228E+02  0.35578000993E+01  0.15456379987E+02  0.41800000000E+01 0.  1.
        -11    1    1    2    0    0 -0.67136727629E+02 -0.15655561660E+03  0.84809828055E+02  0.19028848683E+03  0.00000000000E+00 0. -1.
         11    1    1    2    0    0 -0.51988658687E+02 -0.50129283421E+02  0.10330021870E+03  0.12604245662E+03  0.00000000000E+00 0.  1.
</event>
<event>
 7    1  0.2855090E-009  0.2610746E+03  0.7561462E-02  0.1106499E+00
          2   -1    0    0  501    0  0.00000000000E+00  0.00000000000E+00  0.23072838551E+04  0.23072838551E+04  0.00000000000E+00 0. -1.
         -2   -1    0    0    0  501 -0.00000000000E+00 -0.00000000000E+00 -0.34716641316E+02  0.34716641316E+02  0.00000000000E+00 0.  1.
         25    2    1    2    0    0 -0.23862058772E+03 -0.50738172537E+02  0.15558874788E+04  0.15798567280E+04  0.12508911662E+03 0.  0.
          5    1    3    3  502    0 -0.29382792431E+02 -0.45443736535E+02  0.17599427938E+03  0.18417366928E+03  0.41800000000E+01 0. -1.
         -5    1    3    3    0  502 -0.20923779529E+03 -0.52944360022E+01  0.13798931995E+04  0.13956830587E+04  0.41800000000E+01 0. -1.
        -11    1    1    2    0    0  0.30143581252E+02 -0.22439719258E+02  0.84960969051E+02  0.92900714492E+02  0.00000000000E+00 0.  1.
         11    1    1    2    0    0  0.20847700647E+03  0.73177891795E+02  0.63171876591E+03  0.66924305396E+03  0.00000000000E+00 0. -1.
</event>
<event>
 7    1  0.2855090E-009  0.1560050E+03  0.7561462E-02  0.1193282E+00
          2   -1    0    0  501    0  0.00000000000E+00  0.00000000000E+00  0.71634150294E+03  0.71634150294E+03  0.00000000000E+00 0. -1.
         -2   -1    0    0    0  501 -0.00000000000E+00 -0.00000000000E+00 -0.38196572939E+02  0.38196572939E+02  0.00000000000E+00 0.  1.
         25    2    1    2    0    0  0.12291833545E+03  0.32240721840E+01  0.31933793709E+03  0.36434024418E+03  0.12509110134E+03 0.  0.
          5    1    3    3  502    0 -0.70085118485E+01  0.39345755319E+02  0.82589712313E+02  0.91846288329E+02  0.41800000000E+01 0. -1.
         -5    1    3    3    0  502  0.12992684730E+03 -0.36121683135E+02  0.23674822478E+03  0.27249395585E+03  0.41800000000E+01 0. -1.
        -11    1    1    2    0    0 -0.40438837646E+02 -0.29821540142E+02  0.56015479283E+02  0.75248639629E+02  0.00000000000E+00 0.  1.
         11    1    1    2    0    0 -0.82479497803E+02  0.26597467958E+02  0.30279151362E+03  0.31494919206E+03  0.00000000000E+00 0. -1.
</event>
<event>
 7    1  0.2855090E-009  0.1011104E+03  0.7561462E-02  0.1277978E+00
         -2   -1    0    0    0  501 -0.00000000000E+00  0.00000000000E+00  0.10453702785E+03  0.10453702785E+03  0.00000000000E+00 0.  1.
          2   -1    0    0  501    0  0.00000000000E+00 -0.00000000000E+00 -0.12655738556E+03  0.12655738556E+03  0.00000000000E+00 0. -1.
         25    2    1    2    0    0 -0.21883034685E+02 -0.27359728652E+02 -0.31232666790E+02  0.13360439659E+03  0.12508890180E+03 0.  0.
          5    1    3    3  502    0  0.15097419779E+02 -0.69330977471E+02 -0.38496824587E+01  0.71182926156E+02  0.41800000000E+01 0. -1.
         -5    1    3    3    0  502 -0.36980454463E+02  0.41971248820E+02 -0.27382984331E+02  0.62421470430E+02  0.41800000000E+01 0. -1.
        -11    1    1    2    0    0  0.36789791041E+02  0.40827414158E+02 -0.22959499197E+02  0.59560935814E+02  0.00000000000E+00 0. -1.
         11    1    1    2    0    0 -0.14906756356E+02 -0.13467685506E+02  0.32171808283E+02  0.37929081009E+02  0.00000000000E+00 0.  1.
</event>
<event>
 7    1  0.2855090E-009  0.1828829E+03  0.7561462E-02  0.1165042E+00
         -1   -1    0    0    0  501 -0.00000000000E+00  0.00000000000E+00  0.28653333712E+02  0.28653333712E+02  0.00000000000E+00 0.  1.
          1   -1    0    0  501    0  0.00000000000E+00 -0.00000000000E+00 -0.19015318892E+04  0.19015318892E+04  0.00000000000E+00 0. -1.
         25    2    1    2    0    0 -0.11960355255E+03 -0.90563253447E+02 -0.15531570780E+04  0.15653909678E+04  0.12508101591E+03 0.  0.
          5    1    3    3  502    0 -0.11018389394E+02 -0.85717635071E+02 -0.67501165043E+03  0.68053443593E+03  0.41800000000E+01 0.  1.
         -5    1    3    3    0  502 -0.10858516315E+03 -0.48456183767E+01 -0.87814542757E+03  0.88485653189E+03  0.41800000000E+01 0.  1.
        -11    1    1    2    0    0  0.10775489609E+03  0.34464947382E+02 -0.16744417545E+03  0.20208043478E+03  0.00000000000E+00 0.  1.
         11    1    1    2    0    0  0.11848656457E+02  0.56098306065E+02 -0.15227730203E+03  0.16271382030E+03  0.00000000000E+00 0. -1.
</event>
<event>
 7    1  0.2855090E-009  0.1976728E+03  0.7561462E-02  0.1151717E+00
          1   -1    0    0  501    0  0.00000000000E+00  0.00000000000E+00  0.86648749964E+03  0.86648749964E+03  0.00000000000E+00 0. -1.
         -1   -1    0    0    0  501 -0.00000000000E+00 -0.00000000000E+00 -0.68964067325E+02  0.68964067325E+02  0.00000000000E+00 0.  1.
         25    2    1    2    0    0 -0.16486003847E+03  0.59162577737E+02  0.15972092954E+03  0.26802107627E+03  0.12508188958E+03 0.  0.
          5    1    3    3  502    0 -0.13321296151E+03  0.96470518925E+02  0.13614397063E+03  0.21355305494E+03  0.41800000000E+01 0. -1.
         -5    1    3    3    0  502 -0.31647076961E+02 -0.37307941188E+02  0.23576958907E+02  0.54468021326E+02  0.41800000000E+01 0. -1.
        -11    1    1    2    0    0  0.16272548803E+02 -0.24046985660E+02  0.34422542310E+02  0.45032929984E+02  0.00000000000E+00 0.  1.
         11    1    1    2    0    0  0.14858748966E+03 -0.35115592077E+02  0.60337996047E+03  0.62239756072E+03  0.00000000000E+00 0. -1.
</event>
<event>
 7    1  0.2855090E-009  0.1239834E+03  0.7561462E-02  0.1236667E+00
         -3   -1    0    0    0  501 -0.00000000000E+00  0.00000000000E+00  0.22286059892E+03  0.22286059892E+03  0.00000000000E+00 0.  1.
          3   -1    0    0  501    0  0.00000000000E+00 -0.00000000000E+00 -0.88153945225E+02  0.88153945225E+02  0.00000000000E+00 0. -1.
         25    2    1    2    0    0 -0.88193951547E+02 -0.87673560073E+01  0.69381112008E+02  0.16827163598E+03  0.12508623086E+03 0.  0.
          5    1    3    3  502    0 -0.91083187710E+02 -0.36058973518E+02  0.90467980108E+02  0.13341036121E+03  0.41800000000E+01 0.  1.
         -5    1    3    3    0  502  0.28892361625E+01  0.27291617511E+02 -0.21086868100E+02  0.34861274765E+02  0.41800000000E+01 0.  1.
        -11    1    1    2    0    0  0.41427586282E+02 -0.37856318458E+02  0.10898661662E+02  0.57167530805E+02  0.00000000000E+00 0. -1.
         11    1    1    2    0    0  0.46766365266E+02  0.46623674466E+02  0.54426880024E+02  0.85575377358E+02  0.00000000000E+00 0.  1.
</event>
<event>
 7    1  0.2855090E-009  0.4046402E+03  0.7561462E-02  0.1042185E+00
          2   -1    0    0  501    0  0.00000000000E+00  0.00000000000E+00  0.14504686976E+04  0.14504686976E+04  0.00000000000E+00 0. -1.
         -2   -1    0    0    0  501 -0.00000000000E+00 -0.00000000000E+00 -0.14798793014E+03  0.14798793014E+03  0.00000000000E+00 0.  1.
         25    2    1    2    0    0  0.84928052755E+02 -0.38767471554E+03  0.10229015869E+04  0.11043002093E+04  0.12508731577E+03 0.  0.
          5    1    3    3  502    0  0.99156950560E+02 -0.19209983564E+03  0.60985102093E+03  0.64704728407E+03  0.41800000000E+01 0.  1.
         -5    1    3    3    0  502 -0.14228897805E+02 -0.19557487990E+03  0.41305056594E+03  0.45725292520E+03  0.41800000000E+01 0.  1.
        -11    1    1    2    0    0 -0.75101688952E+02  0.33216625422E+03  0.19474670601E+03  0.39230213309E+03  0.00000000000E+00 0.  1.
         11    1    1    2    0    0 -0.98263638029E+01  0.55508461317E+02  0.84832474545E+02  0.10185428533E+03  0.00000000000E+00 0. -1.
</event>
<event>
 7    1  0.2855090E-009  0.2287097E+03  0.7561462E-02  0.1127551E+00
          1   -1    0    0  501    0  0.00000000000E+00  0.00000000000E+00  0.28300804113E+03  0.28300804113E+03  0.00000000000E+00 0. -1.
         -1   -1    0    0    0  501 -0.00000000000E+00 -0.00000000000E+00 -0.23272746556E+03  0.23272746556E+03  0.00000000000E+00 0.  1.
         25    2    1    2    0    0 -0.17458996351E+03  0.11744596969E+03  0.12279788590E+03  0.27386691296E+03  0.12509418085E+03 0.  0.
          5    1    3    3  502    0 -0.10046513002E+03  0.23970425608E+01  0.85352789235E+02  0.13191496956E+03  0.41800000000E+01 0.  1.
         -5    1    3    3    0  502 -0.74124833486E+02  0.11504892713E+03  0.37445096663E+02  0.14195194341E+03  0.41800000000E+01 0.  1.
        -11    1    1    2    0    0  0.48340072140E+02 -0.12870014614E+01 -0.48762138772E+02  0.68674341095E+02  0.00000000000E+00 0.  1.
         11    1    1    2    0    0  0.12624989137E+03 -0.11615896823E+03 -0.23755171554E+02  0.17319425263E+03  0.00000000000E+00 0. -1.
</event>
<event>
 7    1  0.2855090E-009  0.1060609E+03  0.7561462E-02  0.1268043E+00
          3   -1    0    0  501    0  0.00000000000E+00  0.00000000000E+00  0.22026234886E+03  0.22026234886E+03  0.00000000000E+00 0. -1.
         -3   -1    0    0    0  501 -0.00000000000E+00 -0.00000000000E+00 -0.75608370663E+02  0.75608370663E+02  0.00000000000E+00 0.  1.
         25    2    1    2    0    0  0.28521416704E+02  0.46648819101E+02  0.27768835013E+02  0.13931418569E+03  0.12509096930E+03 0.  0.
          5    1    3    3  502    0 -0.40391902546E+02  0.53236989645E+02  0.17490120786E+02  0.69203031601E+02  0.41800000000E+01 0. -1.
         -5    1    3    3    0  502  0.68913319250E+02 -0.65881705445E+01  0.10278714227E+02  0.70111154086E+02  0.41800000000E+01 0. -1.
        -11    1    1    2    0    0  0.26161031529E+01 -0.44525294900E+02  0.10683188427E+02  0.45863671862E+02  0.00000000000E+00 0.  1.
         11    1    1    2    0    0 -0.31137519857E+02 -0.21235242002E+01  0.10620195476E+03  0.11069286198E+03  0.00000000000E+00 0. -1.
</event>
<event>
 7    1  0.2855090E-009  0.1052714E+03  0.7561462E-02  0.1269586E+00
         -3   -1    0    0    0  501 -0.00000000000E+00  0.00000000000E+00  0.55246149048E+02  0.55246149048E+02  0.00000000000E+00 0.  1.
          3   -1    0    0  501    0  0.00000000000E+00 -0.00000000000E+00 -0.21233652738E+03  0.21233652738E+03  0.00000000000E+00 0. -1.
         25    2    1    2    0    0  0.68244827767E+02  0.13813765833E+01 -0.82643716380E+02  0.16473546415E+03  0.12509406290E+03 0.  0.
          5    1    3    3  502    0  0.89456067991E+02  0.37857407154E+02 -0.72098545708E+02  0.12104232347E+03  0.41800000000E+01 0.  1.
         -5    1    3    3    0  502 -0.21211240224E+02 -0.36476030571E+02 -0.10545170672E+02  0.43693140681E+02  0.41800000000E+01 0.  1.
        -11    1    1    2    0    0 -0.42211700748E+02 -0.10203192611E+02 -0.47361805076E+02  0.64257866441E+02  0.00000000000E+00 0. -1.
         11    1    1    2    0    0 -0.26033127019E+02  0.88218160279E+01 -0.27084856875E+02  0.38589345840E+02  0.00000000000E+00 0.  1.
</event>
<event>
 7    1  0.2855090E-009  0.9950075E+02  0.7561462E-02  0.1281349E+00
         -2   -1    0    0    0  501 -0.00000000000E+00  0.00000000000E+00  0.13135174667E+02  0.13135174667E+02  0.00000000000E+00 0.  1.
          2   -1    0    0  501    0  0.00000000000E+00 -0.00000000000E+00 -0.97881994505E+03  0.97881994505E+03  0.00000000000E+00 0. -1.
         25    2    1    2    0    0  0.83736992223E+01  0.32295203976E+02 -0.62091914580E+03  0.63427185141E+03  0.12508835610E+03 0.  0.
          5    1    3    3  502    0 -0.29646014755E+02  0.54667144107E+02 -0.16798525703E+03  0.17917561725E+03  0.41800000000E+01 0.  1.
         -5    1    3    3    0  502  0.38019713977E+02 -0.22371940131E+02 -0.45293388877E+03  0.45509623417E+03  0.41800000000E+01 0.  1.
        -11    1    1    2    0    0  0.34446348891E+02  0.59408315809E+01 -0.90459857931E+02  0.96978504467E+02  0.00000000000E+00 0. -1.
         11    1    1    2    0    0 -0.42820048113E+02 -0.38236035557E+02 -0.25430576665E+03  0.26070476384E+03  0.00000000000E+00 0.  1.
</event>
<event>
 7    1  0.2855090E-009  0.2581483E+03  0.7561462E-02  0.1108261E+00
         -3   -1    0    0    0  501 -0.00000000000E+00  0.00000000000E+00  0.26106890262E+03  0.26106890262E+03  0.00000000000E+00 0.  1.
          3   -1    0    0  501    0  0.00000000000E+00 -0.00000000000E+00 -0.39203431387E+03  0.39203431387E+03  0.00000000000E+00 0. -1.
         25    2    1    2    0    0  0.23819833710E+03 -0.80415530531E+02 -0.23479071338E+03  0.36603246968E+03  0.12509190391E+03 0.  0.
          5    1    3    3  502    0  0.30579731911E+02 -0.38534674407E+02 -0.10899559356E+03  0.11965597750E+03  0.41800000000E+01 0.  1.
         -5    1    3    3    0  502  0.20761860519E+03 -0.41880856124E+02 -0.12579511982E+03  0.24637649219E+03  0.41800000000E+01 0.  1.
        -11    1    1    2    0    0 -0.19329823132E+03  0.46496389564E+02  0.11503433128E+03  0.22969331258E+03  0.00000000000E+00 0.  1.
         11    1    1    2    0    0 -0.44900105786E+02  0.33919140967E+02 -0.11209029157E+02  0.57377434225E+02  0.00000000000E+00 0. -1.
</event>
<event>
 7    1  0.2855090E-009  0.1388281E+03  0.7561462E-02  0.1214915E+00
         -1   -1    0    0    0  501 -0.00000000000E+00  0.00000000000E+00  0.38601140703E+03  0.38601140703E+03  0.00000000000E+00 0.  1.
          1   -1    0    0  501    0  0.00000000000E+00 -0.00000000000E+00 -0.55686559732E+02  0.55686559732E+02  0.00000000000E+00 0. -1.
         25    2    1    2    0    0 -0.16053767996E+02 -0.95439748588E+02  0.15847560575E+03  0.22389521727E+03  0.12509229241E+03 0.  0.
          5    1    3    3  502    0  0.49953339745E+02 -0.33736256623E+02  0.97856817153E+02  0.11500826156E+03  0.41800000000E+01 0.  1.
         -5    1    3    3    0  502 -0.66007107741E+02 -0.61703491965E+02  0.60618788596E+02  0.10888695571E+03  0.41800000000E+01 0.  1.
        -11    1    1    2    0    0  0.29587968349E+02  0.10572132265E+03  0.16747776428E+03  0.20025295868E+03  0.00000000000E+00 0. -1.
         11    1    1    2    0    0 -0.13534200353E+02 -0.10281574058E+02  0.43714772772E+01  0.17549790822E+02  0.00000000000E+00 0.  1.
</event>
<event>
 7    1  0.2855090E-009  0.1403097E+03  0.7561462E-02  0.1212913E+00
          1   -1    0    0  501    0  0.00000000000E+00  0.00000000000E+00  0.44832700864E+03  0.44832700864E+03  0.00000000000E+00 0. -1.
         -1   -1    0    0    0  501 -0.00000000000E+00 -0.00000000000E+00 -0.52625377383E+02  0.52625377383E+02  0.00000000000E+00 0.  1.
         25    2    1    2    0    0 -0.74697316097E+02 -0.73800759634E+02  0.25934382418E+03  0.30648632014E+03  0.12509358151E+03 0.  0.
          5    1    3    3  502    0  0.28851516848E+02 -0.60466065344E+01  0.16848409442E+02  0.34209834489E+02  0.41800000000E+01 0. -1.
         -5    1    3    3    0  502 -0.10354883295E+03 -0.67754153100E+02  0.24249541474E+03  0.27227648565E+03  0.41800000000E+01 0. -1.
        -11    1    1    2    0    0  0.75484051394E+02  0.26917055522E+02  0.45331660311E+02  0.92072413455E+02  0.00000000000E+00 0.  1.
         11    1    1    2    0    0 -0.78673529727E+00  0.46883704112E+02  0.91026146766E+02  0.10239365243E+03  0.00000000000E+00 0. -1.
</event>
<event>
 7    1  0.2855090E-009  0.1537896E+03  0.7561462E-02  0.1195892E+00
          4   -1    0    0  501    0  0.00000000000E+00  0.00000000000E+00  0.68479594994E+02  0.68479594994E+02  0.00000000000E+00 0.  1.
         -4   -1    0    0    0  501 -0.00000000000E+00 -0.00000000000E+00 -0.44400940511E+03  0.44400940511E+03  0.00000000000E+00 0. -1.
         25    2    1    2    0    0  0.12379432527E+03  0.26526702871E+02 -0.12468976165E+03  0.21730994793E+03  0.12508947148E+03 0.  0.
          5    1    3    3  502    0  0.13552190641E+03  0.44334483156E+02 -0.13203147833E+03  0.19437468247E+03  0.41800000000E+01 0. -1.
         -5    1    3    3    0  502 -0.11727581145E+02 -0.17807780285E+02  0.73417166750E+01  0.22935265464E+02  0.41800000000E+01 0. -1.
        -11    1    1    2    0    0 -0.10430379954E+03  0.68723169099E+01 -0.12197783147E+03  0.16063966729E+03  0.00000000000E+00 0.  1.
         11    1    1    2    0    0 -0.19490525732E+02 -0.33399019781E+02 -0.12886221700E+03  0.13453938488E+03  0.00000000000E+00 0. -1.
</event>
<event>
 7    1  0.2855090E-009  0.1136317E+03  0.7561462E-02  0.1253989E+00
         -2   -1    0    0    0  501 -0.00000000000E+00  0.00000000000E+00  0.51538974339E+02  0.51538974339E+02  0.00000000000E+00 0.  1.
          2   -1    0    0  501    0  0.00000000000E+00 -0.00000000000E+00 -0.30016171054E+03  0.30016171054E+03  0.00000000000E+00 0. -1.
         25    2    1    2    0    0 -0.23596406965E+02 -0.43531220870E+02 -0.19415044875E+03  0.23620428396E+03  0.12508520855E+03 0.  0.
          5    1    3    3  502    0  0.43674479168E+02  0.13740809022E+02 -0.70905438624E+02  0.84506352363E+02  0.41800000000E+01 0.  1.
         -5    1    3    3    0  502 -0.67270886133E+02 -0.57272029892E+02 -0.12324501013E+03  0.15169793159E+03  0.41800000000E+01 0.  1.
        -11    1    1    2    0    0 -0.24405171939E+02  0.37103892539E+02 -0.49977157424E+02  0.66858264434E+02  0.00000000000E+00 0. -1.
         11    1    1    2    0    0  0.48001578905E+02  0.64273283311E+01 -0.44951300249E+01  0.48638136485E+02  0.00000000000E+00 0.  1.
</event>
<event>
 7    1  0.2855090E-009  0.9894740E+02  0.7561462E-02  0.1282525E+00
         -2   -1    0    0    0  501 -0.00000000000E+00  0.00000000000E+00  0.14649293653E+03  0.14649293653E+03  0.00000000000E+00 0.  1.
          2   -1    0    0  501    0  0.00000000000E+00 -0.00000000000E+00 -0.85591442683E+02  0.85591442683E+02  0.00000000000E+00 0. -1.
         25    2    1    2    0    0  0.34417276402E+02  0.11961265619E+02  0.33888666082E+02  0.13463443777E+03  0.12510143626E+03 0.  0.
          5    1    3    3  502    0  0.41556476028E+02 -0.36283371755E+02  0.57926129415E+02  0.80102013925E+02  0.41800000000E+01 0. -1.
         -5    1    3    3    0  502 -0.71391996263E+01  0.48244637374E+02 -0.24037463332E+02  0.54532423842E+02  0.41800000000E+01 0. -1.
        -11    1    1    2    0    0  0.28949979616E+02  0.88863650106E+00  0.76818070767E+01  0.29964998825E+02  0.00000000000E+00 0. -1.
         11    1    1    2    0    0 -0.63367256018E+02 -0.12849902120E+02  0.19331020687E+02  0.67484942621E+02  0.00000000000E+00 0.  1.
</event>
<event>
 7    1  0.2855090E-009  0.1105891E+03  0.7561462E-02  0.1259483E+00
          2   -1    0    0  501    0  0.00000000000E+00  0.00000000000E+00  0.59162968846E+03  0.59162968846E+03  0.00000000000E+00 0. -1.
         -2   -1    0    0    0  501 -0.00000000000E+00 -0.00000000000E+00 -0.24659775359E+02  0.24659775359E+02  0.00000000000E+00 0.  1.
         25    2    1    2    0    0  0.40019645203E+02  0.33264477390E+02  0.34056172089E+03  0.36652407663E+03  0.12509802380E+03 0.  0.
          5    1    3    3  502    0 -0.37381522233E+02  0.24489043619E+02  0.20734632721E+03  0.21214868199E+03  0.41800000000E+01 0. -1.
         -5    1    3    3    0  502  0.77401167435E+02  0.87754337718E+01  0.13321539368E+03  0.15437539464E+03  0.41800000000E+01 0. -1.
        -11    1    1    2    0    0 -0.35301373769E+02 -0.60823280004E+02  0.19705074767E+03  0.20922393634E+03  0.00000000000E+00 0. -1.
         11    1    1    2    0    0 -0.47182714337E+01  0.27558802614E+02  0.29357444550E+02  0.40541450854E+02  0.00000000000E+00 0.  1.
</event>
<event>
 7    1  0.2855090E-009  0.1557633E+03  0.7561462E-02  0.1193565E+00
         -2   -1    0    0    0  501 -0.00000000000E+00  0.00000000000E+00  0.39391960534E+02  0.39391960534E+02  0.00000000000E+00 0. -1.
          2   -1    0    0  501    0  0.00000000000E+00 -0.00000000000E+00 -0.69221974267E+03  0.69221974267E+03  0.00000000000E+00 0.  1.
         25    2    1    2    0    0  0.11467409624E+03  0.15175919056E+02 -0.25113718303E+03  0.30347685784E+03  0.12509141327E+03 0.  0.
          5    1    3    3  502    0  0.13472844503E+03 -0.12018523342E+02 -0.18655954678E+03  0.23047372019E+03  0.41800000000E+01 0.  1.
         -5    1    3    3    0  502 -0.20054348787E+02  0.27194442398E+02 -0.64577636254E+02  0.73003137650E+02  0.41800000000E+01 0.  1.
        -11    1    1    2    0    0 -0.10960255539E+03  0.15824640621E+02 -0.25318951130E+03  0.27634773028E+03  0.00000000000E+00 0.  1.
         11    1    1    2    0    0 -0.50715408485E+01 -0.31000559677E+02 -0.14850108781E+03  0.15178711509E+03  0.00000000000E+00 0. -1.
</event>
<event>
 7    1  0.2855090E-009  0.1082680E+03  0.7561462E-02  0.1263811E+00
          1   -1    0    0  501    0  0.00000000000E+00  0.00000000000E+00  0.46437479078E+03  0.46437479078E+03  0.00000000000E+00 0. -1.
         -1   -1    0    0    0  501 -0.00000000000E+00 -0.00000000000E+00 -0.59533172809E+02  0.59533172809E+02  0.00000000000E+00 0.  1.
         25    2    1    2    0    0  0.25068082307E+02 -0.33058272392E+02  0.40235364733E+03  0.42338801398E+03  0.12509074601E+03 0.  0.
          5    1    3    3  502    0  0.72338630135E+02 -0.21734845466E+02  0.17162408621E+03  0.18755687213E+03  0.41800000000E+01 0.  1.
         -5    1    3    3    0  502 -0.47270547828E+02 -0.11323426926E+02  0.23072956112E+03  0.23583114185E+03  0.41800000000E+01 0.  1.
        -11    1    1    2    0    0 -0.25369939509E+02 -0.24069604147E+02 -0.18616629255E+02  0.39617654642E+02  0.00000000000E+00 0.  1.
         11    1    1    2    0    0  0.30185720214E+00  0.57127876539E+02  0.21104599896E+02  0.60902294968E+02  0.00000000000E+00 0. -1.
</event>
<event>
 7    1  0.2855090E-009  0.9580270E+02  0.7561462E-02  0.1289378E+00
         -2   -1    0    0    0  501 -0.00000000000E+00  0.00000000000E+00  0.13853596018E+03  0.13853596018E+03  0.00000000000E+00 0.  1.
          2   -1    0    0  501    0  0.00000000000E+00 -0.00000000000E+00 -0.13052236434E+03  0.13052236434E+03  0.00000000000E+00 0. -1.
         25    2    1    2    0    0 -0.47206895592E+02  0.63862668890E+02 -0.75213339326E+00  0.14818898034E+03  0.12510985860E+03 0.  0.
          5    1    3    3  502    0 -0.43936410464E+02  0.28303410979E+02  0.58703065139E+02  0.78708408027E+02  0.41800000000E+01 0. -1.
         -5    1    3    3    0  502 -0.32704851275E+01  0.35559257911E+02 -0.59455198532E+02  0.69480572311E+02  0.41800000000E+01 0. -1.
        -11    1    1    2    0    0 -0.50267971469E+01 -0.48522232786E+02 -0.26977241667E+02  0.55744482526E+02  0.00000000000E+00 0. -1.
         11    1    1    2    0    0  0.52233692739E+02 -0.15340436104E+02  0.35742970905E+02  0.65124861659E+02  0.00000000000E+00 0.  1.
</event>
<event>
 7    1  0.2855090E-009  0.1946054E+03  0.7561462E-02  0.1154372E+00
          1   -1    0    0  501    0  0.00000000000E+00  0.00000000000E+00  0.86352789407E+03  0.86352789407E+03  0.00000000000E+00 0. -1.
         -1   -1    0    0    0  501 -0.00000000000E+00 -0.00000000000E+00 -0.61773121172E+02  0.61773121172E+02  0.00000000000E+00 0.  1.
         25    2    1    2    0    0 -0.63335591163E+01  0.16127252532E+03  0.66300477985E+03  0.69373835843E+03  0.12509448609E+03 0.  0.
          5    1    3    3  502    0 -0.32201413267E+02 -0.73075006039E+01  0.12309527459E+03  0.12751568377E+03  0.41800000000E+01 0.  1.
         -5    1    3    3    0  502  0.25867854151E+02  0.16858002593E+03  0.53990950526E+03  0.56622267465E+03  0.41800000000E+01 0.  1.
        -11    1    1    2    0    0 -0.41403150081E+02 -0.55186437284E+02  0.54697690426E+02  0.88043177104E+02  0.00000000000E+00 0. -1.
         11    1    1    2    0    0  0.47736709197E+02 -0.10608608804E+03  0.84052302616E+02  0.14351947971E+03  0.00000000000E+00 0.  1.
</event>
<event>
 7    1  0.2855090E-009  0.1858356E+03  0.7561462E-02  0.1162272E+00
         -1   -1    0    0    0  501 -0.00000000000E+00  0.00000000000E+00  0.25262924662E+03  0.25262924662E+03  0.00000000000E+00 0. -1.
          1   -1    0    0  501    0  0.00000000000E+00 -0.00000000000E+00 -0.25539801380E+03  0.25539801380E+03  0.00000000000E+00 0.  1.
         25    2    1    2    0    0 -0.12286257264E+03  0.10136940740E+03 -0.16649207333E+03  0.26217909990E+03  0.12508917392E+03 0.  0.
          5    1    3    3  502    0 -0.14046439817E+03  0.85005302274E+02 -0.10225875642E+03  0.19346956927E+03  0.41800000000E+01 0.  1.
         -5    1    3    3    0  502  0.17601825535E+02  0.16364105127E+02 -0.64233316910E+02  0.68709530635E+02  0.41800000000E+01 0.  1.
        -11    1    1    2    0    0  0.12073880493E+02 -0.65479682297E+02  0.67060299832E+02  0.94501064531E+02  0.00000000000E+00 0.  1.
         11    1    1    2    0    0  0.11078869214E+03 -0.35889725104E+02  0.96663006313E+02  0.15134709599E+03  0.00000000000E+00 0. -1.
</event>
<event>
 7    1  0.2855090E-009  0.1821734E+03  0.7561462E-02  0.1165716E+00
         -2   -1    0    0    0  501 -0.00000000000E+00  0.00000000000E+00  0.71582703463E+02  0.71582703463E+02  0.00000000000E+00 0.  1.
          2   -1    0    0  501    0  0.00000000000E+00 -0.00000000000E+00 -0.55468176134E+03  0.55468176134E+03  0.00000000000E+00 0. -1.
         25    2    1    2    0    0  0.12771660583E+03  0.91229541210E+02 -0.34134313305E+03  0.39598052419E+03  0.12510427837E+03 0.  0.
          5    1    3    3  502    0  0.90102515096E+02 -0.46709412994E+01 -0.21298401494E+03  0.23134377869E+03  0.41800000000E+01 0.  1.
         -5    1    3    3    0  502  0.37614090735E+02  0.95900482510E+02 -0.12835911811E+03  0.16463674550E+03  0.41800000000E+01 0.  1.
        -11    1    1    2    0    0 -0.45713158041E+02  0.32455017004E+01 -0.76525363802E+02  0.89198415930E+02  0.00000000000E+00 0.  1.
         11    1    1    2    0    0 -0.82003447790E+02 -0.94475042911E+02 -0.65230561024E+02  0.14108552468E+03  0.00000000000E+00 0. -1.
</event>
<event>
 7    1  0.2855090E-009  0.1269902E+03  0.7561462E-02  0.1231991E+00
          2   -1    0    0  501    0  0.00000000000E+00  0.00000000000E+00  0.24174526206E+02  0.24174526206E+02  0.00000000000E+00 0. -1.
         -2   -1    0    0    0  501 -0.00000000000E+00 -0.00000000000E+00 -0.10344215193E+04  0.10344215193E+04  0.00000000000E+00 0.  1.
         25    2    1    2    0    0 -0.17026423822E+02  0.11334066142E+03 -0.52250224685E+03  0.54935585724E+03  0.12508898944E+03 0.  0.
          5    1    3    3  502    0 -0.20423434395E-02 -0.33941787738E+01  0.58656455352E+01  0.79623270006E+01  0.41800000000E+01 0.  1.
         -5    1    3    3    0  502 -0.17024381478E+02  0.11673484020E+03 -0.52836789239E+03  0.54139353024E+03  0.41800000000E+01 0.  1.
        -11    1    1    2    0    0 -0.21268874194E+02 -0.67759836199E+02 -0.37578103811E+03  0.38243319549E+03  0.00000000000E+00 0.  1.
         11    1    1    2    0    0  0.38295298016E+02 -0.45580825225E+02 -0.11196370817E+03  0.12680699281E+03  0.00000000000E+00 0. -1.
</event>
<event>
 7    1  0.2855090E-009  0.1921337E+03  0.7561462E-02  0.1156551E+00
         -1   -1    0    0    0  501 -0.00000000000E+00  0.00000000000E+00  0.48292614412E+03  0.48292614412E+03  0.00000000000E+00 0.  1.
          1   -1    0    0  501    0  0.00000000000E+00 -0.00000000000E+00 -0.96909726719E+02  0.96909726719E+02  0.00000000000E+00 0. -1.
         25    2    1    2    0    0  0.16231454291E+02 -0.18249304491E+03  0.25016074860E+03  0.33435791704E+03  0.12509054720E+03 0.  0.
          5    1    3    3  502    0  0.40192183023E+02 -0.41486565594E+02  0.16246690753E+02  0.60149597350E+02  0.41800000000E+01 0. -1.
         -5    1    3    3    0  502 -0.23960728732E+02 -0.14100647932E+03  0.23391405784E+03  0.27420831969E+03  0.41800000000E+01 0. -1.
        -11    1    1    2    0    0 -0.33341121439E+00  0.18478878695E+02  0.62372242716E+02  0.65052876818E+02  0.00000000000E+00 0.  1.
         11    1    1    2    0    0 -0.15898043076E+02  0.16401416622E+03  0.73483426090E+02  0.18042507698E+03  0.00000000000E+00 0. -1.
</event>
<event>
 7    1  0.2855090E-009  0.1416992E+03  0.7561462E-02  0.1211061E+00
          1   -1    0    0  501    0  0.00000000000E+00  0.00000000000E+00  0.70610843112E+03  0.70610843112E+03  0.00000000000E+00 0. -1.
         -1   -1    0    0    0  501 -0.00000000000E+00 -0.00000000000E+00 -0.67115789433E+02  0.67115789433E+02  0.00000000000E+00 0.  1.
         25    2    1    2    0    0  0.52130250075E+02  0.11449443328E+03  0.82880930626E+02  0.19581439716E+03  0.12508993264E+03 0.  0.
          5    1    3    3  502    0 -0.26582599256E+02  0.44253715532E+02 -0.12776934409E+02  0.53345556277E+02  0.41800000000E+01 0.  1.
         -5    1    3    3    0  502  0.78712849331E+02  0.70240717744E+02  0.95657865035E+02  0.14246884088E+03  0.41800000000E+01 0.  1.
        -11    1    1    2    0    0 -0.15004195894E+02 -0.25312008345E+02  0.28281441520E+02  0.40812542133E+02  0.00000000000E+00 0.  1.
         11    1    1    2    0    0 -0.37126054182E+02 -0.89182424930E+02  0.52783026954E+03  0.53659728126E+03  0.00000000000E+00 0. -1.
</event>
<event>
 7    1  0.2855090E-009  0.2271779E+03  0.7561462E-02  0.1128642E+00
          1   -1    0    0  501    0  0.00000000000E+00  0.00000000000E+00  0.26157588422E+03  0.26157588422E+03  0.00000000000E+00 0. -1.
         -1   -1    0    0    0  501 -0.00000000000E+00 -0.00000000000E+00 -0.20020848971E+03  0.20020848971E+03  0.00000000000E+00 0.  1.
         25    2    1    2    0    0 -0.19473647771E+03  0.48060240792E+02  0.41572143630E+02  0.24002177067E+03  0.12510045872E+03 0.  0.
          5    1    3    3  502    0 -0.13645900024E+03  0.89216857055E+02  0.15013910216E+02  0.16377910804E+03  0.41800000000E+01 0. -1.
         -5    1    3    3    0  502 -0.58277477469E+02 -0.41156616263E+02  0.26558233413E+02  0.76242662627E+02  0.41800000000E+01 0. -1.
        -11    1    1    2    0    0  0.94527465752E+02 -0.69493271054E+02  0.21479379463E+02  0.11927330064E+03  0.00000000000E+00 0. -1.
         11    1    1    2    0    0  0.10020901196E+03  0.21433030262E+02 -0.16841285833E+01  0.10248930263E+03  0.00000000000E+00 0.  1.
</event>
<event>
 7    1  0.2855090E-009  0.1777955E+03  0.7561462E-02  0.1169954E+00
          1   -1    0    0  501    0  0.00000000000E+00  0.00000000000E+00  0.12615073216E+04  0.12615073216E+04  0.00000000000E+00 0. -1.
         -1   -1    0    0    0  501 -0.00000000000E+00 -0.00000000000E+00 -0.34749776675E+02  0.34749776675E+02  0.00000000000E+00 0.  1.
         25    2    1    2    0    0 -0.10104829656E+03 -0.13445818409E+03  0.44982700484E+03  0.49626738229E+03  0.12508884416E+03 0.  0.
          5    1    3    3  502    0 -0.27418930241E+02 -0.84667530387E+02  0.35590530147E+03  0.36688750926E+03  0.41800000000E+01 0.  1.
         -5    1    3    3    0  502 -0.73629366318E+02 -0.49790653698E+02  0.93921703373E+02  0.12937987303E+03  0.41800000000E+01 0.  1.
        -11    1    1    2    0    0  0.87706846759E+02  0.13817839663E+03  0.76296267373E+03  0.78031903845E+03  0.00000000000E+00 0. -1.
         11    1    1    2    0    0  0.13341449800E+02 -0.37202125405E+01  0.13967866333E+02  0.19670677518E+02  0.00000000000E+00 0.  1.
</event>
<event>
 7    1  0.2855090E-009  0.1016244E+03  0.7561462E-02  0.1276917E+00
         -3   -1    0    0    0  501 -0.00000000000E+00  0.00000000000E+00  0.59897485908E+02  0.59897485908E+02  0.00000000000E+00 0.  1.
          3   -1    0    0  501    0  0.00000000000E+00 -0.00000000000E+00 -0.19452881840E+03  0.19452881840E+03  0.00000000000E+00 0. -1.
         25    2    1    2    0    0  0.86633993137E+01 -0.37597686434E+02 -0.56017515366E+02  0.14239750124E+03  0.12510174187E+03 0.  0.
          5    1    3    3  502    0 -0.28461075341E+02  0.36560433318E+02 -0.10452025244E+02  0.47680345276E+02  0.41800000000E+01 0.  1.
         -5    1    3    3    0  502  0.37124474654E+02 -0.74158119752E+02 -0.45565490122E+02  0.94717155962E+02  0.41800000000E+01 0.  1.
        -11    1    1    2    0    0 -0.23261607699E+02 -0.89378835249E+01 -0.48994438608E+02  0.54967655664E+02  0.00000000000E+00 0. -1.
         11    1    1    2    0    0  0.14598208385E+02  0.46535569959E+02 -0.29619378517E+02  0.57061147405E+02  0.00000000000E+00 0.  1.
</event>
<event>
 7    1  0.2855090E-009  0.9793303E+02  0.7561462E-02  0.1284704E+00
          1   -1    0    0  501    0  0.00000000000E+00  0.00000000000E+00  0.55123205011E+02  0.55123205011E+02  0.00000000000E+00 0. -1.
         -1   -1    0    0    0  501 -0.00000000000E+00 -0.00000000000E+00 -0.27904645580E+03  0.27904645580E+03  0.00000000000E+00 0.  1.
         25    2    1    2    0    0 -0.35089404336E+02  0.43584272402E+01 -0.18695525949E+03  0.22770829674E+03  0.12509411326E+03 0.  0.
          5    1    3    3  502    0 -0.13429538533E+02 -0.43290871127E+02 -0.15017730229E+02  0.47931791635E+02  0.41800000000E+01 0. -1.
         -5    1    3    3    0  502 -0.21659865802E+02  0.47649298367E+02 -0.17193752926E+03  0.17977650511E+03  0.41800000000E+01 0. -1.
        -11    1    1    2    0    0  0.26170235655E+02  0.42624752410E+02 -0.82913176164E+01  0.50700066076E+02  0.00000000000E+00 0. -1.
         11    1    1    2    0    0  0.89191686802E+01 -0.46983179650E+02 -0.28676673682E+02  0.55761297989E+02  0.00000000000E+00 0.  1.
</event>
<event>
 7    1  0.2855090E-009  0.1175190E+03  0.7561462E-02  0.1247247E+00
         -1   -1    0    0    0  501 -0.00000000000E+00  0.00000000000E+00  0.18120424123E+02  0.18120424123E+02  0.00000000000E+00 0.  1.
          1   -1    0    0  501    0  0.00000000000E+00 -0.00000000000E+00 -0.10555368864E+04  0.10555368864E+04  0.00000000000E+00 0. -1.
         25    2    1    2    0    0  0.74049518496E+02  0.35176086763E+02 -0.56439294184E+03  0.58387267599E+03  0.12508885122E+03 0.  0.
          5    1    3    3  502    0 -0.63749340647E+00 -0.29910790252E+02 -0.29967185037E+03  0.30119055774E+03  0.41800000000E+01 0. -1.
         -5    1    3    3    0  502  0.74687011902E+02  0.65086877015E+02 -0.26472109148E+03  0.28268211825E+03  0.41800000000E+01 0. -1.
        -11    1    1    2    0    0 -0.85310984227E+02 -0.38969992585E+02 -0.46725504982E+03  0.47657518393E+03  0.00000000000E+00 0. -1.
         11    1    1    2    0    0  0.11261465732E+02  0.37939058215E+01 -0.57684706000E+01  0.13209450589E+02  0.00000000000E+00 0.  1.
</event>
<event>
 7    1  0.2855090E-009  0.1208726E+03  0.7561462E-02  0.1241664E+00
         -3   -1    0    0    0  501 -0.00000000000E+00  0.00000000000E+00  0.78919974185E+02  0.78919974185E+02  0.00000000000E+00 0.  1.
          3   -1    0    0  501    0  0.00000000000E+00 -0.00000000000E+00 -0.25854314109E+03  0.25854314109E+03  0.00000000000E+00 0. -1.
         25    2    1    2    0    0 -0.71558067429E+02 -0.27353448924E+02 -0.15784956370E+03  0.21548298226E+03  0.12509061797E+03 0.  0.
          5    1    3    3  502    0 -0.10223431329E+03 -0.79857174424E+01 -0.14309907991E+03  0.17609782954E+03  0.41800000000E+01 0. -1.
         -5    1    3    3    0  502  0.30676245863E+02 -0.19367731482E+02 -0.14750483785E+02  0.39385152721E+02  0.41800000000E+01 0. -1.
        -11    1    1    2    0    0  0.87796457017E+00 -0.18385889325E+02 -0.32258814520E+02  0.37140851663E+02  0.00000000000E+00 0. -1.
         11    1    1    2    0    0  0.70680102859E+02  0.45739338249E+02  0.10485211312E+02  0.84839281349E+02  0.00000000000E+00 0.  1.
</event>
<event>
 7    1  0.2855090E-009  0.1293268E+03  0.7561462E-02  0.1228458E+00
         -2   -1    0    0    0  501 -0.00000000000E+00  0.00000000000E+00  0.24796562407E+02  0.24796562407E+02  0.00000000000E+00 0.  1.
          2   -1    0    0  501    0  0.00000000000E+00 -0.00000000000E+00 -0.75999323051E+03  0.75999323051E+03  0.00000000000E+00 0. -1.
         25    2    1    2    0    0 -0.46434125448E+02 -0.56232608671E+02 -0.51245768346E+03  0.53252089281E+03  0.12508952655E+03 0.  0.
          5    1    3    3  502    0 -0.96660009498E+01 -0.89751045956E+02 -0.26232184491E+03  0.27745072453E+03  0.41800000000E+01 0. -1.
         -5    1    3    3    0  502 -0.36768124498E+02  0.33518437285E+02 -0.25013583856E+03  0.25507016828E+03  0.41800000000E+01 0. -1.
        -11    1    1    2    0    0  0.23429649712E+01  0.71620768271E+02 -0.13927035191E+03  0.15662456658E+03  0.00000000000E+00 0.  1.
         11    1    1    2    0    0  0.44091160477E+02 -0.15388159600E+02 -0.83468632720E+02  0.95644333529E+02  0.00000000000E+00 0. -1.
</event>
<event>
 7    1  0.2855090E-009  0.2610153E+03  0.7561462E-02  0.1106535E+00
          2   -1    0    0  501    0  0.00000000000E+00  0.00000000000E+00  0.88589528159E+03  0.88589528159E+03  0.00000000000E+00 0. -1.
         -2   -1    0    0    0  501 -0.00000000000E+00 -0.00000000000E+00 -0.93404451206E+02  0.93404451206E+02  0.00000000000E+00 0.  1.
         25    2    1    2    0    0  0.15560764904E+03  0.20251101223E+03  0.53069047501E+03  0.60207548814E+03  0.12505223965E+03 0.  0.
          5    1    3    3  502    0  0.95261460061E+02  0.17570668660E+03  0.28839246892E+03  0.35090636075E+03  0.41800000000E+01 0. -1.
         -5    1    3    3    0  502  0.60346188976E+02  0.26804325631E+02  0.24229800609E+03  0.25116912739E+03  0.41800000000E+01 0. -1.
        -11    1    1    2    0    0 -0.10275630335E+03 -0.12019024772E+03  0.21978226158E+03  0.27075597137E+03  0.00000000000E+00 0. -1.
         11    1    1    2    0    0 -0.52851345688E+02 -0.82320764509E+02  0.42018093791E+02  0.10646827328E+03  0.00000000000E+00 0.  1.
</event>
<event>
 7    1  0.2855090E-009  0.5977414E+02  0.7561462E-02  0.1398782E+00
          1   -1    0    0  501    0  0.00000000000E+00  0.00000000000E+00  0.76565201815E+03  0.76565201815E+03  0.00000000000E+00 0. -1.
         -1   -1    0    0    0  501 -0.00000000000E+00 -0.00000000000E+00 -0.61200782033E+02  0.61200782033E+02  0.00000000000E+00 0.  1.
         25    2    1    2    0    0 -0.68830981076E+01 -0.11978771919E+02  0.72619155470E+03  0.73701756835E+03  0.12509937618E+03 0.  0.
          5    1    3    3  502    0 -0.19263712996E+02  0.58536476078E-01  0.13018023952E+02  0.23622773176E+02  0.41800000000E+01 0. -1.
         -5    1    3    3    0  502  0.12380614889E+02 -0.12037308395E+02  0.71317353075E+03  0.71339479518E+03  0.41800000000E+01 0. -1.
        -11    1    1    2    0    0  0.39768053024E+02 -0.11807456644E+02 -0.26107046333E+02  0.49015221533E+02  0.00000000000E+00 0.  1.
         11    1    1    2    0    0 -0.32884954916E+02  0.23786228563E+02  0.43667277417E+01  0.40820010292E+02  0.00000000000E+00 0. -1.
</event>
<event>
 7    1  0.2855090E-009  0.9529419E+02  0.7561462E-02  0.1290515E+00
          2   -1    0    0  501    0  0.00000000000E+00  0.00000000000E+00  0.46293479506E+03  0.46293479506E+03  0.00000000000E+00 0. -1.
         -2   -1    0    0    0  501 -0.00000000000E+00 -0.00000000000E+00 -0.37432987016E+02  0.37432987016E+02  0.00000000000E+00 0.  1.
         25    2    1    2    0    0  0.49242761461E+02  0.42330265678E+02  0.16709521078E+03  0.21859875857E+03  0.12509159378E+03 0.  0.
          5    1    3    3  502    0  0.65527923546E+02  0.26373142555E+02  0.25647514443E+02  0.75264326274E+02  0.41800000000E+01 0.  1.
         -5    1    3    3    0  502 -0.16285162085E+02  0.15957123124E+02  0.14144769634E+03  0.14333443230E+03  0.41800000000E+01 0.  1.
        -11    1    1    2    0    0  0.63241200980E+01 -0.40563873221E+02  0.18602243096E+03  0.19049873261E+03  0.00000000000E+00 0. -1.
         11    1    1    2    0    0 -0.55566881559E+02 -0.17663924568E+01  0.72384166299E+02  0.91270290891E+02  0.00000000000E+00 0.  1.
</event>
<event>
 6    1  0.2855090E-009  0.1075557E+03  0.7561462E-02  0.1265164E+00
         -2   -1    0    0    0  501 -0.00000000000E+00  0.00000000000E+00  0.46740695240E+02  0.46740695240E+02  0.00000000000E+00 0.  1.
          2   -1    0    0  501    0  0.00000000000E+00 -0.00000000000E+00 -0.37689734309E+03  0.37689734309E+03  0.00000000000E+00 0. -1.
          5    1    1    2  502    0 -0.22457855074E+02 -0.41585725077E+02 -0.98552971846E+02  0.10937956136E+03  0.41800000000E+01 0. -1.
         -5    1    1    2    0  502 -0.26821213195E+02  0.90648203450E+02 -0.14473682713E+03  0.17292395957E+03  0.41800000000E+01 0. -1.
        -11    1    1    2    0    0  0.14871787346E+02 -0.30527470010E+02  0.11208296702E+02  0.35759228166E+02  0.00000000000E+00 0.  1.
         11    1    1    2    0    0  0.34407280923E+02 -0.18535008363E+02 -0.98075145575E+02  0.10557528923E+03  0.00000000000E+00 0. -1.
</event>
<event>
 7    1  0.2855090E-009  0.1849333E+03  0.7561462E-02  0.1163112E+00
          2   -1    0    0  501    0  0.00000000000E+00  0.00000000000E+00  0.12602372089E+04  0.12602372089E+04  0.00000000000E+00 0. -1.
         -2   -1    0    0    0  501 -0.00000000000E+00 -0.00000000000E+00 -0.34965140701E+02  0.34965140701E+02  0.00000000000E+00 0.  1.
         25    2    1    2    0    0 -0.23537315692E+02  0.17397999295E+03  0.73206923841E+03  0.76314879035E+03  0.12509061997E+03 0.  0.
          5    1    3    3  502    0 -0.45387236342E+02  0.12064947637E+03  0.29086183871E+03  0.31817350454E+03  0.41800000000E+01 0.  1.
         -5    1    3    3    0  502  0.21849920650E+02  0.53330516579E+02  0.44120739970E+03  0.44497528581E+03  0.41800000000E+01 0.  1.
        -11    1    1    2    0    0 -0.40676098963E+01 -0.13650529471E+03  0.44309771531E+03  0.46366564057E+03  0.00000000000E+00 0. -1.
         11    1    1    2    0    0  0.27604925588E+02 -0.37474698243E+02  0.50105114486E+02  0.68387918690E+02  0.00000000000E+00 0.  1.
</event>
<event>
 7    1  0.2855090E-009  0.1063771E+03  0.7561462E-02  0.1267430E+00
          2   -1    0    0  501    0  0.00000000000E+00  0.00000000000E+00  0.12178313077E+04  0.12178313077E+04  0.00000000000E+00 0. -1.
         -2   -1    0    0    0  501 -0.00000000000E+00 -0.00000000000E+00 -0.10110708603E+02  0.10110708603E+02  0.00000000000E+00 0.  1.
         25    2    1    2    0    0 -0.17160216379E+01 -0.90573614771E+01  0.84894214051E+03  0.85815776421E+03  0.12508800825E+03 0.  0.
          5    1    3    3  502    0 -0.38789003383E+02 -0.53871580110E+02  0.49397676379E+03  0.49843479964E+03  0.41800000000E+01 0. -1.
         -5    1    3    3    0  502  0.37072981746E+02  0.44814218633E+02  0.35496537672E+03  0.35972296457E+03  0.41800000000E+01 0. -1.
        -11    1    1    2    0    0 -0.40241565613E+02 -0.10570535951E+02  0.20504630338E+03  0.20922501372E+03  0.00000000000E+00 0. -1.
         11    1    1    2    0    0  0.41957587250E+02  0.19627897428E+02  0.15373215519E+03  0.16055923837E+03  0.00000000000E+00 0.  1.
</event>
<event>
 7    1  0.2855090E-009  0.3889069E+02  0.7561462E-02  0.1516537E+00
          2   -1    0    0  501    0  0.00000000000E+00  0.00000000000E+00  0.42767872413E+03  0.42767872413E+03  0.00000000000E+00 0. -1.
         -2   -1    0    0    0  501 -0.00000000000E+00 -0.00000000000E+00 -0.40932009017E+02  0.40932009017E+02  0.00000000000E+00 0.  1.
         25    2    1    2    0    0 -0.17530067215E+02 -0.25261907771E+02  0.33296000877E+03  0.35700664225E+03  0.12508360374E+03 0.  0.
          5    1    3    3  502    0  0.98670425834E+00 -0.77391786479E+01  0.33097856120E+03  0.33109688740E+03  0.41800000000E+01 0. -1.
         -5    1    3    3    0  502 -0.18516771473E+02 -0.17522729123E+02  0.19814475744E+01  0.25909754846E+02  0.41800000000E+01 0. -1.
        -11    1    1    2    0    0 -0.53050718450E+01  0.18552441530E+02  0.76384806751E+02  0.78784361242E+02  0.00000000000E+00 0. -1.
         11    1    1    2    0    0  0.22835139060E+02  0.67094662403E+01 -0.22598100408E+02  0.32819729663E+02  0.00000000000E+00 0.  1.
</event>
<event>
 7    1  0.2855090E-009  0.9723577E+02  0.7561462E-02  0.1286218E+00
          1   -1    0    0  501    0  0.00000000000E+00  0.00000000000E+00  0.10887745689E+03  0.10887745689E+03  0.00000000000E+00 0. -1.
         -1   -1    0    0    0  501 -0.00000000000E+00 -0.00000000000E+00 -0.14267214284E+03  0.14267214284E+03  0.00000000000E+00 0.  1.
         25    2    1    2    0    0 -0.46611488769E+02  0.34900950755E+02 -0.36741091168E+02  0.14281635667E+03  0.12512352578E+03 0.  0.
          5    1    3    3  502    0 -0.16739193102E+02  0.70910993454E+02 -0.56059015184E+02  0.92025296315E+02  0.41800000000E+01 0.  1.
         -5    1    3    3    0  502 -0.29872295667E+02 -0.36010042699E+02  0.19317924016E+02  0.50791060354E+02  0.41800000000E+01 0.  1.
        -11    1    1    2    0    0 -0.79003594333E+00 -0.26337135448E+02 -0.37502635292E+02  0.45833574094E+02  0.00000000000E+00 0.  1.
         11    1    1    2    0    0  0.47401524713E+02 -0.85638153069E+01  0.40449040505E+02  0.62899668962E+02  0.00000000000E+00 0. -1.
</event>
<event>
 7    1  0.2855090E-009  0.1508747E+03  0.7561462E-02  0.1199402E+00
          1   -1    0    0  501    0  0.00000000000E+00  0.00000000000E+00  0.63179215095E+03  0.63179215095E+03  0.00000000000E+00 0. -1.
         -1   -1    0    0    0  501 -0.00000000000E+00 -0.00000000000E+00 -0.60786096651E+02  0.60786096651E+02  0.00000000000E+00 0.  1.
         25    2    1    2    0    0 -0.20671050600E+02 -0.13988914760E+03  0.15714421829E+03  0.24563837800E+03  0.12509053303E+03 0.  0.
          5    1    3    3  502    0  0.20840780933E+02 -0.67380555185E+02  0.14474595512E+03  0.16106936795E+03  0.41800000000E+01 0. -1.
         -5    1    3    3    0  502 -0.41511831533E+02 -0.72508592419E+02  0.12398263174E+02  0.84569010054E+02  0.41800000000E+01 0. -1.
        -11    1    1    2    0    0  0.33621190497E+02  0.10228024580E+03  0.37917415609E+03  0.39416325777E+03  0.00000000000E+00 0.  1.
         11    1    1    2    0    0 -0.12950139897E+02  0.37608901805E+02  0.34687679918E+02  0.52776611831E+02  0.00000000000E+00 0. -1.
</event>
<event>
 7    1  0.2855090E-009  0.8788767E+02  0.7561462E-02  0.1308049E+00
         -2   -1    0    0    0  501 -0.00000000000E+00  0.00000000000E+00  0.33800359803E+02  0.33800359803E+02  0.00000000000E+00 0. -1.
          2   -1    0    0  501    0  0.00000000000E+00 -0.00000000000E+00 -0.53896295320E+03  0.53896295320E+03  0.00000000000E+00 0.  1.
         25    2    1    2    0    0 -0.44852893472E+02 -0.76170600356E+01 -0.41051354590E+03  0.43155392362E+03  0.12509043116E+03 0.  0.
          5    1    3    3  502    0 -0.66435809361E+02 -0.49275867787E+02 -0.30419813457E+03  0.31527100309E+03  0.41800000000E+01 0. -1.
         -5    1    3    3    0  502  0.21582915890E+02  0.41658807752E+02 -0.10631541133E+03  0.11628292053E+03  0.41800000000E+01 0. -1.
        -11    1    1    2    0    0  0.20960977876E+02  0.64480374536E+01 -0.11040765246E+03  0.11256460146E+03  0.00000000000E+00 0.  1.
         11    1    1    2    0    0  0.23891915596E+02  0.11690225820E+01  0.15758604962E+02  0.28644787920E+02  0.00000000000E+00 0. -1.
</event>
<event>
 7    1  0.2855090E-009  0.1118873E+03  0.7561462E-02  0.1257114E+00
         -1   -1    0    0    0  501 -0.00000000000E+00  0.00000000000E+00  0.59154238462E+02  0.59154238462E+02  0.00000000000E+00 0.  1.
          1   -1    0    0  501    0  0.00000000000E+00 -0.00000000000E+00 -0.31636884344E+03  0.31636884344E+03  0.00000000000E+00 0. -1.
         25    2    1    2    0    0  0.59190044366E+02  0.42146054896E+02 -0.86677604575E+02  0.16864847011E+03  0.12509815363E+03 0.  0.
          5    1    3    3  502    0  0.71384317029E+02  0.63758067590E+02 -0.10139490086E+03  0.13949627314E+03  0.41800000000E+01 0. -1.
         -5    1    3    3    0  502 -0.12194272662E+02 -0.21612012694E+02  0.14717296284E+02  0.29152196973E+02  0.41800000000E+01 0. -1.
        -11    1    1    2    0    0 -0.74233587572E+02 -0.45931105774E+02 -0.17028929553E+03  0.19136022621E+03  0.00000000000E+00 0. -1.
         11    1    1    2    0    0  0.15043543206E+02  0.37850508781E+01 -0.24770487456E+00  0.15514385583E+02  0.00000000000E+00 0.  1.
</event>
<event>
 7    1  0.2855090E-009  0.1391626E+03  0.7561462E-02  0.1214460E+00
         -3   -1    0    0    0  501 -0.00000000000E+00  0.00000000000E+00  0.83532779382E+02  0.83532779382E+02  0.00000000000E+00 0.  1.
          3   -1    0    0  501    0  0.00000000000E+00 -0.00000000000E+00 -0.26197032131E+03  0.26197032131E+03  0.00000000000E+00 0. -1.
         25    2    1    2    0    0 -0.79973721407E+02  0.60547677782E+02 -0.10309088266E+03  0.19062370199E+03  0.12509135971E+03 0.  0.
          5    1    3    3  502    0  0.30651825711E+02  0.30812152531E+02 -0.15395294113E+02  0.46296983097E+02  0.41800000000E+01 0. -1.
         -5    1    3    3    0  502 -0.11062554712E+03  0.29735525252E+02 -0.87695588545E+02  0.14432671890E+03  0.41800000000E+01 0. -1.
        -11    1    1    2    0    0  0.91381645857E+02 -0.48546556470E+02 -0.31740038453E+02  0.10823494531E+03  0.00000000000E+00 0.  1.
         11    1    1    2    0    0 -0.11407924450E+02 -0.12001121313E+02 -0.43606620814E+02  0.46644453388E+02  0.00000000000E+00 0. -1.
</event>
<event>
 7    1  0.2855090E-009  0.8078643E+02  0.7561462E-02  0.1326834E+00
         -2   -1    0    0    0  501 -0.00000000000E+00  0.00000000000E+00  0.92623654092E+02  0.92623654092E+02  0.00000000000E+00 0.  1.
          2   -1    0    0  501    0  0.00000000000E+00 -0.00000000000E+00 -0.13132494413E+03  0.13132494413E+03  0.00000000000E+00 0. -1.
         25    2    1    2    0    0  0.15386055184E+02  0.11552546747E+02 -0.32541567283E+02  0.13067831239E+03  0.12509066991E+03 0.  0.
          5    1    3    3  502    0 -0.32871812435E+02  0.18678379458E+02  0.31971988087E+02  0.49690223728E+02  0.41800000000E+01 0. -1.
         -5    1    3    3    0  502  0.48257867619E+02 -0.71258327108E+01 -0.64513555370E+02  0.80988088664E+02  0.41800000000E+01 0. -1.
        -11    1    1    2    0    0  0.13914489392E+02  0.24464453774E+02  0.24761039864E+02  0.37486418989E+02  0.00000000000E+00 0.  1.
         11    1    1    2    0    0 -0.29300544576E+02 -0.36017000521E+02 -0.30920762625E+02  0.55783866846E+02  0.00000000000E+00 0. -1.
</event>
<event>
 7    1  0.2855090E-009  0.3418807E+03  0.7561462E-02  0.1065998E+00
          2   -1    0    0  501    0  0.00000000000E+00  0.00000000000E+00  0.68019483385E+03  0.68019483385E+03  0.00000000000E+00 0. -1.
         -2   -1    0    0    0  501 -0.00000000000E+00 -0.00000000000E+00 -0.20859755074E+03  0.20859755074E+03  0.00000000000E+00 0.  1.
         25    2    1    2    0    0 -0.28478072193E+03 -0.18573246389E+03  0.95939361186E+02  0.37476456921E+03  0.12509002194E+03 0.  0.
          5    1    3    3  502    0 -0.25750306195E+03 -0.18116076746E+03  0.12088988156E+03  0.33728161296E+03  0.41800000000E+01 0. -1.
         -5    1    3    3    0  502 -0.27277659980E+02 -0.45716964292E+01 -0.24950520375E+02  0.37482956249E+02  0.41800000000E+01 0. -1.
        -11    1    1    2    0    0  0.21765884110E+03  0.15428001928E+03  0.23726132356E+03  0.35703029439E+03  0.00000000000E+00 0.  1.
         11    1    1    2    0    0  0.67121880826E+02  0.31452444616E+02  0.13839659836E+03  0.15699752099E+03  0.00000000000E+00 0. -1.
</event>
<event>
 7    1  0.2855090E-009  0.1203928E+03  0.7561462E-02  0.1242451E+00
         -2   -1    0    0    0  501 -0.00000000000E+00  0.00000000000E+00  0.11219460839E+03  0.11219460839E+03  0.00000000000E+00 0.  1.
          2   -1    0    0  501    0  0.00000000000E+00 -0.00000000000E+00 -0.16343335234E+03  0.16343335234E+03  0.00000000000E+00 0. -1.
         25    2    1    2    0    0  0.73581192867E+02  0.21850844619E+02 -0.62004550981E+02  0.15932237630E+03  0.12508958348E+03 0.  0.
          5    1    3    3  502    0  0.42072327493E+02 -0.39578352677E+02 -0.68676917864E+02  0.89836062851E+02  0.41800000000E+01 0.  1.
         -5    1    3    3    0  502  0.31508865374E+02  0.61429197295E+02  0.66723668834E+01  0.69486313453E+02  0.41800000000E+01 0.  1.
        -11    1    1    2    0    0 -0.31229654803E+02 -0.52736187008E+02 -0.52031681889E+01  0.61509915611E+02  0.00000000000E+00 0.  1.
         11    1    1    2    0    0 -0.42351538064E+02  0.30885342389E+02  0.15968975227E+02  0.54795668813E+02  0.00000000000E+00 0. -1.
</event>
<event>
 7    1  0.2855090E-009  0.1246296E+03  0.7561462E-02  0.1235649E+00
         -1   -1    0    0    0  501 -0.00000000000E+00  0.00000000000E+00  0.35998261233E+02  0.35998261233E+02  0.00000000000E+00 0.  1.
          1   -1    0    0  501    0  0.00000000000E+00 -0.00000000000E+00 -0.69179685570E+03  0.69179685570E+03  0.00000000000E+00 0. -1.
         25    2    1    2    0    0 -0.23243463374E+02  0.82201264755E+02 -0.52950724407E+03  0.55074663820E+03  0.12508649588E+03 0.  0.
          5    1    3    3  502    0 -0.35251006367E+02  0.10880445265E+03 -0.33484356078E+03  0.35386257920E+03  0.41800000000E+01 0. -1.
         -5    1    3    3    0  502  0.12007542993E+02 -0.26603187896E+02 -0.19466368329E+03  0.19688405900E+03  0.41800000000E+01 0. -1.
        -11    1    1    2    0    0 -0.19574504148E+02 -0.43112881115E+02 -0.11926352102E+02  0.48827447252E+02  0.00000000000E+00 0.  1.
         11    1    1    2    0    0  0.42817967522E+02 -0.39088383640E+02 -0.11436499829E+03  0.12822103148E+03  0.00000000000E+00 0. -1.
</event>
<event>
 7    1  0.2855090E-009  0.2269255E+03  0.7561462E-02  0.1128823E+00
         -2   -1    0    0    0  501 -0.00000000000E+00  0.00000000000E+00  0.34076993103E+02  0.34076993103E+02  0.00000000000E+00 0.  1.
          2   -1    0    0  501    0  0.00000000000E+00 -0.00000000000E+00 -0.31732875117E+04  0.31732875117E+04  0.00000000000E+00 0. -1.
         25    2    1    2    0    0 -0.13588312194E+03 -0.14925613944E+03 -0.27419988640E+04  0.27522621068E+04  0.12508923470E+03 0.  0.
          5    1    3    3  502    0 -0.87883810243E+02 -0.16198246159E+03 -0.19484906890E+04  0.19571906702E+04  0.41800000000E+01 0.  1.
         -5    1    3    3    0  502 -0.47999311695E+02  0.12726322149E+02 -0.79350817503E+03  0.79507143669E+03  0.41800000000E+01 0.  1.
        -11    1    1    2    0    0  0.78377221542E+02  0.24183377804E+02 -0.11680790212E+03  0.14273020218E+03  0.00000000000E+00 0.  1.
         11    1    1    2    0    0  0.57505900395E+02  0.12507276164E+03 -0.28040375246E+03  0.31237219575E+03  0.00000000000E+00 0. -1.
</event>
<event>
 7    1  0.2855090E-009  0.2483254E+03  0.7561462E-02  0.1114368E+00
         -2   -1    0    0    0  501 -0.00000000000E+00  0.00000000000E+00  0.12684523203E+03  0.12684523203E+03  0.00000000000E+00 0.  1.
          2   -1    0    0  501    0  0.00000000000E+00 -0.00000000000E+00 -0.58138609678E+03  0.58138609678E+03  0.00000000000E+00 0. -1.
         25    2    1    2    0    0 -0.67827420943E+02  0.23817274905E+03 -0.20202401163E+03  0.34320278367E+03  0.12509049534E+03 0.  0.
          5    1    3    3  502    0 -0.37169554261E+02  0.12023960818E+03 -0.25202282561E+02  0.12842027327E+03  0.41800000000E+01 0. -1.
         -5    1    3    3    0  502 -0.30657866682E+02  0.11793314086E+03 -0.17682172907E+03  0.21478251040E+03  0.41800000000E+01 0. -1.
        -11    1    1    2    0    0  0.18912253045E+02 -0.34549333805E+02 -0.33261867902E+01  0.39527121072E+02  0.00000000000E+00 0.  1.
         11    1    1    2    0    0  0.48915167898E+02 -0.20362341524E+03 -0.24919066632E+03  0.32550142406E+03  0.00000000000E+00 0. -1.
</event>
<event>
 7    1  0.2855090E-009  0.1168004E+03  0.7561462E-02  0.1248471E+00
         -2   -1    0    0    0  501 -0.00000000000E+00  0.00000000000E+00  0.22553525347E+02  0.22553525347E+02  0.00000000000E+00 0. -1.
          2   -1    0    0  501    0  0.00000000000E+00 -0.00000000000E+00 -0.10054027669E+04  0.10054027669E+04  0.00000000000E+00 0.  1.
         25    2    1    2    0    0  0.37686438915E+02  0.28831328487E+02 -0.84439751886E+03  0.85493040726E+03  0.12508924103E+03 0.  0.
          5    1    3    3  502    0  0.50967667340E+02  0.72009972527E+02 -0.54220424579E+03  0.54935057641E+03  0.41800000000E+01 0. -1.
         -5    1    3    3    0  502 -0.13281228425E+02 -0.43178644040E+02 -0.30219327308E+03  0.30557983085E+03  0.41800000000E+01 0. -1.
        -11    1    1    2    0    0 -0.18018324209E+02  0.31591345672E+02 -0.74340043138E+02  0.82759380994E+02  0.00000000000E+00 0.  1.
         11    1    1    2    0    0 -0.19668114706E+02 -0.60422674159E+02 -0.64111679573E+02  0.90266504011E+02  0.00000000000E+00 0. -1.
</event>
<event>
 6    1  0.2855090E-009  0.1377265E+03  0.7561462E-02  0.1216421E+00
          1   -1    0    0  501    0  0.00000000000E+00  0.00000000000E+00  0.31219413984E+02  0.31219413984E+02  0.00000000000E+00 0. -1.
         -1   -1    0    0    0  501 -0.00000000000E+00 -0.00000000000E+00 -0.61828920828E+03  0.61828920828E+03  0.00000000000E+00 0.  1.
          5    1    1    2  502    0  0.18927512796E+02  0.95912840130E+02 -0.19670764643E+03  0.21970183023E+03  0.41800000000E+01 0.  1.
         -5    1    1    2    0  502  0.33197769733E+02 -0.36799062993E+02 -0.84387586556E+02  0.97954071468E+02  0.41800000000E+01 0.  1.
        -11    1    1    2    0    0 -0.34080923696E+02  0.24725475865E+02 -0.11644663464E+03  0.12382518821E+03  0.00000000000E+00 0.  1.
         11    1    1    2    0    0 -0.18044358833E+02 -0.83839253002E+02 -0.18952792667E+03  0.20802753236E+03  0.00000000000E+00 0. -1.
</event>
<event>
 7    1  0.2855090E-009  0.1833107E+03  0.7561462E-02  0.1164637E+00
          1   -1    0    0  501    0  0.00000000000E+00  0.00000000000E+00  0.47625893694E+03  0.47625893694E+03  0.00000000000E+00 0. -1.
         -1   -1    0    0    0  501 -0.00000000000E+00 -0.00000000000E+00 -0.73979938287E+02  0.73979938287E+02  0.00000000000E+00 0.  1.
         25    2    1    2    0    0  0.71678427063E+02  0.13227498102E+03  0.18859628009E+03  0.27175441582E+03  0.12508972037E+03 0.  0.
          5    1    3    3  502    0  0.10172098575E+03  0.88692412492E+02  0.98342794841E+02  0.16703975776E+03  0.41800000000E+01 0. -1.
         -5    1    3    3    0  502 -0.30042558689E+02  0.43582568529E+02  0.90253485249E+02  0.10471465806E+03  0.41800000000E+01 0. -1.
        -11    1    1    2    0    0 -0.86168756452E+02 -0.60522909378E+02  0.12177616541E+03  0.16098916613E+03  0.00000000000E+00 0. -1.
         11    1    1    2    0    0  0.14490329389E+02 -0.71752071643E+02  0.91906553151E+02  0.11749529328E+03  0.00000000000E+00 0.  1.
</event>
<event>
 7    1  0.2855090E-009  0.1389135E+03  0.7561462E-02  0.1214798E+00
         -1   -1    0    0    0  501 -0.00000000000E+00  0.00000000000E+00  0.20942681632E+03  0.20942681632E+03  0.00000000000E+00 0.  1.
          1   -1    0    0  501    0  0.00000000000E+00 -0.00000000000E+00 -0.22033072965E+03  0.22033072965E+03  0.00000000000E+00 0. -1.
         25    2    1    2    0    0 -0.12594401465E+03 -0.38172831974E+02  0.12460393472E+03  0.22021134724E+03  0.12509131457E+03 0.  0.
          5    1    3    3  502    0 -0.21291454791E+02  0.16940550423E+02 -0.19500945679E+02  0.33735257197E+02  0.41800000000E+01 0.  1.
         -5    1    3    3    0  502 -0.10465255986E+03 -0.55113382397E+02  0.14410488040E+03  0.18647609004E+03  0.41800000000E+01 0.  1.
        -11    1    1    2    0    0  0.84183134574E+02  0.20783570196E+02 -0.25161956079E+02  0.90287767558E+02  0.00000000000E+00 0. -1.
         11    1    1    2    0    0  0.41760880077E+02  0.17389261778E+02 -0.11034589197E+03  0.11925843116E+03  0.00000000000E+00 0.  1.
</event>
<event>
 7    1  0.2855090E-009  0.1596349E+03  0.7561462E-02  0.1189110E+00
          1   -1    0    0  501    0  0.00000000000E+00  0.00000000000E+00  0.88886771407E+03  0.88886771407E+03  0.00000000000E+00 0. -1.
         -1   -1    0    0    0  501 -0.00000000000E+00 -0.00000000000E+00 -0.30269811436E+02  0.30269811436E+02  0.00000000000E+00 0.  1.
         25    2    1    2    0    0  0.78806169335E+02 -0.86109728919E+02  0.56243880780E+03  0.58788673126E+03  0.12509236002E+03 0.  0.
          5    1    3    3  502    0  0.13440401683E+02  0.32488316559E+02  0.10524865968E+03  0.11104453104E+03  0.41800000000E+01 0. -1.
         -5    1    3    3    0  502  0.65365767653E+02 -0.11859804548E+03  0.45719014812E+03  0.47684220022E+03  0.41800000000E+01 0. -1.
        -11    1    1    2    0    0 -0.90972826466E+02  0.37716683998E+02  0.19689307751E+03  0.22014878464E+03  0.00000000000E+00 0.  1.
         11    1    1    2    0    0  0.12166657131E+02  0.48393044921E+02  0.99266017331E+02  0.11110200961E+03  0.00000000000E+00 0. -1.
</event>
<event>
 7    1  0.2855090E-009  0.1065540E+03  0.7561462E-02  0.1267088E+00
         -2   -1    0    0    0  501 -0.00000000000E+00  0.00000000000E+00  0.21261259697E+02  0.21261259697E+02  0.00000000000E+00 0.  1.
          2   -1    0    0  501    0  0.00000000000E+00 -0.00000000000E+00 -0.77087121536E+03  0.77087121536E+03  0.00000000000E+00 0. -1.
         25    2    1    2    0    0  0.35505255888E+02  0.25714381253E+02 -0.51818791001E+03  0.53487215666E+03  0.12509061234E+03 0.  0.
          5    1    3    3  502    0 -0.30332491020E+02  0.16043230465E+02 -0.43683021440E+02  0.55705691068E+02  0.41800000000E+01 0. -1.
         -5    1    3    3    0  502  0.65837746907E+02  0.96711507880E+01 -0.47450488857E+03  0.47916646559E+03  0.41800000000E+01 0. -1.
        -11    1    1    2    0    0 -0.71850501212E+02 -0.22897448220E+02 -0.16705641428E+03  0.18328838810E+03  0.00000000000E+00 0. -1.
         11    1    1    2    0    0  0.36345245325E+02 -0.28169330334E+01 -0.64365631369E+02  0.73971930291E+02  0.00000000000E+00 0.  1.
</event>
<event>
 7    1  0.2855090E-009  0.8427041E+02  0.7561462E-02  0.1317352E+00
         -1   -1    0    0    0  501 -0.00000000000E+00  0.00000000000E+00  0.11956594632E+04  0.11956594632E+04  0.00000000000E+00 0.  1.
          1   -1    0    0  501    0  0.00000000000E+00 -0.00000000000E+00 -0.16905604746E+02  0.16905604746E+02  0.00000000000E+00 0. -1.
         25    2    1    2    0    0 -0.22837113048E+02  0.73711237016E+02  0.85465183666E+03  0.86719750195E+03  0.12508743057E+03 0.  0.
          5    1    3    3  502    0  0.27727860842E-02  0.32032226758E+02  0.76464853307E+03  0.76533059202E+03  0.41800000000E+01 0. -1.
         -5    1    3    3    0  502 -0.22839885834E+02  0.41679010258E+02  0.90003303591E+02  0.10186690993E+03  0.41800000000E+01 0. -1.
        -11    1    1    2    0    0  0.34885845996E+02 -0.64610848188E+02  0.32182769135E+03  0.33009793528E+03  0.00000000000E+00 0.  1.
         11    1    1    2    0    0 -0.12048732948E+02 -0.91003888285E+01  0.22743304104E+01  0.15269630687E+02  0.00000000000E+00 0. -1.
</event>
<event>
 7    1  0.2855090E-009  0.9531129E+02  0.7561462E-02  0.1290477E+00
         -4   -1    0    0    0  501 -0.00000000000E+00  0.00000000000E+00  0.43266985973E+03  0.43266985973E+03  0.00000000000E+00 0.  1.
          4   -1    0    0  501    0  0.00000000000E+00 -0.00000000000E+00 -0.45881055084E+02  0.45881055084E+02  0.00000000000E+00 0. -1.
         25    2    1    2    0    0 -0.18881471406E+02  0.16542955611E+02  0.35818923358E+03  0.38023237997E+03  0.12508779471E+03 0.  0.
          5    1    3    3  502    0 -0.45021774407E+02 -0.40270936954E+02  0.22544516325E+03  0.23343457877E+03  0.41800000000E+01 0.  1.
         -5    1    3    3    0  502  0.26140303001E+02  0.56813892564E+02  0.13274407032E+03  0.14679780119E+03  0.41800000000E+01 0.  1.
        -11    1    1    2    0    0  0.61812206754E+01 -0.40131522092E+02 -0.18118798503E+02  0.44463888872E+02  0.00000000000E+00 0. -1.
         11    1    1    2    0    0  0.12700250730E+02  0.23588566482E+02  0.46718369572E+02  0.53854645972E+02  0.00000000000E+00 0.  1.
</event>
<event>
 7    1  0.2855090E-009  0.1010408E+03  0.7561462E-02  0.1278122E+00
          4   -1    0    0  501    0  0.00000000000E+00  0.00000000000E+00  0.43795404776E+03  0.43795404776E+03  0.00000000000E+00 0. -1.
         -4   -1    0    0    0  501 -0.00000000000E+00 -0.00000000000E+00 -0.48661428382E+02  0.48661428382E+02  0.00000000000E+00 0.  1.
         25    2    1    2    0    0 -0.46108873649E+02 -0.79600559580E+02  0.26350437525E+03  0.30585081408E+03  0.12509151603E+03 0.  0.
          5    1    3    3  502    0 -0.35950162722E+01  0.81541402016E+01  0.17130631107E+03  0.17158886548E+03  0.41800000000E+01 0. -1.
         -5    1    3    3    0  502 -0.42513857377E+02 -0.87754699781E+02  0.92198064179E+02  0.13426194860E+03  0.41800000000E+01 0. -1.
        -11    1    1    2    0    0  0.44885770556E+02  0.59655923890E+02  0.13831762862E+03  0.15717928630E+03  0.00000000000E+00 0. -1.
         11    1    1    2    0    0  0.12231030927E+01  0.19944635690E+02 -0.12529384497E+02  0.23585375762E+02  0.00000000000E+00 0.  1.
</event>
<event>
 7    1  0.2855090E-009  0.1090479E+03  0.7561462E-02  0.1262343E+00
          1   -1    0    0  501    0  0.00000000000E+00  0.00000000000E+00  0.74030495189E+02  0.74030495189E+02  0.00000000000E+00 0. -1.
         -1   -1    0    0    0  501 -0.00000000000E+00 -0.00000000000E+00 -0.19075704870E+03  0.19075704870E+03  0.00000000000E+00 0.  1.
         25    2    1    2    0    0 -0.17119792427E+02 -0.28952442491E+02 -0.96985838411E+02  0.16181801893E+03  0.12508991637E+03 0.  0.
          5    1    3    3  502    0  0.38010204023E+02 -0.49844679308E+02 -0.77109086121E+02  0.99461305178E+02  0.41800000000E+01 0.  1.
         -5    1    3    3    0  502 -0.55129996451E+02  0.20892236817E+02 -0.19876752290E+02  0.62356713748E+02  0.41800000000E+01 0.  1.
        -11    1    1    2    0    0  0.16970379443E+02  0.61409579162E+02  0.22716192754E+01  0.63751787782E+02  0.00000000000E+00 0. -1.
         11    1    1    2    0    0  0.14941298498E+00 -0.32457136671E+02 -0.22012334379E+02  0.39217737185E+02  0.00000000000E+00 0.  1.
</event>
<event>
 7    1  0.2855090E-009  0.1021635E+03  0.7561462E-02  0.1275811E+00
         -2   -1    0    0    0  501 -0.00000000000E+00  0.00000000000E+00  0.22376724261E+03  0.22376724261E+03  0.00000000000E+00 0.  1.
          2   -1    0    0  501    0  0.00000000000E+00 -0.00000000000E+00 -0.71996716072E+02  0.71996716072E+02  0.00000000000E+00 0. -1.
         25    2    1    2    0    0  0.26096266860E+02 -0.54153686768E+02  0.11488696719E+03  0.18016701756E+03  0.12508997582E+03 0.  0.
          5    1    3    3  502    0  0.19581479666E+02 -0.92381146224E+02  0.57050500702E+02  0.11040807287E+03  0.41800000000E+01 0. -1.
         -5    1    3    3    0  502  0.65147871947E+01  0.38227459456E+02  0.57836466486E+02  0.69758944690E+02  0.41800000000E+01 0. -1.
        -11    1    1    2    0    0 -0.12968516442E+02 -0.20071026447E+01  0.53891885309E+02  0.55466622233E+02  0.00000000000E+00 0.  1.
         11    1    1    2    0    0 -0.13127750418E+02  0.56160789412E+02 -0.17008325958E+02  0.60130318894E+02  0.00000000000E+00 0. -1.
</event>
<event>
 7    1  0.2855090E-009  0.7084967E+02  0.7561462E-02  0.1357227E+00
          1   -1    0    0  501    0  0.00000000000E+00  0.00000000000E+00  0.98577797936E+02  0.98577797936E+02  0.00000000000E+00 0. -1.
         -1   -1    0    0    0  501 -0.00000000000E+00 -0.00000000000E+00 -0.13045953358E+03  0.13045953358E+03  0.00000000000E+00 0.  1.
         25    2    1    2    0    0  0.29452424317E+01 -0.96756550714E+01  0.11589242329E+02  0.12603735577E+03  0.12509521077E+03 0.  0.
          5    1    3    3  502    0  0.25876706670E+02 -0.85041900487E+01  0.63445165743E+02  0.69171429454E+02  0.41800000000E+01 0. -1.
         -5    1    3    3    0  502 -0.22931464238E+02 -0.11714650227E+01 -0.51855923414E+02  0.56865926314E+02  0.41800000000E+01 0. -1.
        -11    1    1    2    0    0  0.11826266760E+02 -0.38572487522E+02 -0.75091085789E+01  0.41037593627E+02  0.00000000000E+00 0. -1.
         11    1    1    2    0    0 -0.14771509192E+02  0.48248142593E+02 -0.35961869390E+02  0.61962382116E+02  0.00000000000E+00 0.  1.
</event>
<event>
 7    1  0.2855090E-009  0.1070653E+03  0.7561462E-02  0.1266103E+00
         -2   -1    0    0    0  501 -0.00000000000E+00  0.00000000000E+00  0.41012656666E+02  0.41012656666E+02  0.00000000000E+00 0.  1.
          2   -1    0    0  501    0  0.00000000000E+00 -0.00000000000E+00 -0.38141924399E+03  0.38141924399E+03  0.00000000000E+00 0. -1.
         25    2    1    2    0    0  0.23235643460E+02 -0.52751224971E+01 -0.28575958851E+03  0.31284769895E+03  0.12508964093E+03 0.  0.
          5    1    3    3  502    0  0.59014822871E+02  0.36627961410E+02 -0.12800791179E+03  0.14569782001E+03  0.41800000000E+01 0. -1.
         -5    1    3    3    0  502 -0.35779179411E+02 -0.41903083907E+02 -0.15775167672E+03  0.16714987893E+03  0.41800000000E+01 0. -1.
        -11    1    1    2    0    0 -0.56182520873E+02  0.29342535146E+01 -0.15481583113E+02  0.58350363418E+02  0.00000000000E+00 0. -1.
         11    1    1    2    0    0  0.32946877413E+02  0.23408689825E+01 -0.39165415702E+02  0.51233838290E+02  0.00000000000E+00 0.  1.
</event>
<event>
 7    1  0.2855090E-009  0.1133908E+03  0.7561462E-02  0.1254416E+00
         -2   -1    0    0    0  501 -0.00000000000E+00  0.00000000000E+00  0.13265963752E+03  0.13265963752E+03  0.00000000000E+00 0.  1.
          2   -1    0    0  501    0  0.00000000000E+00 -0.00000000000E+00 -0.12354719775E+03  0.12354719775E+03  0.00000000000E+00 0. -1.
         25    2    1    2    0    0  0.42157548479E+02  0.44369403339E+02  0.34462254162E+02  0.14344647166E+03  0.12507334018E+03 0.  0.
          5    1    3    3  502    0  0.31462684523E+02  0.83892371513E+02 -0.10984575926E+00  0.89695679838E+02  0.41800000000E+01 0. -1.
         -5    1    3    3    0  502  0.10694863957E+02 -0.39522968174E+02  0.34572099921E+02  0.53750791820E+02  0.41800000000E+01 0. -1.
        -11    1    1    2    0    0  0.19256110820E+02 -0.24952593430E+02  0.16866885099E+02  0.35748028417E+02  0.00000000000E+00 0. -1.
         11    1    1    2    0    0 -0.61413659299E+02 -0.19416809909E+02 -0.42216699497E+02  0.77012335193E+02  0.00000000000E+00 0.  1.
</event>
<event>
 7    1  0.2855090E-009  0.2637613E+03  0.7561462E-02  0.1104904E+00
          1   -1    0    0  501    0  0.00000000000E+00  0.00000000000E+00  0.58068764892E+03  0.58068764892E+03  0.00000000000E+00 0. -1.
         -1   -1    0    0    0  501 -0.00000000000E+00 -0.00000000000E+00 -0.12308733372E+03  0.12308733372E+03  0.00000000000E+00 0.  1.
         25    2    1    2    0    0 -0.23751358558E+03  0.49134827613E+02  0.27097055033E+03  0.38457728221E+03  0.12509081594E+03 0.  0.
          5    1    3    3  502    0 -0.11707394783E+03  0.87024635407E+02  0.15829404967E+03  0.21529996514E+03  0.41800000000E+01 0.  1.
         -5    1    3    3    0  502 -0.12043963774E+03 -0.37889807794E+02  0.11267650065E+03  0.16927731707E+03  0.41800000000E+01 0.  1.
        -11    1    1    2    0    0  0.37649876076E+02  0.21409106509E+02  0.13029293973E+02  0.45228591747E+02  0.00000000000E+00 0.  1.
         11    1    1    2    0    0  0.19986370950E+03 -0.70543934122E+02  0.17360047090E+03  0.27396910868E+03  0.00000000000E+00 0. -1.
</event>
<event>
 7    1  0.2855090E-009  0.1176418E+03  0.7561462E-02  0.1247039E+00
         -2   -1    0    0    0  501 -0.00000000000E+00  0.00000000000E+00  0.86890997617E+02  0.86890997617E+02  0.00000000000E+00 0.  1.
          2   -1    0    0  501    0  0.00000000000E+00 -0.00000000000E+00 -0.30832938185E+03  0.30832938185E+03  0.00000000000E+00 0. -1.
         25    2    1    2    0    0 -0.56462172950E+02  0.45057420842E+02 -0.23436909717E+03  0.27530908416E+03  0.12509224583E+03 0.  0.
          5    1    3    3  502    0 -0.67552135251E+02 -0.15067139549E+02 -0.18178314970E+03  0.19455820616E+03  0.41800000000E+01 0. -1.
         -5    1    3    3    0  502  0.11089962302E+02  0.60124560392E+02 -0.52585947473E+02  0.80750878000E+02  0.41800000000E+01 0. -1.
        -11    1    1    2    0    0  0.17041389972E+02 -0.60100991178E+02 -0.20853220192E+02  0.65858901488E+02  0.00000000000E+00 0. -1.
         11    1    1    2    0    0  0.39420782977E+02  0.15043570336E+02  0.33783933133E+02  0.54052393813E+02  0.00000000000E+00 0.  1.
</event>
<event>
 7    1  0.2855090E-009  0.9799860E+02  0.7561462E-02  0.1284562E+00
         -2   -1    0    0    0  501 -0.00000000000E+00  0.00000000000E+00  0.35903564978E+02  0.35903564978E+02  0.00000000000E+00 0.  1.
          2   -1    0    0  501    0  0.00000000000E+00 -0.00000000000E+00 -0.72477490465E+03  0.72477490465E+03  0.00000000000E+00 0. -1.
         25    2    1    2    0    0 -0.65464202860E+02 -0.12993770179E+02 -0.13562418604E+03  0.19619789681E+03  0.12508115347E+03 0.  0.
          5    1    3    3  502    0  0.10984177527E+02 -0.27132026655E+01 -0.11582488920E+03  0.11645123865E+03  0.41800000000E+01 0. -1.
         -5    1    3    3    0  502 -0.76448380386E+02 -0.10280567514E+02 -0.19799296839E+02  0.79746658159E+02  0.41800000000E+01 0. -1.
        -11    1    1    2    0    0  0.66906621586E+02  0.41113469007E+02 -0.47211394196E+03  0.47860044665E+03  0.00000000000E+00 0. -1.
         11    1    1    2    0    0 -0.14424187258E+01 -0.28119698827E+02 -0.81133211670E+02  0.85880126163E+02  0.00000000000E+00 0.  1.
</event>
<event>
 7    1  0.2855090E-009  0.1175577E+03  0.7561462E-02  0.1247181E+00
         -1   -1    0    0    0  501 -0.00000000000E+00  0.00000000000E+00  0.38757328607E+02  0.38757328607E+02  0.00000000000E+00 0.  1.
          1   -1    0    0  501    0  0.00000000000E+00 -0.00000000000E+00 -0.45032209173E+03  0.45032209173E+03  0.00000000000E+00 0. -1.
         25    2    1    2    0    0 -0.49426696078E+02  0.37527380283E+02 -0.14678320442E+03  0.20260663447E+03  0.12511129715E+03 0.  0.
          5    1    3    3  502    0  0.34849434719E+02  0.27407733822E+02 -0.17404763039E+02  0.47812813659E+02  0.41800000000E+01 0.  1.
         -5    1    3    3    0  502 -0.84276130797E+02  0.10119646460E+02 -0.12937844138E+03  0.15479382081E+03  0.41800000000E+01 0.  1.
        -11    1    1    2    0    0  0.19086134677E+02 -0.63096914338E+02 -0.19918147360E+03  0.20980648360E+03  0.00000000000E+00 0. -1.
         11    1    1    2    0    0  0.30340561401E+02  0.25569534056E+02 -0.65600085104E+02  0.76666302269E+02  0.00000000000E+00 0.  1.
</event>
<event>
 7    1  0.2855090E-009  0.8295839E+02  0.7561462E-02  0.1320860E+00
         -2   -1    0    0    0  501 -0.00000000000E+00  0.00000000000E+00  0.26087360103E+02  0.26087360103E+02  0.00000000000E+00 0.  1.
          2   -1    0    0  501    0  0.00000000000E+00 -0.00000000000E+00 -0.61600582787E+03  0.61600582787E+03  0.00000000000E+00 0. -1.
         25    2    1    2    0    0 -0.59903984289E+02 -0.21417881863E+02 -0.31174747593E+03  0.34187912312E+03  0.12509049956E+03 0.  0.
          5    1    3    3  502    0 -0.47259661636E+02 -0.52266921040E+00 -0.24192903427E+02  0.53258968984E+02  0.41800000000E+01 0. -1.
         -5    1    3    3    0  502 -0.12644322653E+02 -0.20895212653E+02 -0.28755457250E+03  0.28862015414E+03  0.41800000000E+01 0. -1.
        -11    1    1    2    0    0  0.11685005802E+02  0.40260321249E+02 -0.21247708414E+03  0.21657318419E+03  0.00000000000E+00 0. -1.
         11    1    1    2    0    0  0.48218978487E+02 -0.18842439386E+02 -0.65693907698E+02  0.83640880656E+02  0.00000000000E+00 0.  1.
</event>
<event>
 7    1  0.2855090E-009  0.2885177E+03  0.7561462E-02  0.1091126E+00
         -2   -1    0    0    0  501 -0.00000000000E+00  0.00000000000E+00  0.78081576598E+02  0.78081576598E+02  0.00000000000E+00 0. -1.
          2   -1    0    0  501    0  0.00000000000E+00 -0.00000000000E+00 -0.12786067697E+04  0.12786067697E+04  0.00000000000E+00 0.  1.
         25    2    1    2    0    0  0.97985820508E+02 -0.27069850010E+03 -0.46011459969E+03  0.55698436418E+03  0.12508892084E+03 0.  0.
          5    1    3    3  502    0  0.21932786623E+02 -0.69875074641E+02 -0.36285332023E+02  0.81839299271E+02  0.41800000000E+01 0.  1.
         -5    1    3    3    0  502  0.76053033886E+02 -0.20082342546E+03 -0.42382926767E+03  0.47514506491E+03  0.41800000000E+01 0.  1.
        -11    1    1    2    0    0 -0.54502854181E+02  0.11535645747E+03 -0.21414793913E+03  0.24927296931E+03  0.00000000000E+00 0.  1.
         11    1    1    2    0    0 -0.43482966328E+02  0.15534204263E+03 -0.52626265428E+03  0.55043101281E+03  0.00000000000E+00 0. -1.
</event>
<event>
 7    1  0.2855090E-009  0.1260831E+03  0.7561462E-02  0.1233386E+00
         -2   -1    0    0    0  501 -0.00000000000E+00  0.00000000000E+00  0.29744305979E+02  0.29744305979E+02  0.00000000000E+00 0. -1.
          2   -1    0    0  501    0  0.00000000000E+00 -0.00000000000E+00 -0.77616485892E+03  0.77616485892E+03  0.00000000000E+00 0.  1.
         25    2    1    2    0    0 -0.99069180155E+02  0.21406104711E+01 -0.49478352057E+03  0.51988194539E+03  0.12508884939E+03 0.  0.
          5    1    3    3  502    0 -0.47883429944E+02 -0.55206838637E+02 -0.32975177228E+03  0.33777850970E+03  0.41800000000E+01 0.  1.
         -5    1    3    3    0  502 -0.51185750211E+02  0.57347449108E+02 -0.16503174830E+03  0.18210343569E+03  0.41800000000E+01 0.  1.
        -11    1    1    2    0    0  0.34922200612E+02  0.10784220370E+02 -0.19820645002E+03  0.20154814893E+03  0.00000000000E+00 0.  1.
         11    1    1    2    0    0  0.64146979542E+02 -0.12924830841E+02 -0.53430582338E+02  0.84479070578E+02  0.00000000000E+00 0. -1.
</event>
<event>
 7    1  0.2855090E-009  0.1030853E+03  0.7561462E-02  0.1273939E+00
          3   -1    0    0  501    0  0.00000000000E+00  0.00000000000E+00  0.17617448135E+02  0.17617448135E+02  0.00000000000E+00 0. -1.
         -3   -1    0    0    0  501 -0.00000000000E+00 -0.00000000000E+00 -0.12710841313E+04  0.12710841313E+04  0.00000000000E+00 0.  1.
         25    2    1    2    0    0 -0.24646783845E+02 -0.31104965717E+02 -0.10915657485E+04  0.10994262503E+04  0.12508922309E+03 0.  0.
          5    1    3    3  502    0  0.45210552368E+02 -0.36693391028E+02 -0.60708580117E+03  0.60988608885E+03  0.41800000000E+01 0. -1.
         -5    1    3    3    0  502 -0.69857336213E+02  0.55884253111E+01 -0.48447994730E+03  0.48954016144E+03  0.41800000000E+01 0. -1.
        -11    1    1    2    0    0  0.44022608641E+02  0.39084498875E+01 -0.14551576711E+03  0.15207927054E+03  0.00000000000E+00 0.  1.
         11    1    1    2    0    0 -0.19375824796E+02  0.27196515830E+02 -0.16385167602E+02  0.37196058624E+02  0.00000000000E+00 0. -1.
</event>
<event>
 7    1  0.2855090E-009  0.1486067E+03  0.7561462E-02  0.1202196E+00
         -2   -1    0    0    0  501 -0.00000000000E+00  0.00000000000E+00  0.87433601779E+02  0.87433601779E+02  0.00000000000E+00 0.  1.
          2   -1    0    0  501    0  0.00000000000E+00 -0.00000000000E+00 -0.28209931676E+03  0.28209931676E+03  0.00000000000E+00 0. -1.
         25    2    1    2    0    0  0.29568849767E+02  0.11100338069E+03 -0.10916142851E+03  0.20188898079E+03  0.12508747214E+03 0.  0.
          5    1    3    3  502    0 -0.24476484472E+02  0.93558446676E+02 -0.24485587010E+02  0.99846370028E+02  0.41800000000E+01 0. -1.
         -5    1    3    3    0  502  0.54045334238E+02  0.17444934009E+02 -0.84675841505E+02  0.10204261076E+03  0.41800000000E+01 0. -1.
        -11    1    1    2    0    0 -0.41569940439E+02 -0.11341505618E+02 -0.33573548167E+02  0.54624837156E+02  0.00000000000E+00 0. -1.
         11    1    1    2    0    0  0.12001090672E+02 -0.99661875067E+02 -0.51930738296E+02  0.11301910059E+03  0.00000000000E+00 0.  1.
</event>
<event>
 7    1  0.2855090E-009  0.1188559E+03  0.7561462E-02  0.1244996E+00
          1   -1    0    0  501    0  0.00000000000E+00  0.00000000000E+00  0.92659242366E+02  0.92659242366E+02  0.00000000000E+00 0. -1.
         -1   -1    0    0    0  501 -0.00000000000E+00 -0.00000000000E+00 -0.23065828275E+03  0.23065828275E+03  0.00000000000E+00 0.  1.
         25    2    1    2    0    0 -0.71858789151E+02  0.25925204526E+02 -0.98624532613E+01  0.14691745162E+03  0.12510662572E+03 0.  0.
          5    1    3    3  502    0 -0.93684547078E+01  0.54625058683E+02 -0.43188685832E+02  0.70387498631E+02  0.41800000000E+01 0. -1.
         -5    1    3    3    0  502 -0.62490334443E+02 -0.28699854157E+02  0.33326232571E+02  0.76529952991E+02  0.41800000000E+01 0. -1.
        -11    1    1    2    0    0  0.24115545148E+02 -0.53088822351E+02 -0.97225549608E+02  0.11337014630E+03  0.00000000000E+00 0.  1.
         11    1    1    2    0    0  0.47743244003E+02  0.27163617824E+02 -0.30911037515E+02  0.63029927189E+02  0.00000000000E+00 0. -1.
</event>
<event>
 7    1  0.2855090E-009  0.1331768E+03  0.7561462E-02  0.1222817E+00
         -3   -1    0    0    0  501 -0.00000000000E+00  0.00000000000E+00  0.52276837435E+03  0.52276837435E+03  0.00000000000E+00 0.  1.
          3   -1    0    0  501    0  0.00000000000E+00 -0.00000000000E+00 -0.40984820617E+02  0.40984820617E+02  0.00000000000E+00 0. -1.
         25    2    1    2    0    0  0.50380862801E+01  0.89895255134E+02  0.32386461984E+03  0.35866763304E+03  0.12509052643E+03 0.  0.
          5    1    3    3  502    0 -0.51368457170E+02  0.50233328527E+02  0.23697727484E+03  0.24766470657E+03  0.41800000000E+01 0.  1.
         -5    1    3    3    0  502  0.56406543450E+02  0.39661926607E+02  0.86887344996E+02  0.11100292648E+03  0.41800000000E+01 0.  1.
        -11    1    1    2    0    0 -0.29404010847E+02  0.27262617986E+01  0.66155448692E+02  0.72447027191E+02  0.00000000000E+00 0.  1.
         11    1    1    2    0    0  0.24365924566E+02 -0.92621516932E+02  0.91763485200E+02  0.13263853473E+03  0.00000000000E+00 0. -1.
</event>
<event>
 7    1  0.2855090E-009  0.8912854E+02  0.7561462E-02  0.1304976E+00
         -1   -1    0    0    0  501 -0.00000000000E+00  0.00000000000E+00  0.74171758313E+02  0.74171758313E+02  0.00000000000E+00 0.  1.
          1   -1    0    0  501    0  0.00000000000E+00 -0.00000000000E+00 -0.13444536233E+03  0.13444536233E+03  0.00000000000E+00 0. -1.
         25    2    1    2    0    0 -0.19677675324E+02 -0.61684453176E+01 -0.41595400402E+02  0.13342790036E+03  0.12509023398E+03 0.  0.
          5    1    3    3  502    0  0.51755800767E+02  0.10703837309E+02 -0.21528617968E+02  0.57220528115E+02  0.41800000000E+01 0. -1.
         -5    1    3    3    0  502 -0.71433476090E+02 -0.16872282626E+02 -0.20066782433E+02  0.76207372246E+02  0.41800000000E+01 0. -1.
        -11    1    1    2    0    0 -0.74429186660E+01 -0.15378497443E+02 -0.33428361606E+02  0.37541318324E+02  0.00000000000E+00 0. -1.
         11    1    1    2    0    0  0.27120593990E+02  0.21546942760E+02  0.14750157995E+02  0.37647901954E+02  0.00000000000E+00 0.  1.
</event>
<event>
 7    1  0.2855090E-009  0.1121558E+03  0.7561462E-02  0.1256629E+00
          3   -1    0    0  501    0  0.00000000000E+00  0.00000000000E+00  0.53679468872E+03  0.53679468872E+03  0.00000000000E+00 0. -1.
         -3   -1    0    0    0  501 -0.00000000000E+00 -0.00000000000E+00 -0.38208673975E+02  0.38208673975E+02  0.00000000000E+00 0.  1.
         25    2    1    2    0    0  0.70698731709E+02 -0.61262319433E+02  0.28471014899E+03  0.32474462506E+03  0.12509124717E+03 0.  0.
          5    1    3    3  502    0 -0.22103144647E+01  0.13854014627E+02 -0.59336990983E+01  0.15795581544E+02  0.41800000000E+01 0. -1.
         -5    1    3    3    0  502  0.72909046174E+02 -0.75116334060E+02  0.29064384809E+03  0.30894904352E+03  0.41800000000E+01 0. -1.
        -11    1    1    2    0    0 -0.39808948219E+02  0.62377697705E+02  0.65898441801E+02  0.99087507593E+02  0.00000000000E+00 0.  1.
         11    1    1    2    0    0 -0.30889783490E+02 -0.11153782716E+01  0.14797742395E+03  0.15117123004E+03  0.00000000000E+00 0. -1.
</event>
<event>
 7    1  0.2855090E-009  0.1153454E+03  0.7561462E-02  0.1250979E+00
         -2   -1    0    0    0  501 -0.00000000000E+00  0.00000000000E+00  0.17673525393E+02  0.17673525393E+02  0.00000000000E+00 0.  1.
          2   -1    0    0  501    0  0.00000000000E+00 -0.00000000000E+00 -0.10590785660E+04  0.10590785660E+04  0.00000000000E+00 0. -1.
         25    2    1    2    0    0  0.24189284080E+02  0.39424536100E+02 -0.84458702045E+03  0.85505178013E+03  0.12508755364E+03 0.  0.
          5    1    3    3  502    0  0.58870296277E+00  0.81367214922E+02 -0.61981284848E+03  0.62514511098E+03  0.41800000000E+01 0.  1.
         -5    1    3    3    0  502  0.23600581118E+02 -0.41942678822E+02 -0.22477417197E+03  0.22990666915E+03  0.41800000000E+01 0.  1.
        -11    1    1    2    0    0  0.34348151027E+02 -0.14466781289E+02 -0.89238657622E+02  0.96708951261E+02  0.00000000000E+00 0. -1.
         11    1    1    2    0    0 -0.58537435107E+02 -0.24957754811E+02 -0.10757936258E+03  0.12499136005E+03  0.00000000000E+00 0.  1.
</event>
<event>
 7    1  0.2855090E-009  0.1109462E+03  0.7561462E-02  0.1258828E+00
         -2   -1    0    0    0  501 -0.00000000000E+00  0.00000000000E+00  0.14320916364E+03  0.14320916364E+03  0.00000000000E+00 0.  1.
          2   -1    0    0  501    0  0.00000000000E+00 -0.00000000000E+00 -0.20696140822E+03  0.20696140822E+03  0.00000000000E+00 0. -1.
         25    2    1    2    0    0  0.66038652452E+02  0.10165233146E+00  0.84039432239E+02  0.16453456760E+03  0.12509150177E+03 0.  0.
          5    1    3    3  502    0  0.75039915306E+02 -0.39898553049E+02  0.18443355232E+02  0.87066142540E+02  0.41800000000E+01 0. -1.
         -5    1    3    3    0  502 -0.90012628546E+01  0.40000205380E+02  0.65596077006E+02  0.77468425065E+02  0.41800000000E+01 0. -1.
        -11    1    1    2    0    0  0.13518665246E+02 -0.78879565972E+01  0.20695619784E+01  0.15787883205E+02  0.00000000000E+00 0.  1.
         11    1    1    2    0    0 -0.79557317697E+02  0.77863042657E+01 -0.14986123880E+03  0.16984812106E+03  0.00000000000E+00 0. -1.
</event>
<event>
 7    1  0.2855090E-009  0.7132499E+02  0.7561462E-02  0.1355644E+00
         -2   -1    0    0    0  501 -0.00000000000E+00  0.00000000000E+00  0.36623476027E+02  0.36623476027E+02  0.00000000000E+00 0.  1.
          2   -1    0    0  501    0  0.00000000000E+00 -0.00000000000E+00 -0.37386163488E+03  0.37386163488E+03  0.00000000000E+00 0. -1.
         25    2    1    2    0    0  0.27733747820E+02 -0.11351424938E+02 -0.17572565223E+03  0.21777212214E+03  0.12508867541E+03 0.  0.
          5    1    3    3  502    0  0.11031458956E+02 -0.24109339547E+02  0.11588945115E+02  0.29235755317E+02  0.41800000000E+01 0. -1.
         -5    1    3    3    0  502  0.16702288864E+02  0.12757914609E+02 -0.18731459734E+03  0.18853636682E+03  0.41800000000E+01 0. -1.
        -11    1    1    2    0    0  0.91090207944E+01 -0.34430337748E+02 -0.10619271783E+03  0.11200587367E+03  0.00000000000E+00 0. -1.
         11    1    1    2    0    0 -0.36842768614E+02  0.45781762686E+02 -0.55319788795E+02  0.80707115090E+02  0.00000000000E+00 0.  1.
</event>
<event>
 7    1  0.2855090E-009  0.1454380E+03  0.7561462E-02  0.1206194E+00
         -2   -1    0    0    0  501 -0.00000000000E+00  0.00000000000E+00  0.18437009981E+02  0.18437009981E+02  0.00000000000E+00 0.  1.
          2   -1    0    0  501    0  0.00000000000E+00 -0.00000000000E+00 -0.15885681589E+04  0.15885681589E+04  0.00000000000E+00 0. -1.
         25    2    1    2    0    0  0.12957773427E+03 -0.16982129674E+02 -0.92547210271E+03  0.94298723504E+03  0.12509008995E+03 0.  0.
          5    1    3    3  502    0  0.11844929388E+03 -0.11838685319E+02 -0.92188352900E+03  0.92954671918E+03  0.41800000000E+01 0.  1.
         -5    1    3    3    0  502  0.11128440390E+02 -0.51434443545E+01 -0.35885737106E+01  0.13440515862E+02  0.41800000000E+01 0.  1.
        -11    1    1    2    0    0  0.94580326341E+01 -0.13489416774E+02 -0.54404631824E+02  0.56844372721E+02  0.00000000000E+00 0. -1.
         11    1    1    2    0    0 -0.13903576691E+03  0.30471546448E+02 -0.59025441435E+03  0.60717356109E+03  0.00000000000E+00 0.  1.
</event>
<event>
 7    1  0.2855090E-009  0.1168688E+03  0.7561462E-02  0.1248354E+00
          1   -1    0    0  501    0  0.00000000000E+00  0.00000000000E+00  0.62012267344E+02  0.62012267344E+02  0.00000000000E+00 0. -1.
         -1   -1    0    0    0  501 -0.00000000000E+00 -0.00000000000E+00 -0.24591979372E+03  0.24591979372E+03  0.00000000000E+00 0.  1.
         25    2    1    2    0    0 -0.55492512206E+00  0.59182633050E+02 -0.14947644954E+03  0.20369562732E+03  0.12508320282E+03 0.  0.
          5    1    3    3  502    0 -0.58029926762E+02  0.39771587138E+01 -0.56991096732E+02  0.81539853435E+02  0.41800000000E+01 0. -1.
         -5    1    3    3    0  502  0.57475001640E+02  0.55205474336E+02 -0.92485352806E+02  0.12215577389E+03  0.41800000000E+01 0. -1.
        -11    1    1    2    0    0 -0.36981921410E+02 -0.35321940152E+02 -0.30593701608E+02  0.59592588007E+02  0.00000000000E+00 0.  1.
         11    1    1    2    0    0  0.37536846532E+02 -0.23860692898E+02 -0.38373752272E+01  0.44643845733E+02  0.00000000000E+00 0. -1.
</event>
<event>
 7    1  0.2855090E-009  0.1671780E+03  0.7561462E-02  0.1180823E+00
         -1   -1    0    0    0  501 -0.00000000000E+00  0.00000000000E+00  0.54930327613E+03  0.54930327613E+03  0.00000000000E+00 0.  1.
          1   -1    0    0  501    0  0.00000000000E+00 -0.00000000000E+00 -0.81328305987E+02  0.81328305987E+02  0.00000000000E+00 0. -1.
         25    2    1    2    0    0 -0.51205889224E+02  0.15391875377E+03  0.12415042529E+03  0.23952904030E+03  0.12509119551E+03 0.  0.
          5    1    3    3  502    0  0.11550974387E+02  0.41727825544E+02  0.99468525625E+02  0.10856378965E+03  0.41800000000E+01 0. -1.
         -5    1    3    3    0  502 -0.62756863611E+02  0.11219092822E+03  0.24681899670E+02  0.13096525065E+03  0.41800000000E+01 0. -1.
        -11    1    1    2    0    0  0.20394089027E+02 -0.56823957251E+02  0.23247779747E+03  0.24018910738E+03  0.00000000000E+00 0.  1.
         11    1    1    2    0    0  0.30811800198E+02 -0.97094796518E+02  0.11134674738E+03  0.15091343444E+03  0.00000000000E+00 0. -1.
</event>
<event>
 7    1  0.2855090E-009  0.1449809E+03  0.7561462E-02  0.1206780E+00
          2   -1    0    0  501    0  0.00000000000E+00  0.00000000000E+00  0.10737432731E+04  0.10737432731E+04  0.00000000000E+00 0.  1.
         -2   -1    0    0    0  501 -0.00000000000E+00 -0.00000000000E+00 -0.22773457024E+02  0.22773457024E+02  0.00000000000E+00 0. -1.
         25    2    1    2    0    0  0.91839445526E+02  0.61425498779E+02  0.54767535868E+03  0.57254040054E+03  0.12508651445E+03 0.  0.
          5    1    3    3  502    0  0.71949674484E+02 -0.24004122085E+02  0.19981458745E+03  0.21376691815E+03  0.41800000000E+01 0. -1.
         -5    1    3    3    0  502  0.19889771043E+02  0.85429620863E+02  0.34786077123E+03  0.35877348240E+03  0.41800000000E+01 0. -1.
        -11    1    1    2    0    0 -0.58100576419E+02 -0.70393731761E+02  0.45682706786E+03  0.46585611983E+03  0.00000000000E+00 0.  1.
         11    1    1    2    0    0 -0.33738869108E+02  0.89682329821E+01  0.46467389551E+02  0.58120209766E+02  0.00000000000E+00 0. -1.
</event>
<event>
 7    1  0.2855090E-009  0.9278562E+02  0.7561462E-02  0.1296243E+00
         -1   -1    0    0    0  501 -0.00000000000E+00  0.00000000000E+00  0.22848278881E+03  0.22848278881E+03  0.00000000000E+00 0.  1.
          1   -1    0    0  501    0  0.00000000000E+00 -0.00000000000E+00 -0.62727156554E+02  0.62727156554E+02  0.00000000000E+00 0. -1.
         25    2    1    2    0    0  0.73808315256E+01 -0.43576305803E+02  0.12552023789E+03  0.18264017957E+03  0.12509489986E+03 0.  0.
          5    1    3    3  502    0  0.43249664254E+02 -0.27423882717E+02  0.36629538564E+00  0.51382967739E+02  0.41800000000E+01 0. -1.
         -5    1    3    3    0  502 -0.35868832729E+02 -0.16152423085E+02  0.12515394251E+03  0.13125721183E+03  0.41800000000E+01 0. -1.
        -11    1    1    2    0    0 -0.78266418392E+00 -0.25363377054E+02  0.28788082344E+02  0.38375345521E+02  0.00000000000E+00 0.  1.
         11    1    1    2    0    0 -0.65981673416E+01  0.68939682857E+02  0.11447312020E+02  0.70194420271E+02  0.00000000000E+00 0. -1.
</event>
<event>
 7    1  0.2855090E-009  0.1058690E+03  0.7561462E-02  0.1268417E+00
         -1   -1    0    0    0  501 -0.00000000000E+00  0.00000000000E+00  0.61397349459E+02  0.61397349459E+02  0.00000000000E+00 0. -1.
          1   -1    0    0  501    0  0.00000000000E+00 -0.00000000000E+00 -0.23846343291E+03  0.23846343291E+03  0.00000000000E+00 0.  1.
         25    2    1    2    0    0  0.10347475209E+02  0.35300014320E+02 -0.13831579501E+03  0.19008400877E+03  0.12509000754E+03 0.  0.
          5    1    3    3  502    0  0.31455382473E+02 -0.30749730901E+02 -0.10316706037E+03  0.11223146520E+03  0.41800000000E+01 0. -1.
         -5    1    3    3    0  502 -0.21107907264E+02  0.66049745221E+02 -0.35148734642E+02  0.77852543567E+02  0.41800000000E+01 0. -1.
        -11    1    1    2    0    0 -0.46903815400E+02  0.51679733375E+00 -0.34877311704E+02  0.58452218523E+02  0.00000000000E+00 0.  1.
         11    1    1    2    0    0  0.36556340190E+02 -0.35816811654E+02 -0.38729767408E+01  0.51324555079E+02  0.00000000000E+00 0. -1.
</event>
<event>
 7    1  0.2855090E-009  0.1163695E+03  0.7561462E-02  0.1249209E+00
         -1   -1    0    0    0  501 -0.00000000000E+00  0.00000000000E+00  0.10018378717E+03  0.10018378717E+03  0.00000000000E+00 0.  1.
          1   -1    0    0  501    0  0.00000000000E+00 -0.00000000000E+00 -0.23509140891E+03  0.23509140891E+03  0.00000000000E+00 0. -1.
         25    2    1    2    0    0  0.28214554382E+02 -0.64168039579E+02  0.17593365513E+02  0.14446551813E+03  0.12508861274E+03 0.  0.
          5    1    3    3  502    0  0.39128004941E+02 -0.85345416567E+02  0.48067002270E+02  0.10555922511E+03  0.41800000000E+01 0. -1.
         -5    1    3    3    0  502 -0.10913450559E+02  0.21177376988E+02 -0.30473636756E+02  0.38906293017E+02  0.41800000000E+01 0. -1.
        -11    1    1    2    0    0 -0.47160118096E+02 -0.52237189105E+00 -0.58679540183E+02  0.75283717014E+02  0.00000000000E+00 0.  1.
         11    1    1    2    0    0  0.18945563715E+02  0.64690411470E+02 -0.93821447064E+02  0.11552596093E+03  0.00000000000E+00 0. -1.
</event>
<event>
 7    1  0.2855090E-009  0.1029177E+03  0.7561462E-02  0.1274277E+00
         -3   -1    0    0    0  501 -0.00000000000E+00  0.00000000000E+00  0.81710771058E+02  0.81710771058E+02  0.00000000000E+00 0.  1.
          3   -1    0    0  501    0  0.00000000000E+00 -0.00000000000E+00 -0.23067243388E+03  0.23067243388E+03  0.00000000000E+00 0. -1.
         25    2    1    2    0    0  0.11826772956E+02 -0.76831748351E+02 -0.45503898272E+02  0.15414439015E+03  0.12508756190E+03 0.  0.
          5    1    3    3  502    0  0.35498863451E+02 -0.48049472849E+02  0.32105722531E+02  0.67949767966E+02  0.41800000000E+01 0. -1.
         -5    1    3    3    0  502 -0.23672090494E+02 -0.28782275502E+02 -0.77609620804E+02  0.86194622180E+02  0.41800000000E+01 0. -1.
        -11    1    1    2    0    0 -0.23106226858E+02 -0.67794680201E+01  0.83312967243E+00  0.24094667694E+02  0.00000000000E+00 0.  1.
         11    1    1    2    0    0  0.11279453902E+02  0.83611216371E+02 -0.10429089423E+03  0.13414414710E+03  0.00000000000E+00 0. -1.
</event>
<event>
 7    1  0.2855090E-009  0.1111800E+03  0.7561462E-02  0.1258400E+00
         -1   -1    0    0    0  501 -0.00000000000E+00  0.00000000000E+00  0.57401785987E+03  0.57401785987E+03  0.00000000000E+00 0.  1.
          1   -1    0    0  501    0  0.00000000000E+00 -0.00000000000E+00 -0.31447160824E+02  0.31447160824E+02  0.00000000000E+00 0. -1.
         25    2    1    2    0    0 -0.45703651027E+02 -0.38663104579E+02  0.18712284581E+03  0.23290595944E+03  0.12508623883E+03 0.  0.
          5    1    3    3  502    0  0.63458920967E+01 -0.62632724982E+02  0.39352657710E+02  0.74358810198E+02  0.41800000000E+01 0.  1.
         -5    1    3    3    0  502 -0.52049543124E+02  0.23969620404E+02  0.14777018810E+03  0.15854714924E+03  0.41800000000E+01 0.  1.
        -11    1    1    2    0    0  0.65717391074E+02  0.94387675388E+01  0.29603911955E+03  0.30339252813E+03  0.00000000000E+00 0.  1.
         11    1    1    2    0    0 -0.20013740047E+02  0.29224337040E+02  0.59408733691E+02  0.69166533128E+02  0.00000000000E+00 0. -1.
</event>
<event>
 7    1  0.2855090E-009  0.1261131E+03  0.7561462E-02  0.1233340E+00
         -2   -1    0    0    0  501 -0.00000000000E+00  0.00000000000E+00  0.58506694149E+02  0.58506694149E+02  0.00000000000E+00 0.  1.
          2   -1    0    0  501    0  0.00000000000E+00 -0.00000000000E+00 -0.32392078512E+03  0.32392078512E+03  0.00000000000E+00 0. -1.
         25    2    1    2    0    0  0.49524222129E+02  0.63320990782E+02 -0.18254315954E+03  0.23543883412E+03  0.12508894062E+03 0.  0.
          5    1    3    3  502    0  0.80536183283E+02  0.30653145332E+02 -0.16634901748E+03  0.18739039504E+03  0.41800000000E+01 0.  1.
         -5    1    3    3    0  502 -0.31011961155E+02  0.32667845450E+02 -0.16194142058E+02  0.48048439080E+02  0.41800000000E+01 0.  1.
        -11    1    1    2    0    0 -0.54286462665E+02 -0.83713243857E+02 -0.74119936542E+02  0.12429276817E+03  0.00000000000E+00 0.  1.
         11    1    1    2    0    0  0.47622405358E+01  0.20392253075E+02 -0.87509948910E+01  0.22695876982E+02  0.00000000000E+00 0. -1.
</event>
<event>
 7    1  0.2855090E-009  0.1002328E+03  0.7561462E-02  0.1279807E+00
          2   -1    0    0  501    0  0.00000000000E+00  0.00000000000E+00  0.49180431927E+03  0.49180431927E+03  0.00000000000E+00 0. -1.
         -2   -1    0    0    0  501 -0.00000000000E+00 -0.00000000000E+00 -0.36491743510E+02  0.36491743510E+02  0.00000000000E+00 0.  1.
         25    2    1    2    0    0  0.70166387729E+02  0.17811881106E+02  0.18578475194E+03  0.23537753129E+03  0.12508406416E+03 0.  0.
          5    1    3    3  502    0  0.68508532432E+02  0.92523460772E+00  0.24098207820E+02  0.72749371786E+02  0.41800000000E+01 0. -1.
         -5    1    3    3    0  502  0.16578552969E+01  0.16886646499E+02  0.16168654412E+03  0.16262815951E+03  0.41800000000E+01 0. -1.
        -11    1    1    2    0    0 -0.54100913127E+01  0.32122747624E+02  0.87485375523E+02  0.93353258826E+02  0.00000000000E+00 0.  1.
         11    1    1    2    0    0 -0.64756296417E+02 -0.49934628730E+02  0.18204244830E+03  0.19956527267E+03  0.00000000000E+00 0. -1.
</event>
<event>
 7    1  0.2855090E-009  0.1285060E+03  0.7561462E-02  0.1229689E+00
         -1   -1    0    0    0  501 -0.00000000000E+00  0.00000000000E+00  0.20156918931E+02  0.20156918931E+02  0.00000000000E+00 0.  1.
          1   -1    0    0  501    0  0.00000000000E+00 -0.00000000000E+00 -0.87346342479E+03  0.87346342479E+03  0.00000000000E+00 0. -1.
         25    2    1    2    0    0 -0.28708262580E+02  0.69932598063E+02 -0.51676104515E+03  0.53703529243E+03  0.12510073912E+03 0.  0.
          5    1    3    3  502    0  0.40291240740E+02 -0.49697564937E+01 -0.20542381145E+03  0.20943852862E+03  0.41800000000E+01 0. -1.
         -5    1    3    3    0  502 -0.68999503320E+02  0.74902354556E+02 -0.31133723369E+03  0.32759676381E+03  0.41800000000E+01 0. -1.
        -11    1    1    2    0    0  0.63492163084E+01  0.20322995251E+02 -0.34405546952E+02  0.40460824815E+02  0.00000000000E+00 0.  1.
         11    1    1    2    0    0  0.22359046271E+02 -0.90255593313E+02 -0.30213991376E+03  0.31612422647E+03  0.00000000000E+00 0. -1.
</event>
<event>
 7    1  0.2855090E-009  0.2808084E+03  0.7561462E-02  0.1095248E+00
          2   -1    0    0  501    0  0.00000000000E+00  0.00000000000E+00  0.16900893316E+04  0.16900893316E+04  0.00000000000E+00 0. -1.
         -2   -1    0    0    0  501 -0.00000000000E+00 -0.00000000000E+00 -0.50026418937E+02  0.50026418937E+02  0.00000000000E+00 0.  1.
         25    2    1    2    0    0  0.59031565270E+02  0.26057404315E+03  0.94254965497E+03  0.98763886669E+03  0.12508845366E+03 0.  0.
          5    1    3    3  502    0  0.77312310328E+01 -0.99586001656E+01  0.10831100868E+03  0.10912237466E+03  0.41800000000E+01 0. -1.
         -5    1    3    3    0  502  0.51300334237E+02  0.27053264332E+03  0.83423864630E+03  0.87851649203E+03  0.41800000000E+01 0. -1.
        -11    1    1    2    0    0 -0.45998284262E+02 -0.82970219218E+02  0.34115768956E+03  0.35410234196E+03  0.00000000000E+00 0.  1.
         11    1    1    2    0    0 -0.13033281008E+02 -0.17760382393E+03  0.35635556809E+03  0.39837454186E+03  0.00000000000E+00 0. -1.
</event>
<event>
 7    1  0.2855090E-009  0.2340346E+03  0.7561462E-02  0.1123832E+00
         -3   -1    0    0    0  501 -0.00000000000E+00  0.00000000000E+00  0.12648772106E+04  0.12648772106E+04  0.00000000000E+00 0.  1.
          3   -1    0    0  501    0  0.00000000000E+00 -0.00000000000E+00 -0.48363964557E+02  0.48363964557E+02  0.00000000000E+00 0. -1.
         25    2    1    2    0    0  0.20775041568E+03  0.72905238929E+02  0.54947504939E+03  0.60501698226E+03  0.12508920754E+03 0.  0.
          5    1    3    3  502    0  0.20645326100E+03  0.50490146414E+02  0.53991810502E+03  0.58025962844E+03  0.41800000000E+01 0. -1.
         -5    1    3    3    0  502  0.12971546813E+01  0.22415092515E+02  0.95569443679E+01  0.24757353824E+02  0.41800000000E+01 0. -1.
        -11    1    1    2    0    0 -0.95338272827E+02 -0.73267682720E+02  0.26967129328E+03  0.29526284226E+03  0.00000000000E+00 0. -1.
         11    1    1    2    0    0 -0.11241214285E+03  0.36244379089E+00  0.39736690333E+03  0.41296135060E+03  0.00000000000E+00 0.  1.
</event>
<event>
 7    1  0.2855090E-009  0.7440856E+02  0.7561462E-02  0.1345712E+00
          2   -1    0    0  501    0  0.00000000000E+00  0.00000000000E+00  0.60940083292E+03  0.60940083292E+03  0.00000000000E+00 0.  1.
         -2   -1    0    0    0  501 -0.00000000000E+00 -0.00000000000E+00 -0.20067903564E+02  0.20067903564E+02  0.00000000000E+00 0. -1.
         25    2    1    2    0    0 -0.43287900273E+01 -0.19515361717E+02  0.37944994488E+03  0.40004472679E+03  0.12511568648E+03 0.  0.
          5    1    3    3  502    0 -0.27808494089E+02 -0.26583938766E+01  0.36734692648E+03  0.36843129101E+03  0.41800000000E+01 0. -1.
         -5    1    3    3    0  502  0.23479704062E+02 -0.16856967841E+02  0.12103018392E+02  0.31613435780E+02  0.41800000000E+01 0. -1.
        -11    1    1    2    0    0 -0.38741513448E+02  0.27568538374E+02  0.12814586147E+03  0.13668317740E+03  0.00000000000E+00 0. -1.
         11    1    1    2    0    0  0.43070303475E+02 -0.80531766567E+01  0.81737123010E+02  0.92740832289E+02  0.00000000000E+00 0.  1.
</event>
<event>
 7    1  0.2855090E-009  0.1247541E+03  0.7561462E-02  0.1235454E+00
          2   -1    0    0  501    0  0.00000000000E+00  0.00000000000E+00  0.28817857765E+03  0.28817857765E+03  0.00000000000E+00 0. -1.
         -2   -1    0    0    0  501 -0.00000000000E+00 -0.00000000000E+00 -0.67817433309E+02  0.67817433309E+02  0.00000000000E+00 0.  1.
         25    2    1    2    0    0  0.27779412714E+02 -0.81402352135E+02  0.96541787023E+02  0.17990521803E+03  0.12509009604E+03 0.  0.
          5    1    3    3  502    0  0.67527859244E+02 -0.45791800893E+02  0.16081215208E+02  0.83264510361E+02  0.41800000000E+01 0. -1.
         -5    1    3    3    0  502 -0.39748446530E+02 -0.35610551243E+02  0.80460571814E+02  0.96640707665E+02  0.41800000000E+01 0. -1.
        -11    1    1    2    0    0  0.53052228392E+01 -0.13111211385E+02  0.49244980878E+02  0.51235899476E+02  0.00000000000E+00 0. -1.
         11    1    1    2    0    0 -0.33084635553E+02  0.94513563520E+02  0.74574376439E+02  0.12485489346E+03  0.00000000000E+00 0.  1.
</event>
<event>
 7    1  0.2855090E-009  0.1017864E+03  0.7561462E-02  0.1276584E+00
         -1   -1    0    0    0  501 -0.00000000000E+00  0.00000000000E+00  0.44441220805E+03  0.44441220805E+03  0.00000000000E+00 0.  1.
          1   -1    0    0  501    0  0.00000000000E+00 -0.00000000000E+00 -0.50406290582E+02  0.50406290582E+02  0.00000000000E+00 0. -1.
         25    2    1    2    0    0 -0.11648036057E+02  0.52384106225E+02  0.35941064062E+03  0.38432094466E+03  0.12508720390E+03 0.  0.
          5    1    3    3  502    0 -0.61789864595E+02  0.54388633618E+02  0.17992862270E+03  0.19790879844E+03  0.41800000000E+01 0. -1.
         -5    1    3    3    0  502  0.50141828538E+02 -0.20045273933E+01  0.17948201792E+03  0.18641214622E+03  0.41800000000E+01 0. -1.
        -11    1    1    2    0    0  0.29633285896E+02 -0.32305540135E+02 -0.21077730537E+02  0.48642062877E+02  0.00000000000E+00 0. -1.
         11    1    1    2    0    0 -0.17985249839E+02 -0.20078566090E+02  0.55673007386E+02  0.61855491101E+02  0.00000000000E+00 0.  1.
</event>
<event>
 7    1  0.2855090E-009  0.1529982E+03  0.7561462E-02  0.1196837E+00
         -2   -1    0    0    0  501 -0.00000000000E+00  0.00000000000E+00  0.99216058965E+03  0.99216058965E+03  0.00000000000E+00 0.  1.
          2   -1    0    0  501    0  0.00000000000E+00 -0.00000000000E+00 -0.25209879841E+02  0.25209879841E+02  0.00000000000E+00 0. -1.
         25    2    1    2    0    0  0.11286081347E+03 -0.65496722072E+01  0.58542142754E+03  0.60921835723E+03  0.12509315544E+03 0.  0.
          5    1    3    3  502    0  0.77875854145E+02 -0.60522783921E+02  0.42539172898E+03  0.43669583409E+03  0.41800000000E+01 0. -1.
         -5    1    3    3    0  502  0.34984959322E+02  0.53973111714E+02  0.16002969857E+03  0.17252252314E+03  0.41800000000E+01 0. -1.
        -11    1    1    2    0    0 -0.19219487139E+02  0.39195963126E+02  0.86313854420E+02  0.96725351775E+02  0.00000000000E+00 0. -1.
         11    1    1    2    0    0 -0.93641326328E+02 -0.32646290919E+02  0.29521542785E+03  0.31142676049E+03  0.00000000000E+00 0.  1.
</event>
<event>
 7    1  0.2855090E-009  0.9152978E+02  0.7561462E-02  0.1299189E+00
          3   -1    0    0  501    0  0.00000000000E+00  0.00000000000E+00  0.17199589986E+03  0.17199589986E+03  0.00000000000E+00 0. -1.
         -3   -1    0    0    0  501 -0.00000000000E+00 -0.00000000000E+00 -0.11535947083E+03  0.11535947083E+03  0.00000000000E+00 0.  1.
         25    2    1    2    0    0 -0.30330694602E+02  0.11962857343E+02 -0.52689413079E+02  0.13959490820E+03  0.12508998023E+03 0.  0.
          5    1    3    3  502    0 -0.23999717663E+02 -0.36275378956E+02 -0.74299127050E+02  0.86195836597E+02  0.41800000000E+01 0.  1.
         -5    1    3    3    0  502 -0.63309769388E+01  0.48238236299E+02  0.21609713971E+02  0.53399071604E+02  0.41800000000E+01 0.  1.
        -11    1    1    2    0    0 -0.26749502093E+02  0.11110191596E+02  0.95137900609E+01  0.30487446938E+02  0.00000000000E+00 0.  1.
         11    1    1    2    0    0  0.57080196694E+02 -0.23073048938E+02  0.99812052051E+02  0.11727301555E+03  0.00000000000E+00 0. -1.
</event>
<event>
 7    1  0.2855090E-009  0.1395190E+03  0.7561462E-02  0.1213978E+00
         -2   -1    0    0    0  501 -0.00000000000E+00  0.00000000000E+00  0.15444318089E+03  0.15444318089E+03  0.00000000000E+00 0.  1.
          2   -1    0    0  501    0  0.00000000000E+00 -0.00000000000E+00 -0.13905433152E+03  0.13905433152E+03  0.00000000000E+00 0. -1.
         25    2    1    2    0    0  0.21571686427E+02 -0.93358963605E+02  0.32684910334E+02  0.16092473597E+03  0.12508890255E+03 0.  0.
          5    1    3    3  502    0  0.70975052443E+02 -0.71756317896E+02  0.34692358804E+02  0.10680570859E+03  0.41800000000E+01 0. -1.
         -5    1    3    3    0  502 -0.49403366016E+02 -0.21602645709E+02 -0.20074484696E+01  0.54119027381E+02  0.41800000000E+01 0. -1.
        -11    1    1    2    0    0 -0.44389937958E+02  0.90686247385E+02 -0.31249778864E+02  0.10569300230E+03  0.00000000000E+00 0. -1.
         11    1    1    2    0    0  0.22818251531E+02  0.26727162208E+01  0.13953717893E+02  0.26879774143E+02  0.00000000000E+00 0.  1.
</event>
<event>
 7    1  0.2855090E-009  0.8838991E+02  0.7561462E-02  0.1306798E+00
          2   -1    0    0  501    0  0.00000000000E+00  0.00000000000E+00  0.10610859061E+03  0.10610859061E+03  0.00000000000E+00 0.  1.
         -2   -1    0    0    0  501 -0.00000000000E+00 -0.00000000000E+00 -0.13535032993E+03  0.13535032993E+03  0.00000000000E+00 0. -1.
         25    2    1    2    0    0 -0.44368675632E+02 -0.10627340313E+02  0.47243868893E+01  0.13323405479E+03  0.12508986284E+03 0.  0.
          5    1    3    3  502    0 -0.66400612131E+02  0.22205187048E+02 -0.33811304883E+02  0.77863909234E+02  0.41800000000E+01 0. -1.
         -5    1    3    3    0  502  0.22031936499E+02 -0.32832527361E+02  0.38535691772E+02  0.55370145559E+02  0.41800000000E+01 0. -1.
        -11    1    1    2    0    0  0.23811543714E+02  0.30225343337E+02  0.22817136359E+02  0.44734580645E+02  0.00000000000E+00 0.  1.
         11    1    1    2    0    0  0.20557131918E+02 -0.19598003023E+02 -0.56783262565E+02  0.63490285105E+02  0.00000000000E+00 0. -1.
</event>
<event>
 7    1  0.2855090E-009  0.8609008E+02  0.7561462E-02  0.1312606E+00
          3   -1    0    0  501    0  0.00000000000E+00  0.00000000000E+00  0.15377699920E+03  0.15377699920E+03  0.00000000000E+00 0.  1.
         -3   -1    0    0    0  501 -0.00000000000E+00 -0.00000000000E+00 -0.61181129412E+02  0.61181129412E+02  0.00000000000E+00 0. -1.
         25    2    1    2    0    0 -0.52616847323E+01 -0.41907098294E+02  0.86310929051E+02  0.15773662168E+03  0.12508946850E+03 0.  0.
          5    1    3    3  502    0 -0.18748431641E+02 -0.80665210026E+02  0.81396737418E+02  0.11619501306E+03  0.41800000000E+01 0. -1.
         -5    1    3    3    0  502  0.13486746909E+02  0.38758111731E+02  0.49141916330E+01  0.41541608618E+02  0.41800000000E+01 0. -1.
        -11    1    1    2    0    0 -0.88556015785E+01  0.11766865991E+02  0.16777554770E+02  0.22324138474E+02  0.00000000000E+00 0.  1.
         11    1    1    2    0    0  0.14117286311E+02  0.30140232303E+02 -0.10492614035E+02  0.34897368459E+02  0.00000000000E+00 0. -1.
</event>
<event>
 7    1  0.2855090E-009  0.9265072E+02  0.7561462E-02  0.1296557E+00
          2   -1    0    0  501    0  0.00000000000E+00  0.00000000000E+00  0.21414693676E+03  0.21414693676E+03  0.00000000000E+00 0. -1.
         -2   -1    0    0    0  501 -0.00000000000E+00 -0.00000000000E+00 -0.69894589741E+02  0.69894589741E+02  0.00000000000E+00 0.  1.
         25    2    1    2    0    0 -0.40101113052E+02 -0.40050761855E+02  0.83418100003E+02  0.16068177704E+03  0.12509153157E+03 0.  0.
          5    1    3    3  502    0  0.33450933564E+02  0.32026563171E+01 -0.87862930867E+01  0.34984186570E+02  0.41800000000E+01 0.  1.
         -5    1    3    3    0  502 -0.73552046616E+02 -0.43253418172E+02  0.92204393090E+02  0.12569759047E+03  0.41800000000E+01 0.  1.
        -11    1    1    2    0    0  0.15885352558E+02  0.38610117138E+02  0.81448339161E+02  0.91525502038E+02  0.00000000000E+00 0. -1.
         11    1    1    2    0    0  0.24215760495E+02  0.14406447167E+01 -0.20614092149E+02  0.31834247418E+02  0.00000000000E+00 0.  1.
</event>
<event>
 7    1  0.2855090E-009  0.5858044E+02  0.7561462E-02  0.1403887E+00
          3   -1    0    0  501    0  0.00000000000E+00  0.00000000000E+00  0.44080752769E+03  0.44080752769E+03  0.00000000000E+00 0. -1.
         -3   -1    0    0    0  501 -0.00000000000E+00 -0.00000000000E+00 -0.30679092573E+02  0.30679092573E+02  0.00000000000E+00 0.  1.
         25    2    1    2    0    0 -0.62322385813E+01 -0.26672483948E+02  0.16730552295E+03  0.21069058081E+03  0.12509644533E+03 0.  0.
          5    1    3    3  502    0 -0.29549027616E+02 -0.65038404629E+01  0.17580541317E+03  0.17843895504E+03  0.41800000000E+01 0. -1.
         -5    1    3    3    0  502  0.23316789035E+02 -0.20168643485E+02 -0.84998902263E+01  0.32251625770E+02  0.41800000000E+01 0. -1.
        -11    1    1    2    0    0  0.36862328645E+00 -0.14205058477E+02 -0.27800711448E+00  0.14212559848E+02  0.00000000000E+00 0.  1.
         11    1    1    2    0    0  0.58636152948E+01  0.40877542426E+02  0.24310091929E+03  0.24658347961E+03  0.00000000000E+00 0. -1.
</event>
<event>
 7    1  0.2855090E-009  0.1197963E+03  0.7561462E-02  0.1243434E+00
         -2   -1    0    0    0  501 -0.00000000000E+00  0.00000000000E+00  0.13590740096E+03  0.13590740096E+03  0.00000000000E+00 0.  1.
          2   -1    0    0  501    0  0.00000000000E+00 -0.00000000000E+00 -0.21164118392E+03  0.21164118392E+03  0.00000000000E+00 0. -1.
         25    2    1    2    0    0  0.61874240571E+02 -0.53347300693E+02  0.63303678114E+02  0.16226487883E+03  0.12509268205E+03 0.  0.
          5    1    3    3  502    0  0.20320047653E+02 -0.86998783208E+02  0.16221971840E+02  0.90897290316E+02  0.41800000000E+01 0. -1.
         -5    1    3    3    0  502  0.41554192918E+02  0.33651482516E+02  0.47081706274E+02  0.71367588514E+02  0.41800000000E+01 0. -1.
        -11    1    1    2    0    0 -0.21186423483E+02 -0.82181141139E+01  0.51573851593E+01  0.23302372438E+02  0.00000000000E+00 0.  1.
         11    1    1    2    0    0 -0.40687817088E+02  0.61565414807E+02 -0.14419484623E+03  0.16198133361E+03  0.00000000000E+00 0. -1.
</event>
<event>
 7    1  0.2855090E-009  0.2220472E+03  0.7561462E-02  0.1132366E+00
          2   -1    0    0  501    0  0.00000000000E+00  0.00000000000E+00  0.70922889704E+02  0.70922889704E+02  0.00000000000E+00 0. -1.
         -2   -1    0    0    0  501 -0.00000000000E+00 -0.00000000000E+00 -0.89465844693E+03  0.89465844693E+03  0.00000000000E+00 0.  1.
         25    2    1    2    0    0  0.11563357679E+03 -0.17431982443E+03 -0.59246868767E+03  0.64064443632E+03  0.12509045786E+03 0.  0.
          5    1    3    3  502    0  0.12178958945E+03 -0.17614024389E+03 -0.59515803092E+03  0.63252560722E+03  0.41800000000E+01 0. -1.
         -5    1    3    3    0  502 -0.61560126583E+01  0.18204194645E+01  0.26893432497E+01  0.81188291022E+01  0.41800000000E+01 0. -1.
        -11    1    1    2    0    0 -0.32617105928E+02  0.11675678356E+03 -0.16247783408E+03  0.20271918674E+03  0.00000000000E+00 0.  1.
         11    1    1    2    0    0 -0.83016470863E+02  0.57563040868E+02 -0.68789035466E+02  0.12221771356E+03  0.00000000000E+00 0. -1.
</event>
<event>
 7    1  0.2855090E-009  0.1053116E+03  0.7561462E-02  0.1269507E+00
         -2   -1    0    0    0  501 -0.00000000000E+00  0.00000000000E+00  0.64228294817E+02  0.64228294817E+02  0.00000000000E+00 0.  1.
          2   -1    0    0  501    0  0.00000000000E+00 -0.00000000000E+00 -0.24606739892E+03  0.24606739892E+03  0.00000000000E+00 0. -1.
         25    2    1    2    0    0 -0.30232145910E+02 -0.23751660933E+02 -0.43033519593E+02  0.13775913291E+03  0.12509025082E+03 0.  0.
          5    1    3    3  502    0  0.28537217247E+02 -0.47241324711E+02  0.85469844836E+01  0.56005703927E+02  0.41800000000E+01 0.  1.
         -5    1    3    3    0  502 -0.58769363157E+02  0.23489663778E+02 -0.51580504076E+02  0.81753428987E+02  0.41800000000E+01 0.  1.
        -11    1    1    2    0    0 -0.26469798198E+02 -0.69481242391E+01 -0.11208488714E+02  0.29572907641E+02  0.00000000000E+00 0.  1.
         11    1    1    2    0    0  0.56701944108E+02  0.30699785172E+02 -0.12759709579E+03  0.14296365318E+03  0.00000000000E+00 0. -1.
</event>
<event>
 7    1  0.2931346E-009  0.1189505E+03  0.7561462E-02  0.1244838E+00
          1   -1    0    0  501    0  0.00000000000E+00  0.00000000000E+00  0.45531490816E+03  0.45531490816E+03  0.00000000000E+00 0. -1.
         -1   -1    0    0    0  501 -0.00000000000E+00 -0.00000000000E+00 -0.47081892586E+02  0.47081892586E+02  0.00000000000E+00 0.  1.
         25    2    1    2    0    0 -0.59600904182E+02  0.56097140730E+02  0.12840396264E+03  0.19706468769E+03  0.12509099302E+03 0.  0.
          5    1    3    3  502    0 -0.11711500196E+02 -0.30392745972E+02 -0.25414849130E+01  0.32936450782E+02  0.41800000000E+01 0. -1.
         -5    1    3    3    0  502 -0.47889403986E+02  0.86489886701E+02  0.13094544756E+03  0.16412823691E+03  0.41800000000E+01 0. -1.
        -11    1    1    2    0    0  0.16521851232E+02 -0.60586757078E+02  0.23397584174E+03  0.24225693224E+03  0.00000000000E+00 0. -1.
         11    1    1    2    0    0  0.43079052950E+02  0.44896163481E+01  0.45853211195E+02  0.63075180816E+02  0.00000000000E+00 0.  1.
</event>
<event>
 7    1  0.2855090E-009  0.1628573E+03  0.7561462E-02  0.1185508E+00
         -2   -1    0    0    0  501 -0.00000000000E+00  0.00000000000E+00  0.18666358943E+03  0.18666358943E+03  0.00000000000E+00 0.  1.
          2   -1    0    0  501    0  0.00000000000E+00 -0.00000000000E+00 -0.46625550020E+03  0.46625550020E+03  0.00000000000E+00 0. -1.
         25    2    1    2    0    0  0.63941341815E+02 -0.14547522331E+03  0.10755769389E+03  0.22905849543E+03  0.12509037143E+03 0.  0.
          5    1    3    3  502    0 -0.19488005018E+01 -0.21464954873E+02  0.83731657023E+02  0.86562144722E+02  0.41800000000E+01 0. -1.
         -5    1    3    3    0  502  0.65890142317E+02 -0.12401026844E+03  0.23826036868E+02  0.14249635071E+03  0.41800000000E+01 0. -1.
        -11    1    1    2    0    0 -0.27462732346E+02  0.10608754320E+03 -0.18804922730E+03  0.21764944378E+03  0.00000000000E+00 0.  1.
         11    1    1    2    0    0 -0.36478609469E+02  0.39387680110E+02 -0.19910037735E+03  0.20621115042E+03  0.00000000000E+00 0. -1.
</event>
<event>
 7    1  0.2855090E-009  0.1143537E+03  0.7561462E-02  0.1252713E+00
          1   -1    0    0  501    0  0.00000000000E+00  0.00000000000E+00  0.27364707855E+03  0.27364707855E+03  0.00000000000E+00 0. -1.
         -1   -1    0    0    0  501 -0.00000000000E+00 -0.00000000000E+00 -0.81192425793E+02  0.81192425793E+02  0.00000000000E+00 0.  1.
         25    2    1    2    0    0  0.85934342178E+02  0.46874573802E+02  0.75860032850E+02  0.17602017653E+03  0.12508565516E+03 0.  0.
          5    1    3    3  502    0 -0.55808652875E+01 -0.17091646877E+02 -0.21134133219E+02  0.28060549482E+02  0.41800000000E+01 0.  1.
         -5    1    3    3    0  502  0.91515207465E+02  0.63966220679E+02  0.96994166069E+02  0.14795962705E+03  0.41800000000E+01 0.  1.
        -11    1    1    2    0    0 -0.11259760307E+02 -0.10729001586E+02 -0.16061108836E+02  0.22357390149E+02  0.00000000000E+00 0.  1.
         11    1    1    2    0    0 -0.74674581871E+02 -0.36145572216E+02  0.13265572874E+03  0.15646193766E+03  0.00000000000E+00 0. -1.
</event>
<event>
 7    1  0.2855090E-009  0.1524029E+03  0.7561462E-02  0.1197551E+00
          2   -1    0    0  501    0  0.00000000000E+00  0.00000000000E+00  0.19546845927E+04  0.19546845927E+04  0.00000000000E+00 0. -1.
         -2   -1    0    0    0  501 -0.00000000000E+00 -0.00000000000E+00 -0.23331126529E+02  0.23331126529E+02  0.00000000000E+00 0.  1.
         25    2    1    2    0    0 -0.22547201429E+02 -0.12532736953E+03  0.16213241359E+04  0.16311208769E+04  0.12509210865E+03 0.  0.
          5    1    3    3  502    0 -0.53412397296E+02 -0.36758324628E+02  0.32677970343E+03  0.33317638810E+03  0.41800000000E+01 0. -1.
         -5    1    3    3    0  502  0.30865195868E+02 -0.88569044902E+02  0.12945444325E+04  0.12979444888E+04  0.41800000000E+01 0. -1.
        -11    1    1    2    0    0  0.59435466216E+01  0.12883853300E+03  0.30144228251E+03  0.32787519427E+03  0.00000000000E+00 0. -1.
         11    1    1    2    0    0  0.16603654807E+02 -0.35111634747E+01  0.85870477541E+01  0.19019648026E+02  0.00000000000E+00 0.  1.
</event>
<event>
 7    1  0.2855090E-009  0.7904906E+02  0.7561462E-02  0.1331772E+00
         -1   -1    0    0    0  501 -0.00000000000E+00  0.00000000000E+00  0.51776789444E+03  0.51776789444E+03  0.00000000000E+00 0.  1.
          1   -1    0    0  501    0  0.00000000000E+00 -0.00000000000E+00 -0.53973733665E+02  0.53973733665E+02  0.00000000000E+00 0. -1.
         25    2    1    2    0    0  0.61130908894E+02  0.72014814010E+01  0.42754775673E+03  0.44970930696E+03  0.12511006006E+03 0.  0.
          5    1    3    3  502    0 -0.57508035957E+01 -0.11906524215E+02  0.32745785055E+03  0.32775135904E+03  0.41800000000E+01 0. -1.
         -5    1    3    3    0  502  0.66881712490E+02  0.19108005616E+02  0.10008990617E+03  0.12195794792E+03  0.41800000000E+01 0. -1.
        -11    1    1    2    0    0 -0.13409800610E+02  0.16502005731E+02  0.60027633037E+02  0.63682459701E+02  0.00000000000E+00 0.  1.
         11    1    1    2    0    0 -0.47721108284E+02 -0.23703487132E+02 -0.23781228989E+02  0.58349861442E+02  0.00000000000E+00 0. -1.
</event>
<event>
 7    1  0.2855090E-009  0.1940774E+03  0.7561462E-02  0.1154834E+00
          2   -1    0    0  501    0  0.00000000000E+00  0.00000000000E+00  0.68055203353E+03  0.68055203353E+03  0.00000000000E+00 0. -1.
         -2   -1    0    0    0  501 -0.00000000000E+00 -0.00000000000E+00 -0.56873828961E+02  0.56873828961E+02  0.00000000000E+00 0.  1.
         25    2    1    2    0    0  0.81599382745E+01 -0.16886331989E+03  0.32675040318E+03  0.38858326464E+03  0.12509884964E+03 0.  0.
          5    1    3    3  502    0 -0.13914144543E+02  0.17331633971E+02  0.30778146146E+02  0.38193659613E+02  0.41800000000E+01 0. -1.
         -5    1    3    3    0  502  0.22074082818E+02 -0.18619495386E+03  0.29597225704E+03  0.35038960502E+03  0.41800000000E+01 0. -1.
        -11    1    1    2    0    0  0.14840741028E+02  0.11023522066E+02  0.63392806084E+02  0.66033427113E+02  0.00000000000E+00 0. -1.
         11    1    1    2    0    0 -0.23000679302E+02  0.15783979782E+03  0.23353499530E+03  0.28280917074E+03  0.00000000000E+00 0.  1.
</event>
<event>
 7    1  0.2855090E-009  0.1224043E+03  0.7561462E-02  0.1239183E+00
          2   -1    0    0  501    0  0.00000000000E+00  0.00000000000E+00  0.35938582823E+03  0.35938582823E+03  0.00000000000E+00 0. -1.
         -2   -1    0    0    0  501 -0.00000000000E+00 -0.00000000000E+00 -0.11360563390E+03  0.11360563390E+03  0.00000000000E+00 0.  1.
         25    2    1    2    0    0  0.94244955162E+02  0.12039413462E+02  0.29257949208E+03  0.33207884734E+03  0.12508614077E+03 0.  0.
          5    1    3    3  502    0  0.25332646001E+02  0.58199590866E+02  0.70383306365E+02  0.94869476362E+02  0.41800000000E+01 0.  1.
         -5    1    3    3    0  502  0.68912309160E+02 -0.46160177403E+02  0.22219618572E+03  0.23720937098E+03  0.41800000000E+01 0.  1.
        -11    1    1    2    0    0 -0.74241965663E+02 -0.19564492686E+02 -0.73788418455E+02  0.10648647584E+03  0.00000000000E+00 0.  1.
         11    1    1    2    0    0 -0.20002989499E+02  0.75250792240E+01  0.26989120711E+02  0.34426138949E+02  0.00000000000E+00 0. -1.
</event>
<event>
 7    1  0.2855090E-009  0.1115601E+03  0.7561462E-02  0.1257708E+00
          2   -1    0    0  501    0  0.00000000000E+00  0.00000000000E+00  0.18902479107E+03  0.18902479107E+03  0.00000000000E+00 0. -1.
         -2   -1    0    0    0  501 -0.00000000000E+00 -0.00000000000E+00 -0.96210678364E+02  0.96210678364E+02  0.00000000000E+00 0.  1.
         25    2    1    2    0    0  0.71466640198E+02  0.31393801698E+02  0.56747076810E+02  0.15798552242E+03  0.12508454390E+03 0.  0.
          5    1    3    3  502    0  0.52028993239E+02 -0.15966314000E+02  0.83741228065E+02  0.99960016996E+02  0.41800000000E+01 0. -1.
         -5    1    3    3    0  502  0.19437646959E+02  0.47360115698E+02 -0.26994151255E+02  0.58025505428E+02  0.41800000000E+01 0. -1.
        -11    1    1    2    0    0 -0.19644961422E+02 -0.56334038328E+02  0.56510712432E+00  0.59663789100E+02  0.00000000000E+00 0. -1.
         11    1    1    2    0    0 -0.51821678775E+02  0.24940236630E+02  0.35501928768E+02  0.67586157906E+02  0.00000000000E+00 0.  1.
</event>
<event>
 7    1  0.2855090E-009  0.1057440E+03  0.7561462E-02  0.1268661E+00
         -1   -1    0    0    0  501 -0.00000000000E+00  0.00000000000E+00  0.10165842016E+03  0.10165842016E+03  0.00000000000E+00 0.  1.
          1   -1    0    0  501    0  0.00000000000E+00 -0.00000000000E+00 -0.17933737608E+03  0.17933737608E+03  0.00000000000E+00 0. -1.
         25    2    1    2    0    0  0.55474939794E+00  0.32683493867E+02  0.34081969561E+02  0.13370795719E+03  0.12509084158E+03 0.  0.
          5    1    3    3  502    0  0.54496137973E+02  0.51167095156E+01  0.46247939618E+02  0.71779900315E+02  0.41800000000E+01 0. -1.
         -5    1    3    3    0  502 -0.53941388575E+02  0.27566784352E+02 -0.12165970058E+02  0.61928056875E+02  0.41800000000E+01 0. -1.
        -11    1    1    2    0    0 -0.46046366702E+01  0.31361952651E+02 -0.34489590928E+02  0.46843426811E+02  0.00000000000E+00 0. -1.
         11    1    1    2    0    0  0.40498872723E+01 -0.64045446519E+02 -0.77271334558E+02  0.10044441224E+03  0.00000000000E+00 0.  1.
</event>
<event>
 7    1  0.2855090E-009  0.1411878E+03  0.7561462E-02  0.1211740E+00
          2   -1    0    0  501    0  0.00000000000E+00  0.00000000000E+00  0.31171874493E+04  0.31171874493E+04  0.00000000000E+00 0. -1.
         -2   -1    0    0    0  501 -0.00000000000E+00 -0.00000000000E+00 -0.93474725145E+01  0.93474725145E+01  0.00000000000E+00 0.  1.
         25    2    1    2    0    0  0.86749316776E+02  0.25009567787E+02  0.25168533196E+04  0.25215767166E+04  0.12509030037E+03 0.  0.
          5    1    3    3  502    0  0.10634897477E+03 -0.16243839173E+02  0.16470785571E+04  0.16505935939E+04  0.41800000000E+01 0. -1.
         -5    1    3    3    0  502 -0.19599657993E+02  0.41253406960E+02  0.86977476247E+03  0.87098312269E+03  0.41800000000E+01 0. -1.
        -11    1    1    2    0    0 -0.52796771124E+02  0.32547891649E+02  0.26033257366E+03  0.26761897018E+03  0.00000000000E+00 0.  1.
         11    1    1    2    0    0 -0.33952545652E+02 -0.57557459436E+02  0.33065408362E+03  0.33733923505E+03  0.00000000000E+00 0. -1.
</event>
<event>
 7    1  0.2855090E-009  0.7027915E+02  0.7561462E-02  0.1359146E+00
         -2   -1    0    0    0  501 -0.00000000000E+00  0.00000000000E+00  0.55373629758E+03  0.55373629758E+03  0.00000000000E+00 0.  1.
          2   -1    0    0  501    0  0.00000000000E+00 -0.00000000000E+00 -0.28458228715E+02  0.28458228715E+02  0.00000000000E+00 0. -1.
         25    2    1    2    0    0  0.25958644452E+02  0.26393735076E+02  0.41369113626E+03  0.43377238292E+03  0.12509054118E+03 0.  0.
          5    1    3    3  502    0  0.23698891794E+02  0.31258017512E+01  0.54888434620E+01  0.24879869602E+02  0.41800000000E+01 0. -1.
         -5    1    3    3    0  502  0.22597526576E+01  0.23267933325E+02  0.40820229280E+03  0.40889251332E+03  0.41800000000E+01 0. -1.
        -11    1    1    2    0    0 -0.51368129549E+01 -0.56062374507E+02  0.90228927491E+02  0.10635147408E+03  0.00000000000E+00 0.  1.
         11    1    1    2    0    0 -0.20821831497E+02  0.29668639431E+02  0.21358005119E+02  0.42070669298E+02  0.00000000000E+00 0. -1.
</event>
<event>
 7    1  0.2855090E-009  0.7434454E+02  0.7561462E-02  0.1345913E+00
          1   -1    0    0  501    0  0.00000000000E+00  0.00000000000E+00  0.13248864345E+03  0.13248864345E+03  0.00000000000E+00 0. -1.
         -1   -1    0    0    0  501 -0.00000000000E+00 -0.00000000000E+00 -0.90163937659E+02  0.90163937659E+02  0.00000000000E+00 0.  1.
         25    2    1    2    0    0 -0.54198583258E+01  0.65510579461E+01  0.34987959616E+02  0.13016950465E+03  0.12509057278E+03 0.  0.
          5    1    3    3  502    0  0.25965244615E+02  0.55747471012E+01  0.74688695827E+02  0.79379754456E+02  0.41800000000E+01 0.  1.
         -5    1    3    3    0  502 -0.31385102941E+02  0.97631084488E+00 -0.39700736211E+02  0.50789750198E+02  0.41800000000E+01 0.  1.
        -11    1    1    2    0    0  0.46798765162E+02  0.52674818489E+01 -0.58935397146E+01  0.47461611815E+02  0.00000000000E+00 0.  1.
         11    1    1    2    0    0 -0.41378906836E+02 -0.11818539795E+02  0.13230285893E+02  0.45021464644E+02  0.00000000000E+00 0. -1.
</event>
<event>
 7    1  0.2855090E-009  0.1152407E+03  0.7561462E-02  0.1251162E+00
         -1   -1    0    0    0  501 -0.00000000000E+00  0.00000000000E+00  0.26861913029E+02  0.26861913029E+02  0.00000000000E+00 0.  1.
          1   -1    0    0  501    0  0.00000000000E+00 -0.00000000000E+00 -0.56843004716E+03  0.56843004716E+03  0.00000000000E+00 0. -1.
         25    2    1    2    0    0  0.57300012821E+02 -0.35498974083E+01 -0.25187985093E+03  0.28702989175E+03  0.12508719445E+03 0.  0.
          5    1    3    3  502    0  0.55390162663E+02  0.48111620665E+02 -0.85436474012E+02  0.11269277552E+03  0.41800000000E+01 0. -1.
         -5    1    3    3    0  502  0.19098501582E+01 -0.51661518073E+02 -0.16644337692E+03  0.17433711623E+03  0.41800000000E+01 0. -1.
        -11    1    1    2    0    0 -0.66457923105E+01 -0.38639342763E+02 -0.11861538855E+03  0.12492708179E+03  0.00000000000E+00 0.  1.
         11    1    1    2    0    0 -0.50654220511E+02  0.42189240172E+02 -0.17107289466E+03  0.18333498665E+03  0.00000000000E+00 0. -1.
</event>
<event>
 7    1  0.2855090E-009  0.8924020E+02  0.7561462E-02  0.1304702E+00
         -4   -1    0    0    0  501 -0.00000000000E+00  0.00000000000E+00  0.84261924969E+02  0.84261924969E+02  0.00000000000E+00 0.  1.
          4   -1    0    0  501    0  0.00000000000E+00 -0.00000000000E+00 -0.22676599004E+03  0.22676599004E+03  0.00000000000E+00 0. -1.
         25    2    1    2    0    0  0.58205580061E+02  0.43572531584E+01 -0.14840954919E+03  0.20268073604E+03  0.12508881351E+03 0.  0.
          5    1    3    3  502    0  0.45439240254E+02 -0.14723851504E+02  0.43541054321E+01  0.48145061970E+02  0.41800000000E+01 0. -1.
         -5    1    3    3    0  502  0.12766339807E+02  0.19081104662E+02 -0.15276365462E+03  0.15453567407E+03  0.41800000000E+01 0. -1.
        -11    1    1    2    0    0 -0.61738044348E+02  0.32774274754E+02 -0.31339265488E+01  0.69968283538E+02  0.00000000000E+00 0. -1.
         11    1    1    2    0    0  0.35324642871E+01 -0.37131527912E+02  0.90394106697E+01  0.38378895428E+02  0.00000000000E+00 0.  1.
</event>
<event>
 7    1  0.2855090E-009  0.9897412E+02  0.7561462E-02  0.1282468E+00
          3   -1    0    0  501    0  0.00000000000E+00  0.00000000000E+00  0.16046621287E+03  0.16046621287E+03  0.00000000000E+00 0. -1.
         -3   -1    0    0    0  501 -0.00000000000E+00 -0.00000000000E+00 -0.86656423922E+02  0.86656423922E+02  0.00000000000E+00 0.  1.
         25    2    1    2    0    0  0.32050283807E+02  0.81582329761E+00  0.76552661776E+02  0.15011934462E+03  0.12509045265E+03 0.  0.
          5    1    3    3  502    0  0.73802171502E+02 -0.26855687667E+02  0.50972993126E+02  0.93721432484E+02  0.41800000000E+01 0. -1.
         -5    1    3    3    0  502 -0.41751887695E+02  0.27671510965E+02  0.25579668650E+02  0.56397912137E+02  0.41800000000E+01 0. -1.
        -11    1    1    2    0    0  0.17015089417E+02  0.86180214738E+01 -0.33343465290E+02  0.38413151908E+02  0.00000000000E+00 0.  1.
         11    1    1    2    0    0 -0.49065373224E+02 -0.94338447714E+01  0.30600592459E+02  0.58590140260E+02  0.00000000000E+00 0. -1.
</event>
<event>
 7    1  0.2855090E-009  0.1001791E+03  0.7561462E-02  0.1279920E+00
          2   -1    0    0  501    0  0.00000000000E+00  0.00000000000E+00  0.11037431567E+04  0.11037431567E+04  0.00000000000E+00 0. -1.
         -2   -1    0    0    0  501 -0.00000000000E+00 -0.00000000000E+00 -0.15834846082E+02  0.15834846082E+02  0.00000000000E+00 0.  1.
         25    2    1    2    0    0 -0.22405873697E+02 -0.47395217213E+02  0.83900306769E+03  0.84989537631E+03  0.12509066029E+03 0.  0.
          5    1    3    3  502    0  0.30521935348E+02 -0.11520758898E+02  0.63970363778E+03  0.64054861878E+03  0.41800000000E+01 0. -1.
         -5    1    3    3    0  502 -0.52927809045E+02 -0.35874458316E+02  0.19929942991E+03  0.20934675754E+03  0.41800000000E+01 0. -1.
        -11    1    1    2    0    0  0.48383272056E+02  0.57826165923E+02  0.19172887837E+03  0.20602128356E+03  0.00000000000E+00 0. -1.
         11    1    1    2    0    0 -0.25977398359E+02 -0.10430948709E+02  0.57176364554E+02  0.63661342902E+02  0.00000000000E+00 0.  1.
</event>
<event>
 7    1  0.2855090E-009  0.4880103E+02  0.7561462E-02  0.1451918E+00
          2   -1    0    0  501    0  0.00000000000E+00  0.00000000000E+00  0.24993863995E+03  0.24993863995E+03  0.00000000000E+00 0. -1.
         -2   -1    0    0    0  501 -0.00000000000E+00 -0.00000000000E+00 -0.50452606755E+02  0.50452606755E+02  0.00000000000E+00 0.  1.
         25    2    1    2    0    0  0.95705459747E+01 -0.11175998279E+02  0.10112319847E+03  0.16152535767E+03  0.12509213251E+03 0.  0.
          5    1    3    3  502    0 -0.27532925429E+01  0.92763228555E+01 -0.28118845485E+02  0.30029529749E+02  0.41800000000E+01 0.  1.
         -5    1    3    3    0  502  0.12323838518E+02 -0.20452321134E+02  0.12924204396E+03  0.13149582792E+03  0.41800000000E+01 0.  1.
        -11    1    1    2    0    0  0.11507320397E+02 -0.21238253957E+02 -0.81969564747E+01  0.25508272175E+02  0.00000000000E+00 0.  1.
         11    1    1    2    0    0 -0.21077866372E+02  0.32414252236E+02  0.10655979120E+03  0.11335761685E+03  0.00000000000E+00 0. -1.
</event>
<event>
 7    1  0.2855090E-009  0.1450316E+03  0.7561462E-02  0.1206715E+00
         -1   -1    0    0    0  501 -0.00000000000E+00  0.00000000000E+00  0.12275571849E+03  0.12275571849E+03  0.00000000000E+00 0.  1.
          1   -1    0    0  501    0  0.00000000000E+00 -0.00000000000E+00 -0.21638306251E+03  0.21638306251E+03  0.00000000000E+00 0. -1.
         25    2    1    2    0    0 -0.10860934282E+03 -0.41447839527E+02 -0.88607794914E+02  0.19238876781E+03  0.12509270126E+03 0.  0.
          5    1    3    3  502    0  0.28041130455E+02 -0.35604146986E+01 -0.10506578970E+02  0.30444082375E+02  0.41800000000E+01 0.  1.
         -5    1    3    3    0  502 -0.13665047328E+03 -0.37887424828E+02 -0.78101215944E+02  0.16194468543E+03  0.41800000000E+01 0.  1.
        -11    1    1    2    0    0  0.34728974099E+02  0.27815223751E+02 -0.43599645616E+02  0.62295404423E+02  0.00000000000E+00 0. -1.
         11    1    1    2    0    0  0.73880368723E+02  0.13632615776E+02  0.38580096514E+02  0.84454608770E+02  0.00000000000E+00 0.  1.
</event>
<event>
 7    1  0.2855090E-009  0.9637815E+02  0.7561462E-02  0.1288102E+00
         -1   -1    0    0    0  501 -0.00000000000E+00  0.00000000000E+00  0.14184665659E+02  0.14184665659E+02  0.00000000000E+00 0.  1.
          1   -1    0    0  501    0  0.00000000000E+00 -0.00000000000E+00 -0.14674884947E+04  0.14674884947E+04  0.00000000000E+00 0. -1.
         25    2    1    2    0    0 -0.18060389413E+02 -0.25230116354E+02 -0.12088559765E+04  0.12157067477E+04  0.12508952060E+03 0.  0.
          5    1    3    3  502    0  0.35956972172E+02  0.29026757098E+02 -0.29350753252E+03  0.29715248699E+03  0.41800000000E+01 0.  1.
         -5    1    3    3    0  502 -0.54017361586E+02 -0.54256873452E+02 -0.91534844393E+03  0.91855426071E+03  0.41800000000E+01 0.  1.
        -11    1    1    2    0    0  0.27249993027E+02  0.42286713899E+02 -0.24111517632E+03  0.24630724014E+03  0.00000000000E+00 0. -1.
         11    1    1    2    0    0 -0.91896036135E+01 -0.17056597545E+02 -0.33326763074E+01  0.19659172560E+02  0.00000000000E+00 0.  1.
</event>
<event>
 7    1  0.4266631E-009  0.8841275E+02  0.7561462E-02  0.1306742E+00
         -2   -1    0    0    0  501 -0.00000000000E+00  0.00000000000E+00  0.94088911377E+02  0.94088911377E+02  0.00000000000E+00 0.  1.
          2   -1    0    0  501    0  0.00000000000E+00 -0.00000000000E+00 -0.17047311843E+03  0.17047311843E+03  0.00000000000E+00 0. -1.
         25    2    1    2    0    0  0.58078523258E+01  0.17995369273E+02 -0.10809571296E+03  0.16640253628E+03  0.12509019329E+03 0.  0.
          5    1    3    3  502    0 -0.11807165732E+02  0.67589940040E+02 -0.83510522950E+02  0.10816325162E+03  0.41800000000E+01 0.  1.
         -5    1    3    3    0  502  0.17615018057E+02 -0.49594570767E+02 -0.24585190007E+02  0.58239284666E+02  0.41800000000E+01 0.  1.
        -11    1    1    2    0    0 -0.26654176188E+02 -0.21380527475E+02  0.56230739663E+02  0.65798694108E+02  0.00000000000E+00 0.  1.
         11    1    1    2    0    0  0.20846323863E+02  0.33851582016E+01 -0.24519233758E+02  0.32360799414E+02  0.00000000000E+00 0. -1.
</event>
<event>
 7    1  0.3770178E-009  0.1057814E+03  0.7561462E-02  0.1268588E+00
         -4   -1    0    0    0  501 -0.00000000000E+00  0.00000000000E+00  0.55476498156E+02  0.55476498156E+02  0.00000000000E+00 0.  1.
          4   -1    0    0  501    0  0.00000000000E+00 -0.00000000000E+00 -0.26686920333E+03  0.26686920333E+03  0.00000000000E+00 0. -1.
         25    2    1    2    0    0 -0.79936615858E+01  0.53058244786E+02 -0.13280599388E+03  0.19016886293E+03  0.12509072088E+03 0.  0.
          5    1    3    3  502    0 -0.31036217146E+02  0.82372535855E+02 -0.55245334160E+02  0.10400961871E+03  0.41800000000E+01 0.  1.
         -5    1    3    3    0  502  0.23042555560E+02 -0.29314291069E+02 -0.77560659720E+02  0.86159244216E+02  0.41800000000E+01 0.  1.
        -11    1    1    2    0    0 -0.16490729407E+02 -0.58547742230E+02 -0.13339949268E+02  0.62271474393E+02  0.00000000000E+00 0.  1.
         11    1    1    2    0    0  0.24484390993E+02  0.54894974435E+01 -0.65246762028E+02  0.69905364169E+02  0.00000000000E+00 0. -1.
</event>
<event>
 7    1  0.2855090E-009  0.1325329E+03  0.7561462E-02  0.1223745E+00
         -1   -1    0    0    0  501 -0.00000000000E+00  0.00000000000E+00  0.17797345525E+02  0.17797345525E+02  0.00000000000E+00 0.  1.
          1   -1    0    0  501    0  0.00000000000E+00 -0.00000000000E+00 -0.14690161055E+04  0.14690161055E+04  0.00000000000E+00 0. -1.
         25    2    1    2    0    0 -0.10821152364E+03  0.38743378406E+02 -0.62864230757E+03  0.65118715709E+03  0.12507109772E+03 0.  0.
          5    1    3    3  502    0 -0.98534795379E+02  0.26058074815E+02 -0.62627108770E+03  0.63452429178E+03  0.41800000000E+01 0.  1.
         -5    1    3    3    0  502 -0.96767282562E+01  0.12685303591E+02 -0.23712198645E+01  0.16662865317E+02  0.41800000000E+01 0.  1.
        -11    1    1    2    0    0  0.23057640107E+02 -0.55211637369E+02 -0.30124658343E+03  0.30713105297E+03  0.00000000000E+00 0.  1.
         11    1    1    2    0    0  0.85153883529E+02  0.16468258963E+02 -0.52132986901E+03  0.52849524099E+03  0.00000000000E+00 0. -1.
</event>
<event>
 7    1  0.2855090E-009  0.6985277E+02  0.7561462E-02  0.1360594E+00
          1   -1    0    0  501    0  0.00000000000E+00  0.00000000000E+00  0.68508391259E+03  0.68508391259E+03  0.00000000000E+00 0. -1.
         -1   -1    0    0    0  501 -0.00000000000E+00 -0.00000000000E+00 -0.18596512393E+02  0.18596512393E+02  0.00000000000E+00 0.  1.
         25    2    1    2    0    0 -0.10842094077E+02 -0.21751104307E+02  0.38092500146E+03  0.40167416739E+03  0.12509044116E+03 0.  0.
          5    1    3    3  502    0  0.11935765304E+02 -0.47731848462E+01  0.37106845695E+03  0.37131458082E+03  0.41800000000E+01 0.  1.
         -5    1    3    3    0  502 -0.22777859381E+02 -0.16977919461E+02  0.98565445123E+01  0.30359586574E+02  0.41800000000E+01 0.  1.
        -11    1    1    2    0    0 -0.34604315681E+02  0.35912485306E+02  0.12657090719E+03  0.13604175760E+03  0.00000000000E+00 0.  1.
         11    1    1    2    0    0  0.45446409758E+02 -0.14161380999E+02  0.15899149155E+03  0.16596449999E+03  0.00000000000E+00 0. -1.
</event>
<event>
 7    1  0.2855090E-009  0.1268537E+03  0.7561462E-02  0.1232200E+00
         -2   -1    0    0    0  501 -0.00000000000E+00  0.00000000000E+00  0.25733908345E+03  0.25733908345E+03  0.00000000000E+00 0.  1.
          2   -1    0    0  501    0  0.00000000000E+00 -0.00000000000E+00 -0.83350620540E+02  0.83350620540E+02  0.00000000000E+00 0. -1.
         25    2    1    2    0    0  0.97373015617E+02  0.82470751354E+01  0.82114406095E+02  0.17871698458E+03  0.12508983360E+03 0.  0.
          5    1    3    3  502    0  0.12488400577E+02 -0.49361369911E+02  0.49125286383E+02  0.70875038982E+02  0.41800000000E+01 0. -1.
         -5    1    3    3    0  502  0.84884615040E+02  0.57608445046E+02  0.32989119712E+02  0.10784194560E+03  0.41800000000E+01 0. -1.
        -11    1    1    2    0    0 -0.56070631191E+02  0.56852322232E+01  0.10262124019E+03  0.11707842024E+03  0.00000000000E+00 0.  1.
         11    1    1    2    0    0 -0.41302384426E+02 -0.13932307359E+02 -0.10747183373E+02  0.44894299171E+02  0.00000000000E+00 0. -1.
</event>
<event>
 7    1  0.2855090E-009  0.2887699E+03  0.7561462E-02  0.1090993E+00
          3   -1    0    0  501    0  0.00000000000E+00  0.00000000000E+00  0.14620003782E+04  0.14620003782E+04  0.00000000000E+00 0. -1.
         -3   -1    0    0    0  501 -0.00000000000E+00 -0.00000000000E+00 -0.67455549955E+02  0.67455549955E+02  0.00000000000E+00 0.  1.
         25    2    1    2    0    0  0.27546621799E+03  0.41809712183E+02  0.95001606478E+03  0.99790161749E+03  0.12508967010E+03 0.  0.
          5    1    3    3  502    0  0.20026012646E+03  0.78103296420E+02  0.58019893002E+03  0.61875076885E+03  0.41800000000E+01 0. -1.
         -5    1    3    3    0  502  0.75206091534E+02 -0.36293584237E+02  0.36981713477E+03  0.37915084864E+03  0.41800000000E+01 0. -1.
        -11    1    1    2    0    0 -0.32182985512E+02 -0.92428871760E+01  0.12043369422E+03  0.12500180088E+03  0.00000000000E+00 0. -1.
         11    1    1    2    0    0 -0.24328323248E+03 -0.32566825007E+02  0.32409506921E+03  0.40655250975E+03  0.00000000000E+00 0.  1.
</event>
<event>
 7    1  0.2855090E-009  0.2951094E+03  0.7561462E-02  0.1087711E+00
         -2   -1    0    0    0  501 -0.00000000000E+00  0.00000000000E+00  0.21755140970E+03  0.21755140970E+03  0.00000000000E+00 0.  1.
          2   -1    0    0  501    0  0.00000000000E+00 -0.00000000000E+00 -0.42615381864E+03  0.42615381864E+03  0.00000000000E+00 0. -1.
         25    2    1    2    0    0  0.26985228194E+03 -0.88708084451E+02 -0.89226308774E+02  0.32295186377E+03  0.12508874378E+03 0.  0.
          5    1    3    3  502    0  0.18635887566E+02 -0.32578425357E+02 -0.49810160662E+02  0.62507396437E+02  0.41800000000E+01 0.  1.
         -5    1    3    3    0  502  0.25121639437E+03 -0.56129659094E+02 -0.39416148112E+02  0.26044446733E+03  0.41800000000E+01 0.  1.
        -11    1    1    2    0    0 -0.53621152838E+02  0.53838380340E+02 -0.50174561877E+02  0.91056498334E+02  0.00000000000E+00 0. -1.
         11    1    1    2    0    0 -0.21623112910E+03  0.34869704111E+02 -0.69201538298E+02  0.22969686624E+03  0.00000000000E+00 0.  1.
</event>
<event>
 7    1  0.2855090E-009  0.1409512E+03  0.7561462E-02  0.1212055E+00
         -2   -1    0    0    0  501 -0.00000000000E+00  0.00000000000E+00  0.80480186084E+02  0.80480186084E+02  0.00000000000E+00 0.  1.
          2   -1    0    0  501    0  0.00000000000E+00 -0.00000000000E+00 -0.35879624484E+03  0.35879624484E+03  0.00000000000E+00 0. -1.
         25    2    1    2    0    0 -0.13316692982E+03 -0.57881622604E+01 -0.18179451397E+03  0.25780585218E+03  0.12509067947E+03 0.  0.
          5    1    3    3  502    0 -0.73966354052E+02  0.51497532733E+01 -0.18294925963E+03  0.19744732333E+03  0.41800000000E+01 0. -1.
         -5    1    3    3    0  502 -0.59200575767E+02 -0.10937915534E+02  0.11547456657E+01  0.60358528850E+02  0.41800000000E+01 0. -1.
        -11    1    1    2    0    0 -0.21890134369E+01  0.11606224340E+02  0.43239088910E+01  0.12577456474E+02  0.00000000000E+00 0.  1.
         11    1    1    2    0    0  0.13535594326E+03 -0.58180620799E+01 -0.10084545368E+03  0.16889312226E+03  0.00000000000E+00 0. -1.
</event>
<event>
 7    1  0.2855090E-009  0.1392521E+03  0.7561462E-02  0.1214339E+00
         -1   -1    0    0    0  501 -0.00000000000E+00  0.00000000000E+00  0.25853000525E+03  0.25853000525E+03  0.00000000000E+00 0.  1.
          1   -1    0    0  501    0  0.00000000000E+00 -0.00000000000E+00 -0.15748723515E+03  0.15748723515E+03  0.00000000000E+00 0. -1.
         25    2    1    2    0    0  0.99670839912E+02  0.37045388678E+02  0.18871073896E+03  0.25013294658E+03  0.12509240910E+03 0.  0.
          5    1    3    3  502    0  0.66044938640E+02  0.74670171395E+02  0.72389533048E+02  0.12326915799E+03  0.41800000000E+01 0.  1.
         -5    1    3    3    0  502  0.33625901272E+02 -0.37624782717E+02  0.11632120591E+03  0.12686378859E+03  0.41800000000E+01 0.  1.
        -11    1    1    2    0    0 -0.11003346535E+03 -0.40380757498E+02 -0.96533939101E+02  0.15184456023E+03  0.00000000000E+00 0. -1.
         11    1    1    2    0    0  0.10362625438E+02  0.33353688193E+01  0.88659702368E+01  0.14039733593E+02  0.00000000000E+00 0.  1.
</event>
<event>
 7    1  0.2855090E-009  0.1311047E+03  0.7561462E-02  0.1225826E+00
          2   -1    0    0  501    0  0.00000000000E+00  0.00000000000E+00  0.26759299817E+03  0.26759299817E+03  0.00000000000E+00 0. -1.
         -2   -1    0    0    0  501 -0.00000000000E+00 -0.00000000000E+00 -0.83337403576E+02  0.83337403576E+02  0.00000000000E+00 0.  1.
         25    2    1    2    0    0 -0.43165488106E+02  0.90668946679E+02  0.11700384600E+03  0.19855137030E+03  0.12509448194E+03 0.  0.
          5    1    3    3  502    0  0.13726050803E+02 -0.14553304631E+02 -0.11080392334E+02  0.23247594297E+02  0.41800000000E+01 0. -1.
         -5    1    3    3    0  502 -0.56891538909E+02  0.10522225131E+03  0.12808423834E+03  0.17530377600E+03  0.41800000000E+01 0. -1.
        -11    1    1    2    0    0  0.27388530353E+02  0.25778680965E+01 -0.11003109678E+02  0.29628456278E+02  0.00000000000E+00 0.  1.
         11    1    1    2    0    0  0.15776957753E+02 -0.93246814776E+02  0.78254858273E+02  0.12275057517E+03  0.00000000000E+00 0. -1.
</event>
<event>
 7    1  0.2855090E-009  0.1097250E+03  0.7561462E-02  0.1261080E+00
         -2   -1    0    0    0  501 -0.00000000000E+00  0.00000000000E+00  0.47494009528E+03  0.47494009528E+03  0.00000000000E+00 0.  1.
          2   -1    0    0  501    0  0.00000000000E+00 -0.00000000000E+00 -0.38120783813E+02  0.38120783813E+02  0.00000000000E+00 0. -1.
         25    2    1    2    0    0 -0.43887065250E+02  0.57898824143E+02  0.31258074335E+03  0.34443029177E+03  0.12508859437E+03 0.  0.
          5    1    3    3  502    0  0.55155566526E+01  0.86864440359E+02  0.18222462878E+03  0.20198797018E+03  0.41800000000E+01 0.  1.
         -5    1    3    3    0  502 -0.49402621903E+02 -0.28965616215E+02  0.13035611458E+03  0.14244232159E+03  0.41800000000E+01 0.  1.
        -11    1    1    2    0    0  0.69538405299E+01 -0.23178027592E+02  0.11447876724E+03  0.11700839718E+03  0.00000000000E+00 0.  1.
         11    1    1    2    0    0  0.36933224721E+02 -0.34720796551E+02  0.97598008655E+01  0.51622190135E+02  0.00000000000E+00 0. -1.
</event>
<event>
 7    1  0.2855090E-009  0.9605989E+02  0.7561462E-02  0.1288807E+00
         -2   -1    0    0    0  501 -0.00000000000E+00  0.00000000000E+00  0.39010774503E+02  0.39010774503E+02  0.00000000000E+00 0.  1.
          2   -1    0    0  501    0  0.00000000000E+00 -0.00000000000E+00 -0.41705318740E+03  0.41705318740E+03  0.00000000000E+00 0. -1.
         25    2    1    2    0    0 -0.14402617350E+02  0.18970714512E+02 -0.31727939430E+03  0.34187600967E+03  0.12508264686E+03 0.  0.
          5    1    3    3  502    0 -0.45162344714E+02  0.44310590591E+02 -0.84348865233E+02  0.10552378540E+03  0.41800000000E+01 0.  1.
         -5    1    3    3    0  502  0.30759727364E+02 -0.25339876080E+02 -0.23293052906E+03  0.23635222427E+03  0.41800000000E+01 0.  1.
        -11    1    1    2    0    0  0.11623538555E+01 -0.52540755320E+02 -0.57585881301E+02  0.77961630057E+02  0.00000000000E+00 0.  1.
         11    1    1    2    0    0  0.13240263494E+02  0.33570040808E+02 -0.31771373023E+01  0.36226322180E+02  0.00000000000E+00 0. -1.
</event>
<event>
 7    1  0.2855090E-009  0.1478878E+03  0.7561462E-02  0.1203093E+00
         -2   -1    0    0    0  501 -0.00000000000E+00  0.00000000000E+00  0.14523522027E+02  0.14523522027E+02  0.00000000000E+00 0.  1.
          2   -1    0    0  501    0  0.00000000000E+00 -0.00000000000E+00 -0.15242397174E+04  0.15242397174E+04  0.00000000000E+00 0. -1.
         25    2    1    2    0    0  0.87842431539E+02 -0.49371978906E+02 -0.74939708938E+03  0.76641948767E+03  0.12509575705E+03 0.  0.
          5    1    3    3  502    0  0.27752341180E+02  0.42076546071E+02 -0.26721655583E+03  0.27196100507E+03  0.41800000000E+01 0.  1.
         -5    1    3    3    0  502  0.60090090359E+02 -0.91448524977E+02 -0.48218053355E+03  0.49445848260E+03  0.41800000000E+01 0.  1.
        -11    1    1    2    0    0  0.15278650053E+02  0.25687706349E+02 -0.17734685600E+03  0.17984772097E+03  0.00000000000E+00 0.  1.
         11    1    1    2    0    0 -0.10312108159E+03  0.23684272557E+02 -0.58297224997E+03  0.59249603076E+03  0.00000000000E+00 0. -1.
</event>
<event>
 7    1  0.2855090E-009  0.1299084E+03  0.7561462E-02  0.1227592E+00
         -2   -1    0    0    0  501 -0.00000000000E+00  0.00000000000E+00  0.18857533377E+02  0.18857533377E+02  0.00000000000E+00 0.  1.
          2   -1    0    0  501    0  0.00000000000E+00 -0.00000000000E+00 -0.93662323610E+03  0.93662323610E+03  0.00000000000E+00 0. -1.
         25    2    1    2    0    0  0.75270183236E+02  0.53309769817E+01 -0.43957542577E+03  0.46321598873E+03  0.12509387464E+03 0.  0.
          5    1    3    3  502    0  0.91101742053E+02  0.45816599014E+02 -0.29252574753E+03  0.30981845252E+03  0.41800000000E+01 0.  1.
         -5    1    3    3    0  502 -0.15831558817E+02 -0.40485622032E+02 -0.14704967824E+03  0.15339753621E+03  0.41800000000E+01 0.  1.
        -11    1    1    2    0    0 -0.24283071177E+02  0.39384334279E+02 -0.24855478643E+03  0.25282459372E+03  0.00000000000E+00 0.  1.
         11    1    1    2    0    0 -0.50987112059E+02 -0.44715311261E+02 -0.22963549053E+03  0.23944018703E+03  0.00000000000E+00 0. -1.
</event>
<event>
 7    1  0.2855090E-009  0.9203520E+02  0.7561462E-02  0.1297997E+00
          1   -1    0    0  501    0  0.00000000000E+00  0.00000000000E+00  0.58863347639E+02  0.58863347639E+02  0.00000000000E+00 0. -1.
         -1   -1    0    0    0  501 -0.00000000000E+00 -0.00000000000E+00 -0.30603620705E+03  0.30603620705E+03  0.00000000000E+00 0.  1.
         25    2    1    2    0    0  0.61700279605E+02  0.43084757668E+02 -0.10057118156E+03  0.17727206905E+03  0.12509037955E+03 0.  0.
          5    1    3    3  502    0  0.55186103995E+02  0.53236695624E+02 -0.12672055729E+03  0.14817295258E+03  0.41800000000E+01 0.  1.
         -5    1    3    3    0  502  0.65141756103E+01 -0.10151937957E+02  0.26149375731E+02  0.29099116469E+02  0.41800000000E+01 0.  1.
        -11    1    1    2    0    0 -0.72519509161E+02 -0.32829018899E+02 -0.15215381454E+03  0.17171955908E+03  0.00000000000E+00 0.  1.
         11    1    1    2    0    0  0.10819229555E+02 -0.10255738769E+02  0.55521366882E+01  0.15907926567E+02  0.00000000000E+00 0. -1.
</event>
<event>
 7    1  0.2855090E-009  0.1078639E+03  0.7561462E-02  0.1264578E+00
          1   -1    0    0  501    0  0.00000000000E+00  0.00000000000E+00  0.14871238881E+03  0.14871238881E+03  0.00000000000E+00 0. -1.
         -1   -1    0    0    0  501 -0.00000000000E+00 -0.00000000000E+00 -0.10798021651E+03  0.10798021651E+03  0.00000000000E+00 0.  1.
         25    2    1    2    0    0  0.22709108328E+02  0.15784206889E+02 -0.38079013299E+02  0.13365559918E+03  0.12509581587E+03 0.  0.
          5    1    3    3  502    0 -0.87580091629E+01 -0.51091912775E+02 -0.39954493084E+01  0.52158626234E+02  0.41800000000E+01 0. -1.
         -5    1    3    3    0  502  0.31467117491E+02  0.66876119663E+02 -0.34083563990E+02  0.81496972942E+02  0.41800000000E+01 0. -1.
        -11    1    1    2    0    0  0.15850454445E+02  0.27490924141E+02  0.10446615028E+02  0.33408375923E+02  0.00000000000E+00 0.  1.
         11    1    1    2    0    0 -0.38559562774E+02 -0.43275131030E+02  0.68364570569E+02  0.89628630225E+02  0.00000000000E+00 0. -1.
</event>
<event>
 7    1  0.2855090E-009  0.2428775E+03  0.7561462E-02  0.1117891E+00
          2   -1    0    0  501    0  0.00000000000E+00  0.00000000000E+00  0.13260635794E+03  0.13260635794E+03  0.00000000000E+00 0.  1.
         -2   -1    0    0    0  501 -0.00000000000E+00 -0.00000000000E+00 -0.49821714333E+03  0.49821714333E+03  0.00000000000E+00 0. -1.
         25    2    1    2    0    0  0.22529608393E+03 -0.37937909069E+02 -0.12951139063E+03  0.29089266509E+03  0.12509089463E+03 0.  0.
          5    1    3    3  502    0  0.82580363032E+02 -0.72923612218E+02 -0.78308291828E+02  0.13522954761E+03  0.41800000000E+01 0. -1.
         -5    1    3    3    0  502  0.14271572090E+03  0.34985703149E+02 -0.51203098805E+02  0.15566311748E+03  0.41800000000E+01 0. -1.
        -11    1    1    2    0    0 -0.14598772146E+03  0.26578205370E+02 -0.90678878958E+02  0.17390076166E+03  0.00000000000E+00 0.  1.
         11    1    1    2    0    0 -0.79308362477E+02  0.11359703699E+02 -0.14542051581E+03  0.16603007452E+03  0.00000000000E+00 0. -1.
</event>
<event>
 7    1  0.2855090E-009  0.9029398E+02  0.7561462E-02  0.1302141E+00
         -1   -1    0    0    0  501 -0.00000000000E+00  0.00000000000E+00  0.21122407256E+02  0.21122407256E+02  0.00000000000E+00 0.  1.
          1   -1    0    0  501    0  0.00000000000E+00 -0.00000000000E+00 -0.18528776933E+04  0.18528776933E+04  0.00000000000E+00 0. -1.
         25    2    1    2    0    0  0.54658782432E+02 -0.27805336031E+02 -0.16969158920E+04  0.17026248833E+04  0.12508888604E+03 0.  0.
          5    1    3    3  502    0  0.19066689120E+02  0.27738678554E+02 -0.12842967713E+04  0.12847445824E+04  0.41800000000E+01 0. -1.
         -5    1    3    3    0  502  0.35592093312E+02 -0.55544014585E+02 -0.41261912072E+03  0.41788030086E+03  0.41800000000E+01 0. -1.
        -11    1    1    2    0    0 -0.28665877151E+01  0.28626385599E+02 -0.20522547081E+01  0.28842659846E+02  0.00000000000E+00 0.  1.
         11    1    1    2    0    0 -0.51792194717E+02 -0.82104956794E+00 -0.13278713930E+03  0.14253255740E+03  0.00000000000E+00 0. -1.
</event>
<event>
 7    1  0.2855090E-009  0.1717751E+03  0.7561462E-02  0.1176009E+00
          2   -1    0    0  501    0  0.00000000000E+00  0.00000000000E+00  0.16063446382E+04  0.16063446382E+04  0.00000000000E+00 0. -1.
         -2   -1    0    0    0  501 -0.00000000000E+00 -0.00000000000E+00 -0.23546007332E+02  0.23546007332E+02  0.00000000000E+00 0.  1.
         25    2    1    2    0    0 -0.14967512586E+03  0.11647169046E+02  0.61696808325E+03  0.64717481557E+03  0.12508927338E+03 0.  0.
          5    1    3    3  502    0 -0.94729749561E+02 -0.23989789529E+02  0.52594364864E+03  0.53496114756E+03  0.41800000000E+01 0. -1.
         -5    1    3    3    0  502 -0.54945376297E+02  0.35636958575E+02  0.91024434609E+02  0.11221366801E+03  0.41800000000E+01 0. -1.
        -11    1    1    2    0    0  0.15422305606E+03 -0.33480269042E+02  0.87977057306E+03  0.89381314639E+03  0.00000000000E+00 0. -1.
         11    1    1    2    0    0 -0.45479302066E+01  0.21833099996E+02  0.86059974529E+02  0.88902683540E+02  0.00000000000E+00 0.  1.
</event>
<event>
 6    1  0.2855090E-009  0.1115637E+03  0.7561462E-02  0.1257701E+00
         -1   -1    0    0    0  501 -0.00000000000E+00  0.00000000000E+00  0.28346356425E+03  0.28346356425E+03  0.00000000000E+00 0.  1.
          1   -1    0    0  501    0  0.00000000000E+00 -0.00000000000E+00 -0.83026091471E+02  0.83026091471E+02  0.00000000000E+00 0. -1.
          5    1    1    2  502    0 -0.65184340679E+02 -0.72677914753E+02  0.91183746750E+01  0.98141197870E+02  0.41800000000E+01 0.  1.
         -5    1    1    2    0  502  0.37783623836E+02  0.16383560504E+02 -0.61313507644E+01  0.41846017100E+02  0.41800000000E+01 0.  1.
        -11    1    1    2    0    0 -0.17470637738E+02  0.16860905209E+02  0.14496476434E+03  0.14698399984E+03  0.00000000000E+00 0.  1.
         11    1    1    2    0    0  0.44871354581E+02  0.39433449040E+02  0.52485684527E+02  0.79518440914E+02  0.00000000000E+00 0. -1.
</event>
<event>
 6    1  0.2855090E-009  0.1149517E+03  0.7561462E-02  0.1251665E+00
          1   -1    0    0  501    0  0.00000000000E+00  0.00000000000E+00  0.13237999467E+03  0.13237999467E+03  0.00000000000E+00 0. -1.
         -1   -1    0    0    0  501 -0.00000000000E+00 -0.00000000000E+00 -0.10517030229E+03  0.10517030229E+03  0.00000000000E+00 0.  1.
          5    1    1    2  502    0 -0.20404326122E+02 -0.54538332299E+02 -0.86864662570E+01  0.59022820252E+02  0.41800000000E+01 0.  1.
         -5    1    1    2    0  502 -0.25572961644E+02  0.68623578643E+02  0.19613236479E+02  0.75929726446E+02  0.41800000000E+01 0.  1.
        -11    1    1    2    0    0 -0.23017617869E+02  0.99950495512E+01 -0.67346296224E+01  0.25982051191E+02  0.00000000000E+00 0.  1.
         11    1    1    2    0    0  0.68994905635E+02 -0.24080295895E+02  0.23017551788E+02  0.76615699072E+02  0.00000000000E+00 0. -1.
</event>
<event>
 7    1  0.2855090E-009  0.1115923E+03  0.7561462E-02  0.1257649E+00
         -1   -1    0    0    0  501 -0.00000000000E+00  0.00000000000E+00  0.37465815055E+02  0.37465815055E+02  0.00000000000E+00 0.  1.
          1   -1    0    0  501    0  0.00000000000E+00 -0.00000000000E+00 -0.41385411425E+03  0.41385411425E+03  0.00000000000E+00 0. -1.
         25    2    1    2    0    0  0.56788777955E+02  0.21654676948E+02 -0.20976215629E+03  0.25169337498E+03  0.12512195036E+03 0.  0.
          5    1    3    3  502    0  0.81367847625E+02 -0.10379121982E+02 -0.18905211544E+03  0.20612284578E+03  0.41800000000E+01 0.  1.
         -5    1    3    3    0  502 -0.24579069670E+02  0.32033798930E+02 -0.20710040857E+02  0.45570529205E+02  0.41800000000E+01 0.  1.
        -11    1    1    2    0    0 -0.55934752980E+02  0.19543974314E+02 -0.55809541641E+02  0.81396366387E+02  0.00000000000E+00 0.  1.
         11    1    1    2    0    0 -0.85402497561E+00 -0.41198651262E+02 -0.11081660126E+03  0.11823018794E+03  0.00000000000E+00 0. -1.
</event>
<event>
 7    1  0.2855090E-009  0.7323125E+02  0.7561462E-02  0.1349437E+00
          1   -1    0    0  501    0  0.00000000000E+00  0.00000000000E+00  0.30022771991E+03  0.30022771991E+03  0.00000000000E+00 0. -1.
         -1   -1    0    0    0  501 -0.00000000000E+00 -0.00000000000E+00 -0.51475487497E+02  0.51475487497E+02  0.00000000000E+00 0.  1.
         25    2    1    2    0    0 -0.53027240213E+02  0.28284470498E+02  0.83500029867E+02  0.16195884334E+03  0.12508602029E+03 0.  0.
          5    1    3    3  502    0  0.20698450785E+01 -0.45690414830E+01 -0.30441474268E+02  0.31133842589E+02  0.41800000000E+01 0.  1.
         -5    1    3    3    0  502 -0.55097085292E+02  0.32853511981E+02  0.11394150414E+03  0.13082500075E+03  0.41800000000E+01 0.  1.
        -11    1    1    2    0    0  0.35018465371E+02  0.72956814860E+01  0.24260093729E+02  0.43221198884E+02  0.00000000000E+00 0.  1.
         11    1    1    2    0    0  0.18008774842E+02 -0.35580151984E+02  0.14099210882E+03  0.14652316518E+03  0.00000000000E+00 0. -1.
</event>
<event>
 7    1  0.2855090E-009  0.1089259E+03  0.7561462E-02  0.1262572E+00
         -1   -1    0    0    0  501 -0.00000000000E+00  0.00000000000E+00  0.55997505275E+02  0.55997505275E+02  0.00000000000E+00 0.  1.
          1   -1    0    0  501    0  0.00000000000E+00 -0.00000000000E+00 -0.32885280271E+03  0.32885280271E+03  0.00000000000E+00 0. -1.
         25    2    1    2    0    0  0.35601268764E+02 -0.63171330262E+02 -0.98388129632E+02  0.17488791596E+03  0.12508993481E+03 0.  0.
          5    1    3    3  502    0  0.47555050356E+02 -0.80006178327E+02 -0.11504074703E+03  0.14803485151E+03  0.41800000000E+01 0. -1.
         -5    1    3    3    0  502 -0.11953781592E+02  0.16834848066E+02  0.16652617402E+02  0.26853064445E+02  0.41800000000E+01 0. -1.
        -11    1    1    2    0    0  0.23267207168E+02  0.17707186270E+02 -0.12628577278E+02  0.31849463717E+02  0.00000000000E+00 0. -1.
         11    1    1    2    0    0 -0.58868475932E+02  0.45464143992E+02 -0.16183859053E+03  0.17811292831E+03  0.00000000000E+00 0.  1.
</event>
<event>
 6    1  0.2855090E-009  0.2420804E+03  0.7561462E-02  0.1118415E+00
          1   -1    0    0  501    0  0.00000000000E+00  0.00000000000E+00  0.10716272943E+04  0.10716272943E+04  0.00000000000E+00 0. -1.
         -1   -1    0    0    0  501 -0.00000000000E+00 -0.00000000000E+00 -0.65450131022E+02  0.65450131022E+02  0.00000000000E+00 0.  1.
          5    1    1    2  502    0  0.10825723040E+03  0.18592733446E+03  0.33735445465E+03  0.40014260222E+03  0.41800000000E+01 0.  1.
         -5    1    1    2    0  502 -0.14100721533E+02  0.19268051940E+02 -0.52406478978E+00  0.24245313304E+02  0.41800000000E+01 0.  1.
        -11    1    1    2    0    0  0.15808921454E+01 -0.10901319635E+03  0.29431655011E+03  0.31386080971E+03  0.00000000000E+00 0. -1.
         11    1    1    2    0    0 -0.95737401007E+02 -0.96182190051E+02  0.37503022333E+03  0.39882870012E+03  0.00000000000E+00 0.  1.
</event>
<event>
 7    1  0.2855090E-009  0.1322858E+03  0.7561462E-02  0.1224103E+00
          2   -1    0    0  501    0  0.00000000000E+00  0.00000000000E+00  0.12284571244E+04  0.12284571244E+04  0.00000000000E+00 0. -1.
         -2   -1    0    0    0  501 -0.00000000000E+00 -0.00000000000E+00 -0.22156720106E+02  0.22156720106E+02  0.00000000000E+00 0.  1.
         25    2    1    2    0    0  0.11045099621E+03 -0.20522329471E+02  0.82757944148E+03  0.84448573492E+03  0.12509131049E+03 0.  0.
          5    1    3    3  502    0  0.12580396131E+03 -0.11256766057E+02  0.80714832177E+03  0.81698178511E+03  0.41800000000E+01 0. -1.
         -5    1    3    3    0  502 -0.15352965102E+02 -0.92655634140E+01  0.20431119708E+02  0.27503949814E+02  0.41800000000E+01 0. -1.
        -11    1    1    2    0    0 -0.66842064797E+02 -0.85279725752E+01  0.32172502711E+03  0.32870591874E+03  0.00000000000E+00 0. -1.
         11    1    1    2    0    0 -0.43608931415E+02  0.29050302046E+02  0.56995935693E+02  0.77422190835E+02  0.00000000000E+00 0.  1.
</event>
<event>
 7    1  0.2855090E-009  0.1584691E+03  0.7561462E-02  0.1190436E+00
          2   -1    0    0  501    0  0.00000000000E+00  0.00000000000E+00  0.14985884886E+04  0.14985884886E+04  0.00000000000E+00 0. -1.
         -2   -1    0    0    0  501 -0.00000000000E+00 -0.00000000000E+00 -0.19344970138E+02  0.19344970138E+02  0.00000000000E+00 0.  1.
         25    2    1    2    0    0 -0.95311329819E+02 -0.80931022708E+02  0.94211822304E+03  0.95857583307E+03  0.12508717580E+03 0.  0.
          5    1    3    3  502    0 -0.22791387848E+02  0.32517443261E+02  0.15782167166E+03  0.16279429942E+03  0.41800000000E+01 0.  1.
         -5    1    3    3    0  502 -0.72519941971E+02 -0.11344846597E+03  0.78429655137E+03  0.79578153366E+03  0.41800000000E+01 0.  1.
        -11    1    1    2    0    0  0.94068358753E+02  0.41447065442E+02  0.47300046103E+03  0.48404147703E+03  0.00000000000E+00 0.  1.
         11    1    1    2    0    0  0.12429710665E+01  0.39483957267E+02  0.64124834395E+02  0.75316148631E+02  0.00000000000E+00 0. -1.
</event>
<event>
 7    1  0.2855090E-009  0.1172653E+03  0.7561462E-02  0.1247678E+00
          2   -1    0    0  501    0  0.00000000000E+00  0.00000000000E+00  0.20496656757E+03  0.20496656757E+03  0.00000000000E+00 0. -1.
         -2   -1    0    0    0  501 -0.00000000000E+00 -0.00000000000E+00 -0.74722683651E+02  0.74722683651E+02  0.00000000000E+00 0.  1.
         25    2    1    2    0    0  0.10534784322E+02 -0.45592377923E+02  0.30095164891E+02  0.13690244530E+03  0.12508762519E+03 0.  0.
          5    1    3    3  502    0  0.42474387886E+02  0.29227437188E+02  0.16645867410E+02  0.54340353447E+02  0.41800000000E+01 0. -1.
         -5    1    3    3    0  502 -0.31939603564E+02 -0.74819815111E+02  0.13449297481E+02  0.82562091857E+02  0.41800000000E+01 0. -1.
        -11    1    1    2    0    0 -0.30588613742E+02 -0.17430781504E+02  0.28657236960E+02  0.45395293420E+02  0.00000000000E+00 0.  1.
         11    1    1    2    0    0  0.20053829420E+02  0.63023159426E+02  0.71491482070E+02  0.97391512500E+02  0.00000000000E+00 0. -1.
</event>
<event>
 7    1  0.2855090E-009  0.1708688E+03  0.7561462E-02  0.1176945E+00
          2   -1    0    0  501    0  0.00000000000E+00  0.00000000000E+00  0.87882656981E+02  0.87882656981E+02  0.00000000000E+00 0. -1.
         -2   -1    0    0    0  501 -0.00000000000E+00 -0.00000000000E+00 -0.48369558632E+03  0.48369558632E+03  0.00000000000E+00 0.  1.
         25    2    1    2    0    0  0.23016201029E+02  0.13399238222E+03 -0.53662559045E+02  0.19238115374E+03  0.12508850495E+03 0.  0.
          5    1    3    3  502    0  0.70928586243E+02  0.95810254023E+02 -0.54089131748E+02  0.13097165990E+03  0.41800000000E+01 0.  1.
         -5    1    3    3    0  502 -0.47912385213E+02  0.38182128198E+02  0.42657270353E+00  0.61409493849E+02  0.41800000000E+01 0.  1.
        -11    1    1    2    0    0  0.88621281187E+01 -0.12837340103E+03 -0.24407928239E+03  0.27592202431E+03  0.00000000000E+00 0. -1.
         11    1    1    2    0    0 -0.31878329148E+02 -0.56189811901E+01 -0.98071087902E+02  0.10327506524E+03  0.00000000000E+00 0.  1.
</event>
<event>
 7    1  0.2855090E-009  0.1055760E+03  0.7561462E-02  0.1268989E+00
         -2   -1    0    0    0  501 -0.00000000000E+00  0.00000000000E+00  0.13671984374E+02  0.13671984374E+02  0.00000000000E+00 0.  1.
          2   -1    0    0  501    0  0.00000000000E+00 -0.00000000000E+00 -0.98485413995E+03  0.98485413995E+03  0.00000000000E+00 0. -1.
         25    2    1    2    0    0 -0.14269839924E+02  0.24663792249E+02 -0.66511758679E+03  0.67737803326E+03  0.12509062597E+03 0.  0.
          5    1    3    3  502    0 -0.62045460865E+02  0.41551143668E+02 -0.46074770837E+03  0.46677838416E+03  0.41800000000E+01 0.  1.
         -5    1    3    3    0  502  0.47775620941E+02 -0.16887351419E+02 -0.20436987842E+03  0.21059964910E+03  0.41800000000E+01 0.  1.
        -11    1    1    2    0    0  0.47607923607E+02 -0.20808182923E+02 -0.10335835378E+03  0.11568251450E+03  0.00000000000E+00 0. -1.
         11    1    1    2    0    0 -0.33338083683E+02 -0.38556093266E+01 -0.20270621501E+03  0.20546557656E+03  0.00000000000E+00 0.  1.
</event>
<event>
 7    1  0.2855090E-009  0.1138968E+03  0.7561462E-02  0.1253519E+00
         -3   -1    0    0    0  501 -0.00000000000E+00  0.00000000000E+00  0.26110877945E+02  0.26110877945E+02  0.00000000000E+00 0.  1.
          3   -1    0    0  501    0  0.00000000000E+00 -0.00000000000E+00 -0.62417573751E+03  0.62417573751E+03  0.00000000000E+00 0. -1.
         25    2    1    2    0    0 -0.22205594985E+02 -0.55408678783E+02 -0.25399787671E+03  0.28935503410E+03  0.12509278258E+03 0.  0.
          5    1    3    3  502    0  0.34607670728E+02  0.20879222211E+02 -0.10439950006E+03  0.11202839286E+03  0.41800000000E+01 0. -1.
         -5    1    3    3    0  502 -0.56813265713E+02 -0.76287900995E+02 -0.14959837665E+03  0.17732664124E+03  0.41800000000E+01 0. -1.
        -11    1    1    2    0    0 -0.11417163891E+01 -0.16400380926E+02 -0.11912257725E+02  0.20302164784E+02  0.00000000000E+00 0.  1.
         11    1    1    2    0    0  0.23347311374E+02  0.71809059709E+02 -0.33215472512E+03  0.34062941656E+03  0.00000000000E+00 0. -1.
</event>
<event>
 7    1  0.2855090E-009  0.1077967E+03  0.7561462E-02  0.1264705E+00
          2   -1    0    0  501    0  0.00000000000E+00  0.00000000000E+00  0.67279252620E+02  0.67279252620E+02  0.00000000000E+00 0. -1.
         -2   -1    0    0    0  501 -0.00000000000E+00 -0.00000000000E+00 -0.39006567901E+03  0.39006567901E+03  0.00000000000E+00 0.  1.
         25    2    1    2    0    0 -0.82744151529E+01  0.24849764734E+02 -0.79753530514E+01  0.12804672555E+03  0.12508549442E+03 0.  0.
          5    1    3    3  502    0  0.60567238203E+01  0.73553288987E+02 -0.18113961486E+02  0.76107543811E+02  0.41800000000E+01 0. -1.
         -5    1    3    3    0  502 -0.14331138973E+02 -0.48703524252E+02  0.10138608435E+02  0.51939181741E+02  0.41800000000E+01 0. -1.
        -11    1    1    2    0    0  0.46788895752E+02 -0.23095200148E+02 -0.23419381285E+03  0.23993609777E+03  0.00000000000E+00 0.  1.
         11    1    1    2    0    0 -0.38514480600E+02 -0.17545645866E+01 -0.80617260481E+02  0.89362108302E+02  0.00000000000E+00 0. -1.
</event>
<event>
 7    1  0.2855090E-009  0.1543816E+03  0.7561462E-02  0.1195190E+00
         -2   -1    0    0    0  501 -0.00000000000E+00  0.00000000000E+00  0.66360847092E+02  0.66360847092E+02  0.00000000000E+00 0.  1.
          2   -1    0    0  501    0  0.00000000000E+00 -0.00000000000E+00 -0.51213882863E+03  0.51213882863E+03  0.00000000000E+00 0. -1.
         25    2    1    2    0    0 -0.87377907867E+02 -0.72529290577E+02 -0.20365492441E+03  0.26461187845E+03  0.12509484885E+03 0.  0.
          5    1    3    3  502    0 -0.56689319788E+02 -0.37731100149E+02 -0.14427875970E+02  0.69734861450E+02  0.41800000000E+01 0. -1.
         -5    1    3    3    0  502 -0.30688588079E+02 -0.34798190427E+02 -0.18922704844E+03  0.19487701700E+03  0.41800000000E+01 0. -1.
        -11    1    1    2    0    0 -0.32304007703E+02  0.66720308494E+02 -0.57615687603E+02  0.93886718641E+02  0.00000000000E+00 0.  1.
         11    1    1    2    0    0  0.11968191557E+03  0.58089820826E+01 -0.18450736953E+03  0.22000107863E+03  0.00000000000E+00 0. -1.
</event>
<event>
 7    1  0.2855090E-009  0.1251386E+03  0.7561462E-02  0.1234853E+00
          2   -1    0    0  501    0  0.00000000000E+00  0.00000000000E+00  0.78632939778E+02  0.78632939778E+02  0.00000000000E+00 0. -1.
         -2   -1    0    0    0  501 -0.00000000000E+00 -0.00000000000E+00 -0.37393909035E+03  0.37393909035E+03  0.00000000000E+00 0.  1.
         25    2    1    2    0    0 -0.51444364725E+02  0.10145066415E+03 -0.25030508942E+03  0.30205752444E+03  0.12508936950E+03 0.  0.
          5    1    3    3  502    0 -0.40667225626E+02  0.33578373730E+02 -0.22097720486E+03  0.22722175928E+03  0.41800000000E+01 0. -1.
         -5    1    3    3    0  502 -0.10777139098E+02  0.67872290420E+02 -0.29327884556E+02  0.74835765157E+02  0.41800000000E+01 0. -1.
        -11    1    1    2    0    0  0.23904643363E+02 -0.97876285198E+02 -0.61666647953E+02  0.11812694294E+03  0.00000000000E+00 0.  1.
         11    1    1    2    0    0  0.27539721362E+02 -0.35743789529E+01  0.16665586799E+02  0.32387562750E+02  0.00000000000E+00 0. -1.
</event>
<event>
 7    1  0.2855090E-009  0.1887725E+03  0.7561462E-02  0.1159573E+00
         -1   -1    0    0    0  501 -0.00000000000E+00  0.00000000000E+00  0.38699883237E+02  0.38699883237E+02  0.00000000000E+00 0.  1.
          1   -1    0    0  501    0  0.00000000000E+00 -0.00000000000E+00 -0.10920389585E+04  0.10920389585E+04  0.00000000000E+00 0. -1.
         25    2    1    2    0    0 -0.10170506966E+03 -0.12633597456E+03 -0.37742133846E+03  0.42941745239E+03  0.12509109491E+03 0.  0.
          5    1    3    3  502    0  0.19838388785E+02 -0.10116390527E+02 -0.89454483203E+01  0.24359730552E+02  0.41800000000E+01 0. -1.
         -5    1    3    3    0  502 -0.12154345844E+03 -0.11621958404E+03 -0.36847589014E+03  0.40505772184E+03  0.41800000000E+01 0. -1.
        -11    1    1    2    0    0 -0.86649798968E+01  0.54036867954E+02 -0.17841789183E+03  0.18662263823E+03  0.00000000000E+00 0.  1.
         11    1    1    2    0    0  0.11037004955E+03  0.72299106610E+02 -0.49749984493E+03  0.51469875108E+03  0.00000000000E+00 0. -1.
</event>
<event>
 7    1  0.2855090E-009  0.1921052E+03  0.7561462E-02  0.1156576E+00
         -2   -1    0    0    0  501 -0.00000000000E+00  0.00000000000E+00  0.56574231639E+02  0.56574231639E+02  0.00000000000E+00 0.  1.
          2   -1    0    0  501    0  0.00000000000E+00 -0.00000000000E+00 -0.71111542722E+03  0.71111542722E+03  0.00000000000E+00 0. -1.
         25    2    1    2    0    0  0.36979924192E+02 -0.15869599904E+03 -0.42425163359E+03  0.47137049388E+03  0.12509499989E+03 0.  0.
          5    1    3    3  502    0 -0.45362907007E+02 -0.75761580525E+02 -0.18921844297E+03  0.20885090848E+03  0.41800000000E+01 0.  1.
         -5    1    3    3    0  502  0.82342831199E+02 -0.82934418518E+02 -0.23503319062E+03  0.26251958540E+03  0.41800000000E+01 0.  1.
        -11    1    1    2    0    0  0.10774523836E+02  0.11046960222E+03 -0.99932421813E+02  0.14935230935E+03  0.00000000000E+00 0.  1.
         11    1    1    2    0    0 -0.47754448028E+02  0.48226396826E+02 -0.13035714018E+03  0.14696685563E+03  0.00000000000E+00 0. -1.
</event>
<event>
 7    1  0.2855090E-009  0.1743759E+03  0.7561462E-02  0.1173360E+00
         -1   -1    0    0    0  501 -0.00000000000E+00  0.00000000000E+00  0.22446087013E+03  0.22446087013E+03  0.00000000000E+00 0.  1.
          1   -1    0    0  501    0  0.00000000000E+00 -0.00000000000E+00 -0.21928993942E+03  0.21928993942E+03  0.00000000000E+00 0. -1.
         25    2    1    2    0    0 -0.97480702695E+02 -0.13508709038E+03 -0.85326861076E+02  0.22511991111E+03  0.12508913531E+03 0.  0.
          5    1    3    3  502    0 -0.88228772753E+02 -0.80802491947E+02 -0.11186988820E+03  0.16384658475E+03  0.41800000000E+01 0. -1.
         -5    1    3    3    0  502 -0.92519299420E+01 -0.54284598431E+02  0.26543027128E+02  0.61273326363E+02  0.41800000000E+01 0. -1.
        -11    1    1    2    0    0  0.35688501184E+02  0.14901670525E+02 -0.20480164983E+02  0.43762610284E+02  0.00000000000E+00 0.  1.
         11    1    1    2    0    0  0.61792201512E+02  0.12018541985E+03  0.11097795677E+03  0.17486828815E+03  0.00000000000E+00 0. -1.
</event>
<event>
 7    1  0.2855090E-009  0.1374894E+03  0.7561462E-02  0.1216748E+00
          1   -1    0    0  501    0  0.00000000000E+00  0.00000000000E+00  0.26871931433E+02  0.26871931433E+02  0.00000000000E+00 0. -1.
         -1   -1    0    0    0  501 -0.00000000000E+00 -0.00000000000E+00 -0.79872368045E+03  0.79872368045E+03  0.00000000000E+00 0.  1.
         25    2    1    2    0    0 -0.62358527746E+02 -0.67565699645E+02 -0.32341179700E+03  0.35874200208E+03  0.12508766473E+03 0.  0.
          5    1    3    3  502    0 -0.61764480856E+02  0.17787497345E+02 -0.18690329911E+03  0.19769057078E+03  0.41800000000E+01 0.  1.
         -5    1    3    3    0  502 -0.59404689001E+00 -0.85353196990E+02 -0.13650849789E+03  0.16105143130E+03  0.41800000000E+01 0.  1.
        -11    1    1    2    0    0 -0.62850547867E+01  0.54961378917E+02 -0.13820399062E+03  0.14886436145E+03  0.00000000000E+00 0. -1.
         11    1    1    2    0    0  0.68643582532E+02  0.12604320729E+02 -0.31023596140E+03  0.31798924835E+03  0.00000000000E+00 0.  1.
</event>
<event>
 7    1  0.2855090E-009  0.1271365E+03  0.7561462E-02  0.1231768E+00
          2   -1    0    0  501    0  0.00000000000E+00  0.00000000000E+00  0.19733022965E+04  0.19733022965E+04  0.00000000000E+00 0. -1.
         -2   -1    0    0    0  501 -0.00000000000E+00 -0.00000000000E+00 -0.91080106826E+01  0.91080106826E+01  0.00000000000E+00 0.  1.
         25    2    1    2    0    0 -0.18134145495E+02  0.64129354971E+02  0.13909164299E+04  0.13981198982E+04  0.12509721515E+03 0.  0.
          5    1    3    3  502    0  0.38070260602E+02  0.75112227491E+02  0.81961704891E+03  0.82394221322E+03  0.41800000000E+01 0. -1.
         -5    1    3    3    0  502 -0.56204406097E+02 -0.10982872520E+02  0.57129938102E+03  0.57417768496E+03  0.41800000000E+01 0. -1.
        -11    1    1    2    0    0 -0.12549469174E+02  0.19651958482E+02  0.13893797328E+03  0.14088097483E+03  0.00000000000E+00 0. -1.
         11    1    1    2    0    0  0.30683614669E+02 -0.83781313453E+02  0.43433988260E+03  0.44340943417E+03  0.00000000000E+00 0.  1.
</event>
<event>
 7    1  0.2855090E-009  0.1285388E+03  0.7561462E-02  0.1229640E+00
         -3   -1    0    0    0  501 -0.00000000000E+00  0.00000000000E+00  0.44244010645E+03  0.44244010645E+03  0.00000000000E+00 0.  1.
          3   -1    0    0  501    0  0.00000000000E+00 -0.00000000000E+00 -0.46149115095E+02  0.46149115095E+02  0.00000000000E+00 0. -1.
         25    2    1    2    0    0 -0.85113623375E+02 -0.16133659496E+02  0.29088497165E+03  0.32827737200E+03  0.12508933762E+03 0.  0.
          5    1    3    3  502    0 -0.11268790077E+03 -0.33402843004E+02  0.20498857371E+03  0.23633049032E+03  0.41800000000E+01 0.  1.
         -5    1    3    3    0  502  0.27574277399E+02  0.17269183508E+02  0.85896397937E+02  0.91946881686E+02  0.41800000000E+01 0.  1.
        -11    1    1    2    0    0  0.51081705932E+02  0.40184463873E+02  0.24787560198E+02  0.69559722241E+02  0.00000000000E+00 0.  1.
         11    1    1    2    0    0  0.34031917444E+02 -0.24050804377E+02  0.80618459512E+02  0.90752127303E+02  0.00000000000E+00 0. -1.
</event>
<event>
 7    1  0.2855090E-009  0.1236783E+03  0.7561462E-02  0.1237150E+00
         -4   -1    0    0    0  501 -0.00000000000E+00  0.00000000000E+00  0.16437141409E+03  0.16437141409E+03  0.00000000000E+00 0.  1.
          4   -1    0    0  501    0  0.00000000000E+00 -0.00000000000E+00 -0.13122177075E+03  0.13122177075E+03  0.00000000000E+00 0. -1.
         25    2    1    2    0    0  0.44435478989E+02  0.26583268232E+02 -0.52920834647E+02  0.14535740983E+03  0.12508788875E+03 0.  0.
          5    1    3    3  502    0 -0.20360082564E+02 -0.31497204087E+02  0.86043948685E+01  0.38705488479E+02  0.41800000000E+01 0.  1.
         -5    1    3    3    0  502  0.64795561553E+02  0.58080472320E+02 -0.61525229515E+02  0.10665192135E+03  0.41800000000E+01 0.  1.
        -11    1    1    2    0    0 -0.87950085097E+01 -0.67597345779E+02  0.55407076270E+02  0.87844734799E+02  0.00000000000E+00 0.  1.
         11    1    1    2    0    0 -0.35640470479E+02  0.41014077547E+02  0.30663401724E+02  0.62391040208E+02  0.00000000000E+00 0. -1.
</event>
<event>
 7    1  0.2855090E-009  0.1408742E+03  0.7561462E-02  0.1212157E+00
          1   -1    0    0  501    0  0.00000000000E+00  0.00000000000E+00  0.49990863756E+02  0.49990863756E+02  0.00000000000E+00 0. -1.
         -1   -1    0    0    0  501 -0.00000000000E+00 -0.00000000000E+00 -0.48313928818E+03  0.48313928818E+03  0.00000000000E+00 0.  1.
         25    2    1    2    0    0  0.84805019063E+02 -0.67141283090E+02 -0.28051961223E+03  0.32563544319E+03  0.12508935154E+03 0.  0.
          5    1    3    3  502    0  0.66486567458E+02 -0.91584936164E+02 -0.13188630000E+03  0.17383823720E+03  0.41800000000E+01 0. -1.
         -5    1    3    3    0  502  0.18318451605E+02  0.24443653074E+02 -0.14863331223E+03  0.15179720600E+03  0.41800000000E+01 0. -1.
        -11    1    1    2    0    0 -0.31290152668E+02  0.77123364532E+02 -0.11213680249E+03  0.13964866445E+03  0.00000000000E+00 0.  1.
         11    1    1    2    0    0 -0.53514866396E+02 -0.99820814425E+01 -0.40492009708E+02  0.67846044287E+02  0.00000000000E+00 0. -1.
</event>
<event>
 7    1  0.2855090E-009  0.1298671E+03  0.7561462E-02  0.1227653E+00
         -2   -1    0    0    0  501 -0.00000000000E+00  0.00000000000E+00  0.17278477768E+03  0.17278477768E+03  0.00000000000E+00 0.  1.
          2   -1    0    0  501    0  0.00000000000E+00 -0.00000000000E+00 -0.12130337418E+03  0.12130337418E+03  0.00000000000E+00 0. -1.
         25    2    1    2    0    0  0.37675199013E+02  0.86932016194E+02  0.37726686583E+02  0.16138937829E+03  0.12508650001E+03 0.  0.
          5    1    3    3  502    0  0.57024663004E+02  0.11041360857E+03  0.39939758116E+02  0.13059721983E+03  0.41800000000E+01 0.  1.
         -5    1    3    3    0  502 -0.19349463991E+02 -0.23481592374E+02 -0.22130715333E+01  0.30792158463E+02  0.41800000000E+01 0.  1.
        -11    1    1    2    0    0  0.46903070766E+01 -0.44410113303E+02 -0.33892364926E+02  0.56062015165E+02  0.00000000000E+00 0. -1.
         11    1    1    2    0    0 -0.42365506089E+02 -0.42521902891E+02  0.47647081838E+02  0.76636758408E+02  0.00000000000E+00 0.  1.
</event>
<event>
 7    1  0.2855090E-009  0.1627138E+03  0.7561462E-02  0.1185667E+00
          2   -1    0    0  501    0  0.00000000000E+00  0.00000000000E+00  0.49154130655E+03  0.49154130655E+03  0.00000000000E+00 0. -1.
         -2   -1    0    0    0  501 -0.00000000000E+00 -0.00000000000E+00 -0.17123288891E+03  0.17123288891E+03  0.00000000000E+00 0.  1.
         25    2    1    2    0    0  0.12576125737E+03  0.37693848611E+02  0.43149237426E+03  0.46804843270E+03  0.12508775411E+03 0.  0.
          5    1    3    3  502    0 -0.15085436201E+02  0.17749441889E+02  0.15782538100E+03  0.15958990056E+03  0.41800000000E+01 0.  1.
         -5    1    3    3    0  502  0.14084669357E+03  0.19944406722E+02  0.27366699326E+03  0.30845853214E+03  0.41800000000E+01 0.  1.
        -11    1    1    2    0    0 -0.18091914611E+02 -0.47990705971E+02 -0.29313928574E+02  0.59073950624E+02  0.00000000000E+00 0. -1.
         11    1    1    2    0    0 -0.10766934276E+03  0.10296857360E+02 -0.81870028048E+02  0.13565181213E+03  0.00000000000E+00 0.  1.
</event>
<event>
 7    1  0.2855090E-009  0.2263308E+03  0.7561462E-02  0.1129249E+00
         -3   -1    0    0    0  501 -0.00000000000E+00  0.00000000000E+00  0.22103437361E+03  0.22103437361E+03  0.00000000000E+00 0.  1.
          3   -1    0    0  501    0  0.00000000000E+00 -0.00000000000E+00 -0.25954324040E+03  0.25954324040E+03  0.00000000000E+00 0. -1.
         25    2    1    2    0    0  0.45215138556E+02 -0.20310091515E+03  0.24722242960E+02  0.24404093142E+03  0.12510154445E+03 0.  0.
          5    1    3    3  502    0  0.68078760432E+02 -0.45150408118E+02  0.20531960888E+02  0.84334517210E+02  0.41800000000E+01 0. -1.
         -5    1    3    3    0  502 -0.22863621876E+02 -0.15795050703E+03  0.41902820718E+01  0.15970641421E+03  0.41800000000E+01 0. -1.
        -11    1    1    2    0    0  0.44486617228E+01  0.51346984819E+02  0.21418042769E+02  0.55812507533E+02  0.00000000000E+00 0.  1.
         11    1    1    2    0    0 -0.49663800278E+02  0.15175393033E+03 -0.84649152520E+02  0.18072417506E+03  0.00000000000E+00 0. -1.
</event>
<event>
 7    1  0.2855090E-009  0.1366972E+03  0.7561462E-02  0.1217843E+00
          2   -1    0    0  501    0  0.00000000000E+00  0.00000000000E+00  0.71447290754E+02  0.71447290754E+02  0.00000000000E+00 0. -1.
         -2   -1    0    0    0  501 -0.00000000000E+00 -0.00000000000E+00 -0.41584535635E+03  0.41584535635E+03  0.00000000000E+00 0.  1.
         25    2    1    2    0    0  0.58024776788E+02 -0.92911336362E+02 -0.28972027993E+03  0.33404110020E+03  0.12508487069E+03 0.  0.
          5    1    3    3  502    0  0.73922512718E+02 -0.80327977595E+01 -0.92881575570E+02  0.11905260689E+03  0.41800000000E+01 0.  1.
         -5    1    3    3    0  502 -0.15897735930E+02 -0.84878538602E+02 -0.19683870436E+03  0.21498849332E+03  0.41800000000E+01 0.  1.
        -11    1    1    2    0    0 -0.30979367953E+02  0.71653923156E+02 -0.79045684014E+02  0.11109557194E+03  0.00000000000E+00 0.  1.
         11    1    1    2    0    0 -0.27045408835E+02  0.21257413206E+02  0.24367898351E+02  0.42155974965E+02  0.00000000000E+00 0. -1.
</event>
<event>
 7    1  0.2855090E-009  0.1081077E+03  0.7561462E-02  0.1264115E+00
          2   -1    0    0  501    0  0.00000000000E+00  0.00000000000E+00  0.39634751232E+03  0.39634751232E+03  0.00000000000E+00 0.  1.
         -2   -1    0    0    0  501 -0.00000000000E+00 -0.00000000000E+00 -0.39540133444E+02  0.39540133444E+02  0.00000000000E+00 0. -1.
         25    2    1    2    0    0 -0.37089955659E+02  0.49056257676E+02  0.21477263344E+03  0.25603972848E+03  0.12508747842E+03 0.  0.
          5    1    3    3  502    0 -0.61044112524E+02 -0.80585020247E+01  0.16598352887E+03  0.17708564986E+03  0.41800000000E+01 0.  1.
         -5    1    3    3    0  502  0.23954156865E+02  0.57114759701E+02  0.48789104573E+02  0.78954078627E+02  0.41800000000E+01 0.  1.
        -11    1    1    2    0    0  0.46820636422E+02 -0.47486133070E+01  0.22835626265E+02  0.52308576259E+02  0.00000000000E+00 0.  1.
         11    1    1    2    0    0 -0.97306807636E+01 -0.44307644370E+02  0.11919911916E+03  0.12753934102E+03  0.00000000000E+00 0. -1.
</event>
<event>
 7    1  0.2855090E-009  0.1541921E+03  0.7561462E-02  0.1195414E+00
         -1   -1    0    0    0  501 -0.00000000000E+00  0.00000000000E+00  0.45425126744E+03  0.45425126744E+03  0.00000000000E+00 0.  1.
          1   -1    0    0  501    0  0.00000000000E+00 -0.00000000000E+00 -0.71479271525E+02  0.71479271525E+02  0.00000000000E+00 0. -1.
         25    2    1    2    0    0 -0.12077980739E+03  0.75403173601E+02  0.23180383537E+03  0.29942248227E+03  0.12508958524E+03 0.  0.
          5    1    3    3  502    0 -0.13262131457E+03  0.74816603552E+02  0.14040811614E+03  0.20716623451E+03  0.41800000000E+01 0. -1.
         -5    1    3    3    0  502  0.11841507176E+02  0.58657004920E+00  0.91395719236E+02  0.92256247763E+02  0.41800000000E+01 0. -1.
        -11    1    1    2    0    0  0.37946418917E+02 -0.33684565225E+02  0.19406792959E+01  0.50777424897E+02  0.00000000000E+00 0. -1.
         11    1    1    2    0    0  0.82833388475E+02 -0.41718608376E+02  0.14902748125E+03  0.17553063179E+03  0.00000000000E+00 0.  1.
</event>
<event>
 7    1  0.2855090E-009  0.1524524E+03  0.7561462E-02  0.1197491E+00
          3   -1    0    0  501    0  0.00000000000E+00  0.00000000000E+00  0.71117528939E+02  0.71117528939E+02  0.00000000000E+00 0. -1.
         -3   -1    0    0    0  501 -0.00000000000E+00 -0.00000000000E+00 -0.42186320744E+03  0.42186320744E+03  0.00000000000E+00 0.  1.
         25    2    1    2    0    0  0.59008811332E+02  0.10460667882E+03 -0.98060116408E+02  0.19921850906E+03  0.12509049067E+03 0.  0.
          5    1    3    3  502    0  0.68523262153E+02  0.12933167027E+03 -0.79613758160E+02  0.16666715717E+03  0.41800000000E+01 0. -1.
         -5    1    3    3    0  502 -0.95144508212E+01 -0.24724991459E+02 -0.18446358248E+02  0.32551351887E+02  0.41800000000E+01 0. -1.
        -11    1    1    2    0    0 -0.61633946498E+02 -0.56899422730E+02 -0.22112378393E+03  0.23649950420E+03  0.00000000000E+00 0.  1.
         11    1    1    2    0    0  0.26251351661E+01 -0.47707256086E+02 -0.31561778166E+02  0.57262723118E+02  0.00000000000E+00 0. -1.
</event>
<event>
 6    1  0.3740684E-009  0.1074829E+03  0.7561462E-02  0.1265303E+00
          1   -1    0    0  501    0  0.00000000000E+00  0.00000000000E+00  0.18618494192E+04  0.18618494192E+04  0.00000000000E+00 0. -1.
         -1   -1    0    0    0  501 -0.00000000000E+00 -0.00000000000E+00 -0.15971473160E+02  0.15971473160E+02  0.00000000000E+00 0.  1.
          5    1    1    2  502    0 -0.49570852554E+02 -0.37981373954E+02  0.69937442169E+03  0.70216942991E+03  0.41800000000E+01 0.  1.
         -5    1    1    2    0  502  0.28203153467E+02  0.54729614591E+02  0.99613462295E+03  0.99804429161E+03  0.41800000000E+01 0.  1.
        -11    1    1    2    0    0 -0.25913009649E+02  0.18375589416E+02  0.30447723277E+02  0.44002388665E+02  0.00000000000E+00 0.  1.
         11    1    1    2    0    0  0.47280708735E+02 -0.35123830053E+02  0.11992117811E+03  0.13360478216E+03  0.00000000000E+00 0. -1.
</event>
<event>
 7    1  0.3930612E-009  0.4572865E+02  0.7561462E-02  0.1469843E+00
         -2   -1    0    0    0  501 -0.00000000000E+00  0.00000000000E+00  0.16207656532E+03  0.16207656532E+03  0.00000000000E+00 0.  1.
          2   -1    0    0  501    0  0.00000000000E+00 -0.00000000000E+00 -0.79390913812E+02  0.79390913812E+02  0.00000000000E+00 0. -1.
         25    2    1    2    0    0 -0.26880079240E+02  0.20427377617E+02  0.47145847373E+02  0.13787625967E+03  0.12508923071E+03 0.  0.
          5    1    3    3  502    0 -0.25103344793E+02  0.25985005830E+02 -0.37899544829E+02  0.52528528877E+02  0.41800000000E+01 0. -1.
         -5    1    3    3    0  502 -0.17767344474E+01 -0.55576282134E+01  0.85045392201E+02  0.85347730792E+02  0.41800000000E+01 0. -1.
        -11    1    1    2    0    0 -0.56025498215E+00 -0.20460487476E+02  0.62109597321E+02  0.65395317209E+02  0.00000000000E+00 0.  1.
         11    1    1    2    0    0  0.27440334223E+02  0.33109858946E-01 -0.26569793191E+02  0.38195902250E+02  0.00000000000E+00 0. -1.
</event>
<event>
 7    1  0.2855090E-009  0.1091094E+03  0.7561462E-02  0.1262228E+00
         -2   -1    0    0    0  501 -0.00000000000E+00  0.00000000000E+00  0.29765906981E+02  0.29765906981E+02  0.00000000000E+00 0.  1.
          2   -1    0    0  501    0  0.00000000000E+00 -0.00000000000E+00 -0.60743386347E+03  0.60743386347E+03  0.00000000000E+00 0. -1.
         25    2    1    2    0    0 -0.46447747067E+02  0.34663799675E+02 -0.44775622453E+03  0.46850185154E+03  0.12509746630E+03 0.  0.
          5    1    3    3  502    0 -0.35477744779E+01  0.69218015118E+02 -0.14525425818E+03  0.16099687028E+03  0.41800000000E+01 0. -1.
         -5    1    3    3    0  502 -0.42899972589E+02 -0.34554215443E+02 -0.30250196635E+03  0.30750498126E+03  0.41800000000E+01 0. -1.
        -11    1    1    2    0    0  0.17370144623E+02 -0.55247896665E+02 -0.11745492381E+03  0.13095690565E+03  0.00000000000E+00 0. -1.
         11    1    1    2    0    0  0.29077602444E+02  0.20584096990E+02 -0.12456808149E+02  0.37741013262E+02  0.00000000000E+00 0.  1.
</event>
<event>
 7    1  0.2855090E-009  0.9969542E+02  0.7561462E-02  0.1280938E+00
          1   -1    0    0  501    0  0.00000000000E+00  0.00000000000E+00  0.33658878630E+03  0.33658878630E+03  0.00000000000E+00 0. -1.
         -1   -1    0    0    0  501 -0.00000000000E+00 -0.00000000000E+00 -0.37150873235E+02  0.37150873235E+02  0.00000000000E+00 0.  1.
         25    2    1    2    0    0 -0.22910411767E+02  0.21917916855E+02  0.19342539398E+03  0.23251881371E+03  0.12508530547E+03 0.  0.
          5    1    3    3  502    0  0.45110482973E+02  0.32843249021E+02  0.11603442525E+03  0.12882195047E+03  0.41800000000E+01 0. -1.
         -5    1    3    3    0  502 -0.68020894740E+02 -0.10925332166E+02  0.77390968732E+02  0.10369686324E+03  0.41800000000E+01 0. -1.
        -11    1    1    2    0    0 -0.19299982109E+02 -0.25582349045E+02  0.59986290956E+01  0.32602598717E+02  0.00000000000E+00 0.  1.
         11    1    1    2    0    0  0.42210393876E+02  0.36644321904E+01  0.10001388999E+03  0.10861824711E+03  0.00000000000E+00 0. -1.
</event>
<event>
 7    1  0.2855090E-009  0.1049107E+03  0.7561462E-02  0.1270296E+00
         -4   -1    0    0    0  501 -0.00000000000E+00  0.00000000000E+00  0.27030864486E+03  0.27030864486E+03  0.00000000000E+00 0.  1.
          4   -1    0    0  501    0  0.00000000000E+00 -0.00000000000E+00 -0.53301802640E+02  0.53301802640E+02  0.00000000000E+00 0. -1.
         25    2    1    2    0    0 -0.46268282897E+02 -0.33281818173E+02  0.11072821539E+03  0.17651474080E+03  0.12509309578E+03 0.  0.
          5    1    3    3  502    0 -0.39459993555E+01 -0.76565420963E+02  0.62513918098E+02  0.99011600099E+02  0.41800000000E+01 0. -1.
         -5    1    3    3    0  502 -0.42322283542E+02  0.43283602790E+02  0.48214297294E+02  0.77503140699E+02  0.41800000000E+01 0. -1.
        -11    1    1    2    0    0  0.20664644603E+02 -0.93098297456E+01 -0.67300549303E+01  0.23643056187E+02  0.00000000000E+00 0. -1.
         11    1    1    2    0    0  0.25603638294E+02  0.42591647918E+02  0.11300868176E+03  0.12345265052E+03  0.00000000000E+00 0.  1.
</event>
<event>
 7    1  0.2855090E-009  0.7090564E+02  0.7561462E-02  0.1357040E+00
          2   -1    0    0  501    0  0.00000000000E+00  0.00000000000E+00  0.11069645915E+03  0.11069645915E+03  0.00000000000E+00 0. -1.
         -2   -1    0    0    0  501 -0.00000000000E+00 -0.00000000000E+00 -0.13058996138E+03  0.13058996138E+03  0.00000000000E+00 0.  1.
         25    2    1    2    0    0  0.57537614859E-01  0.65383681750E+01 -0.64494890043E+02  0.14089213681E+03  0.12509296465E+03 0.  0.
          5    1    3    3  502    0 -0.26058537414E+02 -0.15848100748E+02  0.28314159913E+02  0.41825515192E+02  0.41800000000E+01 0.  1.
         -5    1    3    3    0  502  0.26116075029E+02  0.22386468923E+02 -0.92809049957E+02  0.99066621622E+02  0.41800000000E+01 0.  1.
        -11    1    1    2    0    0  0.13551204855E+02 -0.38941090023E+02 -0.28677035977E+01  0.41331191238E+02  0.00000000000E+00 0.  1.
         11    1    1    2    0    0 -0.13608742470E+02  0.32402721848E+02  0.47469091411E+02  0.59063092487E+02  0.00000000000E+00 0. -1.
</event>
<event>
 7    1  0.2855090E-009  0.1043742E+03  0.7561462E-02  0.1271358E+00
          2   -1    0    0  501    0  0.00000000000E+00  0.00000000000E+00  0.56249604619E+03  0.56249604619E+03  0.00000000000E+00 0. -1.
         -2   -1    0    0    0  501 -0.00000000000E+00 -0.00000000000E+00 -0.21666263336E+02  0.21666263336E+02  0.00000000000E+00 0.  1.
         25    2    1    2    0    0 -0.13031761637E+02  0.10342523760E+02  0.27045542294E+03  0.29844618751E+03  0.12508875423E+03 0.  0.
          5    1    3    3  502    0  0.49145231476E+02  0.23641985543E+02  0.74720048722E+02  0.92599974829E+02  0.41800000000E+01 0. -1.
         -5    1    3    3    0  502 -0.62176993113E+02 -0.13299461783E+02  0.19573537422E+03  0.20584621268E+03  0.41800000000E+01 0. -1.
        -11    1    1    2    0    0  0.51169613586E+02 -0.15489210458E+01  0.18200225316E+03  0.18906493241E+03  0.00000000000E+00 0. -1.
         11    1    1    2    0    0 -0.38137851949E+02 -0.87936027145E+01  0.88372106754E+02  0.96651189605E+02  0.00000000000E+00 0.  1.
</event>
<event>
 7    1  0.2855090E-009  0.1684335E+03  0.7561462E-02  0.1179491E+00
          2   -1    0    0  501    0  0.00000000000E+00  0.00000000000E+00  0.45164156109E+03  0.45164156109E+03  0.00000000000E+00 0. -1.
         -2   -1    0    0    0  501 -0.00000000000E+00 -0.00000000000E+00 -0.80127557360E+02  0.80127557360E+02  0.00000000000E+00 0.  1.
         25    2    1    2    0    0  0.99468139353E+02  0.87531093395E+02  0.80278393767E+02  0.19911740984E+03  0.12509004492E+03 0.  0.
          5    1    3    3  502    0  0.12284156206E+03  0.48453119416E+02  0.39624551435E+02  0.13793234438E+03  0.41800000000E+01 0.  1.
         -5    1    3    3    0  502 -0.23373422703E+02  0.39077973979E+02  0.40653842331E+02  0.61185065461E+02  0.41800000000E+01 0.  1.
        -11    1    1    2    0    0 -0.63536376336E+02  0.92925933331E+00  0.93197469200E+02  0.11279850578E+03  0.00000000000E+00 0.  1.
         11    1    1    2    0    0 -0.35931763017E+02 -0.88460352728E+02  0.19803814076E+03  0.21985320283E+03  0.00000000000E+00 0. -1.
</event>
<event>
 7    1  0.2855090E-009  0.6178230E+02  0.7561462E-02  0.1390501E+00
         -2   -1    0    0    0  501 -0.00000000000E+00  0.00000000000E+00  0.25156817105E+02  0.25156817105E+02  0.00000000000E+00 0.  1.
          2   -1    0    0  501    0  0.00000000000E+00 -0.00000000000E+00 -0.45779971281E+03  0.45779971281E+03  0.00000000000E+00 0. -1.
         25    2    1    2    0    0 -0.16853870729E+01  0.10446646364E+01 -0.38821686517E+03  0.40787690667E+03  0.12508918716E+03 0.  0.
          5    1    3    3  502    0 -0.31183145280E+02 -0.84290836882E+01 -0.37052831556E+03  0.37195717904E+03  0.41800000000E+01 0. -1.
         -5    1    3    3    0  502  0.29497758207E+02  0.94737483247E+01 -0.17688549601E+02  0.35919727638E+02  0.41800000000E+01 0. -1.
        -11    1    1    2    0    0  0.21825691302E+02  0.20707672105E+02 -0.28435355397E+02  0.41397317804E+02  0.00000000000E+00 0. -1.
         11    1    1    2    0    0 -0.20140304229E+02 -0.21752336741E+02 -0.15990675145E+02  0.33682305440E+02  0.00000000000E+00 0.  1.
</event>
<event>
 7    1  0.2855090E-009  0.1363316E+03  0.7561462E-02  0.1218352E+00
          1   -1    0    0  501    0  0.00000000000E+00  0.00000000000E+00  0.14860222084E+03  0.14860222084E+03  0.00000000000E+00 0. -1.
         -1   -1    0    0    0  501 -0.00000000000E+00 -0.00000000000E+00 -0.30458261102E+03  0.30458261102E+03  0.00000000000E+00 0.  1.
         25    2    1    2    0    0 -0.27791366304E+02  0.12761703935E+03  0.54684350170E+02  0.18893616205E+03  0.12509207171E+03 0.  0.
          5    1    3    3  502    0 -0.83168475575E+01  0.46274809439E+02 -0.40471602621E+02  0.62176771874E+02  0.41800000000E+01 0. -1.
         -5    1    3    3    0  502 -0.19474518747E+02  0.81342229912E+02  0.95155952791E+02  0.12675939018E+03  0.41800000000E+01 0. -1.
        -11    1    1    2    0    0 -0.46581471118E+01 -0.96970648937E+02 -0.78809162058E+02  0.12504354887E+03  0.00000000000E+00 0.  1.
         11    1    1    2    0    0  0.32449513416E+02 -0.30646390415E+02 -0.13185557830E+03  0.13920512093E+03  0.00000000000E+00 0. -1.
</event>
<event>
 7    1  0.2855090E-009  0.1109952E+03  0.7561462E-02  0.1258738E+00
         -2   -1    0    0    0  501 -0.00000000000E+00  0.00000000000E+00  0.20003232056E+02  0.20003232056E+02  0.00000000000E+00 0.  1.
          2   -1    0    0  501    0  0.00000000000E+00 -0.00000000000E+00 -0.73847970971E+03  0.73847970971E+03  0.00000000000E+00 0. -1.
         25    2    1    2    0    0 -0.53956222679E+02  0.59715890027E+01 -0.36092022769E+03  0.38582377804E+03  0.12509853359E+03 0.  0.
          5    1    3    3  502    0 -0.33445857460E+02  0.55073470085E+02 -0.28977213096E+03  0.29687888569E+03  0.41800000000E+01 0. -1.
         -5    1    3    3    0  502 -0.20510365218E+02 -0.49101881082E+02 -0.71148096732E+02  0.88944892353E+02  0.41800000000E+01 0. -1.
        -11    1    1    2    0    0  0.78535038073E+02  0.83674240854E+00 -0.24639545281E+03  0.25861007619E+03  0.00000000000E+00 0.  1.
         11    1    1    2    0    0 -0.24578815394E+02 -0.68083314112E+01 -0.11116079716E+03  0.11404908754E+03  0.00000000000E+00 0. -1.
</event>
<event>
 7    1  0.2855090E-009  0.1775559E+03  0.7561462E-02  0.1170190E+00
          2   -1    0    0  501    0  0.00000000000E+00  0.00000000000E+00  0.61613800304E+03  0.61613800304E+03  0.00000000000E+00 0. -1.
         -2   -1    0    0    0  501 -0.00000000000E+00 -0.00000000000E+00 -0.67296796286E+02  0.67296796286E+02  0.00000000000E+00 0.  1.
         25    2    1    2    0    0 -0.49090534070E+02 -0.15698184255E+03  0.22185733294E+03  0.30318636870E+03  0.12509244007E+03 0.  0.
          5    1    3    3  502    0 -0.17880472734E+02 -0.15970211994E+02  0.12936191965E+03  0.13163106636E+03  0.41800000000E+01 0. -1.
         -5    1    3    3    0  502 -0.31210061336E+02 -0.14101163056E+03  0.92495413288E+02  0.17155530234E+03  0.41800000000E+01 0. -1.
        -11    1    1    2    0    0  0.62017274035E+02  0.53205007030E+02  0.92027078939E+02  0.12306867315E+03  0.00000000000E+00 0. -1.
         11    1    1    2    0    0 -0.12926739965E+02  0.10377683552E+03  0.23495679488E+03  0.25717975748E+03  0.00000000000E+00 0.  1.
</event>
<event>
 7    1  0.2855090E-009  0.2941527E+03  0.7561462E-02  0.1088201E+00
          4   -1    0    0  501    0  0.00000000000E+00  0.00000000000E+00  0.10300728278E+04  0.10300728278E+04  0.00000000000E+00 0.  1.
         -4   -1    0    0    0  501 -0.00000000000E+00 -0.00000000000E+00 -0.10344497527E+03  0.10344497527E+03  0.00000000000E+00 0. -1.
         25    2    1    2    0    0  0.14005955348E+03  0.24386841137E+03  0.69769068296E+03  0.76256592764E+03  0.12508406898E+03 0.  0.
          5    1    3    3  502    0  0.12004803932E+03  0.11596269308E+03  0.49131217025E+03  0.51890654165E+03  0.41800000000E+01 0. -1.
         -5    1    3    3    0  502  0.20011514165E+02  0.12790571829E+03  0.20637851271E+03  0.24365938599E+03  0.41800000000E+01 0. -1.
        -11    1    1    2    0    0 -0.81281501629E+01 -0.84643935263E+02  0.63193084458E+02  0.10594351573E+03  0.00000000000E+00 0. -1.
         11    1    1    2    0    0 -0.13193140332E+03 -0.15922447611E+03  0.16574408515E+03  0.26500835975E+03  0.00000000000E+00 0.  1.
</event>
<event>
 7    1  0.2855090E-009  0.1041255E+03  0.7561462E-02  0.1271852E+00
          1   -1    0    0  501    0  0.00000000000E+00  0.00000000000E+00  0.27988928262E+03  0.27988928262E+03  0.00000000000E+00 0. -1.
         -1   -1    0    0    0  501 -0.00000000000E+00 -0.00000000000E+00 -0.56359507069E+02  0.56359507069E+02  0.00000000000E+00 0.  1.
         25    2    1    2    0    0 -0.15442791762E+02 -0.38604780070E+02  0.13605791451E+03  0.18943944123E+03  0.12508691750E+03 0.  0.
          5    1    3    3  502    0  0.38848302542E+02 -0.55644102941E+02  0.10324234230E+03  0.12362002446E+03  0.41800000000E+01 0. -1.
         -5    1    3    3    0  502 -0.54291094304E+02  0.17039322872E+02  0.32815572209E+02  0.65819416771E+02  0.41800000000E+01 0. -1.
        -11    1    1    2    0    0 -0.25379694535E+02 -0.22117650912E+01 -0.14732325426E+02  0.29428934945E+02  0.00000000000E+00 0.  1.
         11    1    1    2    0    0  0.40822486297E+02  0.40816545161E+02  0.10220418647E+03  0.11738041352E+03  0.00000000000E+00 0. -1.
</event>
<event>
 7    1  0.2855090E-009  0.2822770E+03  0.7561462E-02  0.1094452E+00
         -2   -1    0    0    0  501 -0.00000000000E+00  0.00000000000E+00  0.96820111111E+03  0.96820111111E+03  0.00000000000E+00 0.  1.
          2   -1    0    0  501    0  0.00000000000E+00 -0.00000000000E+00 -0.91566467806E+02  0.91566467806E+02  0.00000000000E+00 0. -1.
         25    2    1    2    0    0 -0.27399218693E+03 -0.70899807004E+01  0.50559148385E+03  0.58855187550E+03  0.12509426563E+03 0.  0.
          5    1    3    3  502    0 -0.22697642018E+03  0.10477506086E+02  0.29702832625E+03  0.37399381338E+03  0.41800000000E+01 0. -1.
         -5    1    3    3    0  502 -0.47015766750E+02 -0.17567486786E+02  0.20856315760E+03  0.21455806212E+03  0.41800000000E+01 0. -1.
        -11    1    1    2    0    0  0.20143550360E+03  0.43003505616E+02  0.23132361317E+03  0.30973565765E+03  0.00000000000E+00 0.  1.
         11    1    1    2    0    0  0.72556683322E+02 -0.35913524915E+02  0.13971954629E+03  0.16148004577E+03  0.00000000000E+00 0. -1.
</event>
<event>
 7    1  0.2855090E-009  0.9009273E+02  0.7561462E-02  0.1302627E+00
         -1   -1    0    0    0  501 -0.00000000000E+00  0.00000000000E+00  0.94224284308E+02  0.94224284308E+02  0.00000000000E+00 0.  1.
          1   -1    0    0  501    0  0.00000000000E+00 -0.00000000000E+00 -0.17699991229E+03  0.17699991229E+03  0.00000000000E+00 0. -1.
         25    2    1    2    0    0 -0.17123744757E+01  0.66195310771E+02 -0.17782153784E+02  0.14263733629E+03  0.12507778906E+03 0.  0.
          5    1    3    3  502    0  0.40359191807E+02  0.20411895476E+02  0.37831623297E+02  0.59111876653E+02  0.41800000000E+01 0.  1.
         -5    1    3    3    0  502 -0.42071566282E+02  0.45783415295E+02 -0.55613777081E+02  0.83525459632E+02  0.41800000000E+01 0.  1.
        -11    1    1    2    0    0 -0.12579745592E+02 -0.16568891727E+02  0.20177977292E+02  0.28981527562E+02  0.00000000000E+00 0.  1.
         11    1    1    2    0    0  0.14292120068E+02 -0.49626419044E+02 -0.85171451486E+02  0.99605332746E+02  0.00000000000E+00 0. -1.
</event>
<event>
 7    1  0.2855090E-009  0.6985909E+02  0.7561462E-02  0.1360573E+00
          1   -1    0    0  501    0  0.00000000000E+00  0.00000000000E+00  0.77167284394E+03  0.77167284394E+03  0.00000000000E+00 0. -1.
         -1   -1    0    0    0  501 -0.00000000000E+00 -0.00000000000E+00 -0.16145715584E+02  0.16145715584E+02  0.00000000000E+00 0.  1.
         25    2    1    2    0    0 -0.17133356705E+02  0.11142605725E+02  0.43041718686E+03  0.44869273313E+03  0.12509398244E+03 0.  0.
          5    1    3    3  502    0 -0.23422456616E+02 -0.12461383446E+02  0.11789165196E+02  0.29331797888E+02  0.41800000000E+01 0.  1.
         -5    1    3    3    0  502  0.62890999108E+01  0.23603989170E+02  0.41862802166E+03  0.41936093524E+03  0.41800000000E+01 0.  1.
        -11    1    1    2    0    0  0.46766313890E+02  0.14423384585E+02  0.10875145756E+03  0.11925603406E+03  0.00000000000E+00 0.  1.
         11    1    1    2    0    0 -0.29632957185E+02 -0.25565990309E+02  0.21635848393E+03  0.21986979234E+03  0.00000000000E+00 0. -1.
</event>
<event>
 7    1  0.2855090E-009  0.9245900E+02  0.7561462E-02  0.1297004E+00
          1   -1    0    0  501    0  0.00000000000E+00  0.00000000000E+00  0.83931057293E+02  0.83931057293E+02  0.00000000000E+00 0. -1.
         -1   -1    0    0    0  501 -0.00000000000E+00 -0.00000000000E+00 -0.18151587926E+03  0.18151587926E+03  0.00000000000E+00 0.  1.
         25    2    1    2    0    0 -0.51306387787E+01  0.21696618209E+02  0.37533451608E+01  0.12710673336E+03  0.12507984398E+03 0.  0.
          5    1    3    3  502    0 -0.31349191755E+01  0.73703413611E+02 -0.54501932219E+01  0.74089121349E+02  0.41800000000E+01 0. -1.
         -5    1    3    3    0  502 -0.19957196033E+01 -0.52006795401E+02  0.92035383827E+01  0.53017612012E+02  0.41800000000E+01 0. -1.
        -11    1    1    2    0    0  0.12751040823E+02  0.15942306526E+02 -0.97649834035E+02  0.99760895477E+02  0.00000000000E+00 0.  1.
         11    1    1    2    0    0 -0.76204020441E+01 -0.37638924735E+02 -0.36883330906E+01  0.38579307712E+02  0.00000000000E+00 0. -1.
</event>
<event>
 7    1  0.2855090E-009  0.1123018E+03  0.7561462E-02  0.1256366E+00
         -2   -1    0    0    0  501 -0.00000000000E+00  0.00000000000E+00  0.30429384290E+03  0.30429384290E+03  0.00000000000E+00 0.  1.
          2   -1    0    0  501    0  0.00000000000E+00 -0.00000000000E+00 -0.65075762319E+02  0.65075762319E+02  0.00000000000E+00 0. -1.
         25    2    1    2    0    0 -0.38145402709E+01  0.53402750633E+02  0.36622953622E+02  0.14092074169E+03  0.12510399759E+03 0.  0.
          5    1    3    3  502    0  0.17218361863E+02  0.86650413472E+02  0.46809755871E+02  0.10006693652E+03  0.41800000000E+01 0.  1.
         -5    1    3    3    0  502 -0.21032902133E+02 -0.33247662839E+02 -0.10186802250E+02  0.40853805165E+02  0.41800000000E+01 0.  1.
        -11    1    1    2    0    0 -0.79656753172E+01 -0.73160903062E+02  0.18615645879E+03  0.20017541525E+03  0.00000000000E+00 0. -1.
         11    1    1    2    0    0  0.11780215588E+02  0.19758152430E+02  0.16438668171E+02  0.28273448286E+02  0.00000000000E+00 0.  1.
</event>
<event>
 7    1  0.2855090E-009  0.1932337E+03  0.7561462E-02  0.1155577E+00
         -1   -1    0    0    0  501 -0.00000000000E+00  0.00000000000E+00  0.11291308477E+03  0.11291308477E+03  0.00000000000E+00 0.  1.
          1   -1    0    0  501    0  0.00000000000E+00 -0.00000000000E+00 -0.50296848446E+03  0.50296848446E+03  0.00000000000E+00 0. -1.
         25    2    1    2    0    0 -0.79369642828E+02 -0.16311548507E+03 -0.34279439850E+03  0.40750612931E+03  0.12508814538E+03 0.  0.
          5    1    3    3  502    0 -0.87090551666E+02 -0.13401016153E+03 -0.17522729035E+03  0.23720363249E+03  0.41800000000E+01 0.  1.
         -5    1    3    3    0  502  0.77209088372E+01 -0.29105323539E+02 -0.16756710814E+03  0.17030249682E+03  0.41800000000E+01 0.  1.
        -11    1    1    2    0    0  0.59237464299E+02  0.40093133755E+02  0.80796806921E+01  0.71984844176E+02  0.00000000000E+00 0.  1.
         11    1    1    2    0    0  0.20132178529E+02  0.12302235131E+03 -0.55340681886E+02  0.13639059574E+03  0.00000000000E+00 0. -1.
</event>
<event>
 7    1  0.3486380E-009  0.1272660E+03  0.7561462E-02  0.1231570E+00
         -1   -1    0    0    0  501 -0.00000000000E+00  0.00000000000E+00  0.38835615240E+02  0.38835615240E+02  0.00000000000E+00 0.  1.
          1   -1    0    0  501    0  0.00000000000E+00 -0.00000000000E+00 -0.58534631723E+03  0.58534631723E+03  0.00000000000E+00 0. -1.
         25    2    1    2    0    0 -0.29271935408E+02 -0.94564272973E+02 -0.36116107995E+03  0.39482212643E+03  0.12509171805E+03 0.  0.
          5    1    3    3  502    0  0.39715302882E+02 -0.36384025077E+01 -0.55112280691E+02  0.68157018265E+02  0.41800000000E+01 0. -1.
         -5    1    3    3    0  502 -0.68987238290E+02 -0.90925870465E+02 -0.30604879926E+03  0.32666510817E+03  0.41800000000E+01 0. -1.
        -11    1    1    2    0    0  0.12757602342E+02  0.19088757969E+02  0.53751509526E+01  0.23580274512E+02  0.00000000000E+00 0.  1.
         11    1    1    2    0    0  0.16514333066E+02  0.75475515004E+02 -0.19072477299E+03  0.20577953152E+03  0.00000000000E+00 0. -1.
</event>
<event>
 7    1  0.2855090E-009  0.1087208E+03  0.7561462E-02  0.1262957E+00
          1   -1    0    0  501    0  0.00000000000E+00  0.00000000000E+00  0.24872835576E+03  0.24872835576E+03  0.00000000000E+00 0. -1.
         -1   -1    0    0    0  501 -0.00000000000E+00 -0.00000000000E+00 -0.65762915806E+02  0.65762915806E+02  0.00000000000E+00 0.  1.
         25    2    1    2    0    0 -0.53080312002E+02  0.36701901354E+02  0.76605542112E+02  0.16025910331E+03  0.12510004807E+03 0.  0.
          5    1    3    3  502    0 -0.85279138045E+02  0.17076483621E+02  0.15660003118E+02  0.88469462394E+02  0.41800000000E+01 0.  1.
         -5    1    3    3    0  502  0.32198826043E+02  0.19625417732E+02  0.60945538994E+02  0.71789640917E+02  0.41800000000E+01 0.  1.
        -11    1    1    2    0    0  0.67892441367E+02 -0.21525245062E+02  0.34177238708E+02  0.78998755784E+02  0.00000000000E+00 0.  1.
         11    1    1    2    0    0 -0.14812129365E+02 -0.15176656292E+02  0.72182659134E+02  0.75233412472E+02  0.00000000000E+00 0. -1.
</event>
<event>
 7    1  0.2855090E-009  0.7101997E+02  0.7561462E-02  0.1356659E+00
         -1   -1    0    0    0  501 -0.00000000000E+00  0.00000000000E+00  0.33946884433E+02  0.33946884433E+02  0.00000000000E+00 0.  1.
          1   -1    0    0  501    0  0.00000000000E+00 -0.00000000000E+00 -0.38665294608E+03  0.38665294608E+03  0.00000000000E+00 0. -1.
         25    2    1    2    0    0 -0.12086740990E+02 -0.28168449687E+02 -0.15967904689E+03  0.20514185485E+03  0.12508489810E+03 0.  0.
          5    1    3    3  502    0  0.11597570297E+02  0.21117107941E+02  0.10301616261E+02  0.26533593465E+02  0.41800000000E+01 0. -1.
         -5    1    3    3    0  502 -0.23684311287E+02 -0.49285557628E+02 -0.16998066315E+03  0.17860826139E+03  0.41800000000E+01 0. -1.
        -11    1    1    2    0    0  0.13165841884E+02 -0.14775188665E+02 -0.22651978194E+01  0.19919254850E+02  0.00000000000E+00 0.  1.
         11    1    1    2    0    0 -0.10791008944E+01  0.42943638352E+02 -0.19076181694E+03  0.19553872081E+03  0.00000000000E+00 0. -1.
</event>
<event>
 7    1  0.2855090E-009  0.1275663E+03  0.7561462E-02  0.1231112E+00
         -2   -1    0    0    0  501 -0.00000000000E+00  0.00000000000E+00  0.19432030444E+02  0.19432030444E+02  0.00000000000E+00 0.  1.
          2   -1    0    0  501    0  0.00000000000E+00 -0.00000000000E+00 -0.10058308543E+04  0.10058308543E+04  0.00000000000E+00 0. -1.
         25    2    1    2    0    0  0.87090268419E+02 -0.44103899421E+00 -0.59743913733E+03  0.61657573738E+03  0.12508879940E+03 0.  0.
          5    1    3    3  502    0  0.40534141541E+02  0.51695895390E+02 -0.43113471470E+03  0.43613082539E+03  0.41800000000E+01 0. -1.
         -5    1    3    3    0  502  0.46556126878E+02 -0.52136934384E+02 -0.16630442263E+03  0.18044491199E+03  0.41800000000E+01 0. -1.
        -11    1    1    2    0    0 -0.29098618565E+02  0.39723132169E+02 -0.10145359773E+03  0.11277184633E+03  0.00000000000E+00 0.  1.
         11    1    1    2    0    0 -0.57991649855E+02 -0.39282093175E+02 -0.28750608882E+03  0.29591530107E+03  0.00000000000E+00 0. -1.
</event>
<event>
 7    1  0.2855090E-009  0.1190699E+03  0.7561462E-02  0.1244639E+00
          2   -1    0    0  501    0  0.00000000000E+00  0.00000000000E+00  0.30065373115E+03  0.30065373115E+03  0.00000000000E+00 0. -1.
         -2   -1    0    0    0  501 -0.00000000000E+00 -0.00000000000E+00 -0.60068168401E+02  0.60068168401E+02  0.00000000000E+00 0.  1.
         25    2    1    2    0    0  0.69808342273E+02 -0.45734662646E+02  0.10994955071E+03  0.18628384749E+03  0.12509158292E+03 0.  0.
          5    1    3    3  502    0 -0.29828323591E+02 -0.40228560640E+02  0.31851686524E+02  0.59498473205E+02  0.41800000000E+01 0. -1.
         -5    1    3    3    0  502  0.99636665863E+02 -0.55061020067E+01  0.78097864182E+02  0.12678537429E+03  0.41800000000E+01 0. -1.
        -11    1    1    2    0    0 -0.96816643828E+01  0.20750406389E+02 -0.54854276450E+01  0.23545783210E+02  0.00000000000E+00 0.  1.
         11    1    1    2    0    0 -0.60126677890E+02  0.24984256257E+02  0.13612143969E+03  0.15089226885E+03  0.00000000000E+00 0. -1.
</event>
<event>
 7    1  0.2855090E-009  0.1681282E+03  0.7561462E-02  0.1179814E+00
         -2   -1    0    0    0  501 -0.00000000000E+00  0.00000000000E+00  0.29628731017E+02  0.29628731017E+02  0.00000000000E+00 0. -1.
          2   -1    0    0  501    0  0.00000000000E+00 -0.00000000000E+00 -0.12091331070E+04  0.12091331070E+04  0.00000000000E+00 0.  1.
         25    2    1    2    0    0  0.11371056310E+03  0.85919066211E+02 -0.81089526288E+03  0.83277197563E+03  0.12508340387E+03 0.  0.
          5    1    3    3  502    0  0.22292331410E+01  0.67161586237E+02 -0.18811860964E+03  0.19980423379E+03  0.41800000000E+01 0. -1.
         -5    1    3    3    0  502  0.11148132996E+03  0.18757479974E+02 -0.62277665324E+03  0.63296774184E+03  0.41800000000E+01 0. -1.
        -11    1    1    2    0    0 -0.79709053372E+02 -0.91495654306E+02 -0.20030129192E+03  0.23419136511E+03  0.00000000000E+00 0. -1.
         11    1    1    2    0    0 -0.34001509727E+02  0.55765880950E+01 -0.16830782116E+03  0.17179849727E+03  0.00000000000E+00 0.  1.
</event>
<event>
 7    1  0.2855090E-009  0.1307176E+03  0.7561462E-02  0.1226395E+00
          2   -1    0    0  501    0  0.00000000000E+00  0.00000000000E+00  0.64316781750E+03  0.64316781750E+03  0.00000000000E+00 0. -1.
         -2   -1    0    0    0  501 -0.00000000000E+00 -0.00000000000E+00 -0.31103496912E+02  0.31103496912E+02  0.00000000000E+00 0.  1.
         25    2    1    2    0    0  0.84338657235E+02  0.32091221774E+02  0.37341256578E+03  0.40402820071E+03  0.12513587441E+03 0.  0.
          5    1    3    3  502    0  0.10907123881E+03  0.10008420228E+02  0.20633733340E+03  0.23364347020E+03  0.41800000000E+01 0. -1.
         -5    1    3    3    0  502 -0.24732581579E+02  0.22082801546E+02  0.16707523238E+03  0.17038473051E+03  0.41800000000E+01 0. -1.
        -11    1    1    2    0    0 -0.14796483416E+02  0.24585389070E+02  0.23337699956E+02  0.36986828959E+02  0.00000000000E+00 0.  1.
         11    1    1    2    0    0 -0.69542173819E+02 -0.56676610845E+02  0.21531405485E+03  0.23325628475E+03  0.00000000000E+00 0. -1.
</event>
<event>
 7    1  0.2855090E-009  0.9349422E+02  0.7561462E-02  0.1294604E+00
         -3   -1    0    0    0  501 -0.00000000000E+00  0.00000000000E+00  0.83612795085E+03  0.83612795085E+03  0.00000000000E+00 0.  1.
          3   -1    0    0  501    0  0.00000000000E+00 -0.00000000000E+00 -0.19930474255E+02  0.19930474255E+02  0.00000000000E+00 0. -1.
         25    2    1    2    0    0  0.49587573224E+02  0.31107319019E+02  0.58262947811E+03  0.59877424845E+03  0.12508756587E+03 0.  0.
          5    1    3    3  502    0  0.31082072131E+02 -0.12595996282E+02  0.51466670041E+03  0.51577518285E+03  0.41800000000E+01 0.  1.
         -5    1    3    3    0  502  0.18505501093E+02  0.43703315301E+02  0.67962777693E+02  0.82999065601E+02  0.41800000000E+01 0.  1.
        -11    1    1    2    0    0  0.33781266978E+01 -0.49397811809E+02  0.13651011753E+03  0.14521214735E+03  0.00000000000E+00 0.  1.
         11    1    1    2    0    0 -0.52965699922E+02  0.18290492791E+02  0.97057880959E+02  0.11207202930E+03  0.00000000000E+00 0. -1.
</event>
<event>
 7    1  0.2855090E-009  0.1288280E+03  0.7561462E-02  0.1229205E+00
         -1   -1    0    0    0  501 -0.00000000000E+00  0.00000000000E+00  0.98755206493E+02  0.98755206493E+02  0.00000000000E+00 0.  1.
          1   -1    0    0  501    0  0.00000000000E+00 -0.00000000000E+00 -0.21551051041E+03  0.21551051041E+03  0.00000000000E+00 0. -1.
         25    2    1    2    0    0  0.76597514779E+02  0.28331813894E+02 -0.71468554477E+01  0.14956184735E+03  0.12509115753E+03 0.  0.
          5    1    3    3  502    0 -0.27369152548E+02  0.63919348658E+01  0.25651035384E+02  0.38280221509E+02  0.41800000000E+01 0. -1.
         -5    1    3    3    0  502  0.10396666733E+03  0.21939879028E+02 -0.32797890832E+02  0.11128162584E+03  0.41800000000E+01 0. -1.
        -11    1    1    2    0    0 -0.99355859385E+01 -0.51408215457E+02 -0.48607694678E+02  0.71443883337E+02  0.00000000000E+00 0. -1.
         11    1    1    2    0    0 -0.66661928841E+02  0.23076401563E+02 -0.61000753791E+02  0.93259986216E+02  0.00000000000E+00 0.  1.
</event>
<event>
 7    1  0.2855090E-009  0.1549627E+03  0.7561462E-02  0.1194504E+00
          1   -1    0    0  501    0  0.00000000000E+00  0.00000000000E+00  0.53646296693E+03  0.53646296693E+03  0.00000000000E+00 0. -1.
         -1   -1    0    0    0  501 -0.00000000000E+00 -0.00000000000E+00 -0.12294183786E+03  0.12294183786E+03  0.00000000000E+00 0.  1.
         25    2    1    2    0    0 -0.11915965590E+03 -0.15900188883E+02  0.46817299038E+03  0.49928443759E+03  0.12508861297E+03 0.  0.
          5    1    3    3  502    0 -0.14447766275E+03 -0.24120411146E+02  0.39723091024E+03  0.42339751738E+03  0.41800000000E+01 0. -1.
         -5    1    3    3    0  502  0.25318006849E+02  0.82202222629E+01  0.70942080139E+02  0.75886920213E+02  0.41800000000E+01 0. -1.
        -11    1    1    2    0    0  0.76589846400E+02 -0.21743892323E+02 -0.64477281423E+02  0.10245057952E+03  0.00000000000E+00 0.  1.
         11    1    1    2    0    0  0.42569809501E+02  0.37644081206E+02  0.98254201090E+01  0.57669787680E+02  0.00000000000E+00 0. -1.
</event>
<event>
 7    1  0.2855090E-009  0.1121352E+03  0.7561462E-02  0.1256666E+00
         -4   -1    0    0    0  501 -0.00000000000E+00  0.00000000000E+00  0.19041889762E+03  0.19041889762E+03  0.00000000000E+00 0. -1.
          4   -1    0    0  501    0  0.00000000000E+00 -0.00000000000E+00 -0.71798204089E+02  0.71798204089E+02  0.00000000000E+00 0.  1.
         25    2    1    2    0    0  0.14333504285E+02  0.30939621001E+02  0.89026232808E+02  0.15727692786E+03  0.12509057685E+03 0.  0.
          5    1    3    3  502    0 -0.55289546659E+02  0.20158106220E+02  0.37788168300E+02  0.70062124430E+02  0.41800000000E+01 0. -1.
         -5    1    3    3    0  502  0.69623050944E+02  0.10781514781E+02  0.51238064508E+02  0.87214803435E+02  0.41800000000E+01 0. -1.
        -11    1    1    2    0    0 -0.44196527174E+02  0.87215497180E+01  0.31964153470E+02  0.55236813366E+02  0.00000000000E+00 0. -1.
         11    1    1    2    0    0  0.29863022889E+02 -0.39661170719E+02 -0.23696927499E+01  0.49703360476E+02  0.00000000000E+00 0.  1.
</event>
<event>
 7    1  0.2855090E-009  0.8714624E+02  0.7561462E-02  0.1309913E+00
         -3   -1    0    0    0  501 -0.00000000000E+00  0.00000000000E+00  0.46786328602E+02  0.46786328602E+02  0.00000000000E+00 0.  1.
          3   -1    0    0  501    0  0.00000000000E+00 -0.00000000000E+00 -0.40724328792E+03  0.40724328792E+03  0.00000000000E+00 0. -1.
         25    2    1    2    0    0 -0.47257634803E+02 -0.66024654146E+02 -0.15848483605E+03  0.21761904488E+03  0.12509223171E+03 0.  0.
          5    1    3    3  502    0 -0.11449703467E+02 -0.35364161425E+01  0.20798734057E+02  0.24365173650E+02  0.41800000000E+01 0.  1.
         -5    1    3    3    0  502 -0.35807931336E+02 -0.62488238004E+02 -0.17928357011E+03  0.19325387123E+03  0.41800000000E+01 0.  1.
        -11    1    1    2    0    0  0.52982340742E+02  0.51675423110E+02 -0.20726312071E+03  0.22008061930E+03  0.00000000000E+00 0. -1.
         11    1    1    2    0    0 -0.57247059394E+01  0.14349231036E+02  0.52909974459E+01  0.16329952339E+02  0.00000000000E+00 0.  1.
</event>
<event>
 7    1  0.2855090E-009  0.9360843E+02  0.7561462E-02  0.1294341E+00
         -2   -1    0    0    0  501 -0.00000000000E+00  0.00000000000E+00  0.23507239342E+03  0.23507239342E+03  0.00000000000E+00 0.  1.
          2   -1    0    0  501    0  0.00000000000E+00 -0.00000000000E+00 -0.89895652201E+02  0.89895652201E+02  0.00000000000E+00 0. -1.
         25    2    1    2    0    0  0.70434769580E+02  0.27630735153E+02  0.12900706742E+02  0.14675859264E+03  0.12508853659E+03 0.  0.
          5    1    3    3  502    0  0.10325936146E+02  0.29892062814E+02  0.61522147421E+02  0.69300847036E+02  0.41800000000E+01 0.  1.
         -5    1    3    3    0  502  0.60108833434E+02 -0.22613276612E+01 -0.48621440680E+02  0.77457745600E+02  0.41800000000E+01 0.  1.
        -11    1    1    2    0    0 -0.72887986877E+02 -0.58727093315E+01  0.39956133731E+02  0.83328506338E+02  0.00000000000E+00 0. -1.
         11    1    1    2    0    0  0.24532172965E+01 -0.21758025822E+02  0.92319900748E+02  0.94880946648E+02  0.00000000000E+00 0.  1.
</event>
<event>
 7    1  0.2855090E-009  0.1945822E+03  0.7561462E-02  0.1154392E+00
          1   -1    0    0  501    0  0.00000000000E+00  0.00000000000E+00  0.82871367360E+03  0.82871367360E+03  0.00000000000E+00 0. -1.
         -1   -1    0    0    0  501 -0.00000000000E+00 -0.00000000000E+00 -0.49472098471E+02  0.49472098471E+02  0.00000000000E+00 0.  1.
         25    2    1    2    0    0 -0.16204492047E+03 -0.45995610943E+02  0.34549769913E+03  0.40421583918E+03  0.12509049548E+03 0.  0.
          5    1    3    3  502    0 -0.10629357097E+02  0.32062848273E+02  0.97888753803E+02  0.10363730020E+03  0.41800000000E+01 0.  1.
         -5    1    3    3    0  502 -0.15141556337E+03 -0.78058459216E+02  0.24760894533E+03  0.30057853898E+03  0.41800000000E+01 0.  1.
        -11    1    1    2    0    0  0.25070373770E+02 -0.20572853335E+02  0.13258702118E+03  0.13649572931E+03  0.00000000000E+00 0. -1.
         11    1    1    2    0    0  0.13697454670E+03  0.66568464279E+02  0.30115685482E+03  0.33747420358E+03  0.00000000000E+00 0.  1.
</event>
<event>
 7    1  0.2855090E-009  0.1199100E+03  0.7561462E-02  0.1243246E+00
         -2   -1    0    0    0  501 -0.00000000000E+00  0.00000000000E+00  0.12021420851E+02  0.12021420851E+02  0.00000000000E+00 0. -1.
          2   -1    0    0  501    0  0.00000000000E+00 -0.00000000000E+00 -0.14718213328E+04  0.14718213328E+04  0.00000000000E+00 0.  1.
         25    2    1    2    0    0  0.60381927509E+02  0.40450988190E+02 -0.95008858249E+03  0.96104009506E+03  0.12508992813E+03 0.  0.
          5    1    3    3  502    0  0.62941401839E+02  0.69641338690E+02 -0.87938742065E+03  0.88439315020E+03  0.41800000000E+01 0.  1.
         -5    1    3    3    0  502 -0.25594743296E+01 -0.29190350499E+02 -0.70701161839E+02  0.76646944861E+02  0.41800000000E+01 0.  1.
        -11    1    1    2    0    0  0.19185996055E+02 -0.30552279202E+02 -0.16026949463E+03  0.16427980740E+03  0.00000000000E+00 0. -1.
         11    1    1    2    0    0 -0.79567923564E+02 -0.98987089883E+01 -0.34944183481E+03  0.35852285117E+03  0.00000000000E+00 0.  1.
</event>
<event>
 7    1  0.2855090E-009  0.1406683E+03  0.7561462E-02  0.1212433E+00
         -4   -1    0    0    0  501 -0.00000000000E+00  0.00000000000E+00  0.77684834442E+02  0.77684834442E+02  0.00000000000E+00 0.  1.
          4   -1    0    0  501    0  0.00000000000E+00 -0.00000000000E+00 -0.40143960440E+03  0.40143960440E+03  0.00000000000E+00 0. -1.
         25    2    1    2    0    0 -0.11113992798E+03 -0.26149874271E+02 -0.63082881545E+02  0.18072688485E+03  0.12508739925E+03 0.  0.
          5    1    3    3  502    0  0.90537529348E+01 -0.11085627647E+02  0.26227890897E+02  0.30170121701E+02  0.41800000000E+01 0. -1.
         -5    1    3    3    0  502 -0.12019368091E+03 -0.15064246625E+02 -0.89310772442E+02  0.15055676315E+03  0.41800000000E+01 0. -1.
        -11    1    1    2    0    0  0.87413580430E+02  0.58440364876E+02 -0.18727581538E+03  0.21477579313E+03  0.00000000000E+00 0. -1.
         11    1    1    2    0    0  0.23726347545E+02 -0.32290490604E+02 -0.73396073031E+02  0.83621760850E+02  0.00000000000E+00 0.  1.
</event>
<event>
 7    1  0.2855090E-009  0.2012091E+03  0.7561462E-02  0.1148723E+00
          1   -1    0    0  501    0  0.00000000000E+00  0.00000000000E+00  0.10632545381E+04  0.10632545381E+04  0.00000000000E+00 0. -1.
         -1   -1    0    0    0  501 -0.00000000000E+00 -0.00000000000E+00 -0.62001539547E+02  0.62001539547E+02  0.00000000000E+00 0.  1.
         25    2    1    2    0    0  0.12336478935E+03  0.12170891372E+03  0.85471858084E+03  0.88103637506E+03  0.12509720546E+03 0.  0.
          5    1    3    3  502    0  0.88327026336E+02  0.14534774767E+03  0.71750005560E+03  0.73739503220E+03  0.41800000000E+01 0. -1.
         -5    1    3    3    0  502  0.35037763016E+02 -0.23638833953E+02  0.13721852524E+03  0.14364134286E+03  0.41800000000E+01 0. -1.
        -11    1    1    2    0    0 -0.69685117881E+02 -0.11667108811E+03  0.12939216778E+03  0.18764458835E+03  0.00000000000E+00 0. -1.
         11    1    1    2    0    0 -0.53679671472E+02 -0.50378256118E+01  0.17142249909E+02  0.56575114212E+02  0.00000000000E+00 0.  1.
</event>
<event>
 7    1  0.2855090E-009  0.7971934E+02  0.7561462E-02  0.1329850E+00
          1   -1    0    0  501    0  0.00000000000E+00  0.00000000000E+00  0.71109541356E+02  0.71109541356E+02  0.00000000000E+00 0. -1.
         -1   -1    0    0    0  501 -0.00000000000E+00 -0.00000000000E+00 -0.16096092293E+03  0.16096092293E+03  0.00000000000E+00 0.  1.
         25    2    1    2    0    0 -0.92801243158E+01 -0.17210726350E+02 -0.41956843719E+02  0.13337967838E+03  0.12508969606E+03 0.  0.
          5    1    3    3  502    0  0.29268088163E+02 -0.18032939191E+02 -0.74884214585E+02  0.82504096108E+02  0.41800000000E+01 0.  1.
         -5    1    3    3    0  502 -0.38548212479E+02  0.82221284145E+00  0.32927370866E+02  0.50875582271E+02  0.41800000000E+01 0.  1.
        -11    1    1    2    0    0  0.16090490439E+02 -0.32280007504E+02 -0.23918282015E+02  0.43278019613E+02  0.00000000000E+00 0.  1.
         11    1    1    2    0    0 -0.68103661236E+01  0.49490733854E+02 -0.23976255838E+02  0.55412766292E+02  0.00000000000E+00 0. -1.
</event>
<event>
 7    1  0.2855090E-009  0.1118556E+03  0.7561462E-02  0.1257172E+00
         -1   -1    0    0    0  501 -0.00000000000E+00  0.00000000000E+00  0.14020200567E+03  0.14020200567E+03  0.00000000000E+00 0.  1.
          1   -1    0    0  501    0  0.00000000000E+00 -0.00000000000E+00 -0.97960015904E+02  0.97960015904E+02  0.00000000000E+00 0. -1.
         25    2    1    2    0    0  0.20890479162E+01 -0.39570164505E+02  0.24352740746E+02  0.13345571198E+03  0.12508880461E+03 0.  0.
          5    1    3    3  502    0 -0.46680754984E+02  0.20848602350E+02  0.21573474417E+02  0.55647500431E+02  0.41800000000E+01 0.  1.
         -5    1    3    3    0  502  0.48769802901E+02 -0.60418766855E+02  0.27792663288E+01  0.77808211550E+02  0.41800000000E+01 0.  1.
        -11    1    1    2    0    0  0.24829699914E+02 -0.18291786768E+02 -0.13407235251E+02  0.33628223534E+02  0.00000000000E+00 0. -1.
         11    1    1    2    0    0 -0.26918747830E+02  0.57861951274E+02  0.31296484271E+02  0.71078086058E+02  0.00000000000E+00 0.  1.
</event>
<event>
 7    1  0.2855090E-009  0.2422926E+03  0.7561462E-02  0.1118275E+00
         -1   -1    0    0    0  501 -0.00000000000E+00  0.00000000000E+00  0.32416388349E+03  0.32416388349E+03  0.00000000000E+00 0.  1.
          1   -1    0    0  501    0  0.00000000000E+00 -0.00000000000E+00 -0.21389962193E+03  0.21389962193E+03  0.00000000000E+00 0. -1.
         25    2    1    2    0    0 -0.18579964172E+03  0.12762683481E+03  0.13391641112E+03  0.29050255399E+03  0.12509201764E+03 0.  0.
          5    1    3    3  502    0 -0.98135657586E+02  0.72623356881E+01  0.14440706516E+02  0.99545744330E+02  0.41800000000E+01 0. -1.
         -5    1    3    3    0  502 -0.87663984134E+02  0.12036449912E+03  0.11947570460E+03  0.19095680966E+03  0.41800000000E+01 0. -1.
        -11    1    1    2    0    0  0.19044038452E+03 -0.11223433072E+03 -0.25941275642E+01  0.22106744343E+03  0.00000000000E+00 0.  1.
         11    1    1    2    0    0 -0.46407427965E+01 -0.15392504092E+02 -0.21058021999E+02  0.26493508005E+02  0.00000000000E+00 0. -1.
</event>
<event>
 7    1  0.3111354E-009  0.1024121E+03  0.7561462E-02  0.1275304E+00
          2   -1    0    0  501    0  0.00000000000E+00  0.00000000000E+00  0.10575232291E+03  0.10575232291E+03  0.00000000000E+00 0. -1.
         -2   -1    0    0    0  501 -0.00000000000E+00 -0.00000000000E+00 -0.15395445900E+03  0.15395445900E+03  0.00000000000E+00 0.  1.
         25    2    1    2    0    0 -0.30124995277E+02 -0.50508824537E+02  0.62186245403E+01  0.13836302729E+03  0.12508796638E+03 0.  0.
          5    1    3    3  502    0 -0.32980589865E+02  0.37419056462E+02  0.47328858415E+01  0.50277009684E+02  0.41800000000E+01 0.  1.
         -5    1    3    3    0  502  0.28555945879E+01 -0.87927880999E+02  0.14857386987E+01  0.88086017602E+02  0.41800000000E+01 0.  1.
        -11    1    1    2    0    0  0.35638511285E+02  0.33859868495E+02 -0.77853438850E+02  0.92074709458E+02  0.00000000000E+00 0.  1.
         11    1    1    2    0    0 -0.55135160081E+01  0.16648956042E+02  0.23432678228E+02  0.29269045167E+02  0.00000000000E+00 0. -1.
</event>
<event>
 7    1  0.2855090E-009  0.7885454E+02  0.7561462E-02  0.1332334E+00
          2   -1    0    0  501    0  0.00000000000E+00  0.00000000000E+00  0.18112644476E+03  0.18112644476E+03  0.00000000000E+00 0. -1.
         -2   -1    0    0    0  501 -0.00000000000E+00 -0.00000000000E+00 -0.77531748833E+02  0.77531748833E+02  0.00000000000E+00 0.  1.
         25    2    1    2    0    0 -0.17403232110E+02  0.45392718373E+01  0.32834462463E+02  0.13057468072E+03  0.12509263705E+03 0.  0.
          5    1    3    3  502    0 -0.62217548929E+01  0.31124502149E+02  0.73716973722E+02  0.80368585173E+02  0.41800000000E+01 0. -1.
         -5    1    3    3    0  502 -0.11181477217E+02 -0.26585230312E+02 -0.40882511259E+02  0.50206095549E+02  0.41800000000E+01 0. -1.
        -11    1    1    2    0    0  0.32436273858E+02  0.38862921242E+02  0.64089867618E+02  0.81669759645E+02  0.00000000000E+00 0. -1.
         11    1    1    2    0    0 -0.15033041748E+02 -0.43402193079E+02  0.66703658499E+01  0.46413753229E+02  0.00000000000E+00 0.  1.
</event>
<event>
 7    1  0.2855090E-009  0.1157656E+03  0.7561462E-02  0.1250251E+00
         -1   -1    0    0    0  501 -0.00000000000E+00  0.00000000000E+00  0.24835139419E+03  0.24835139419E+03  0.00000000000E+00 0.  1.
          1   -1    0    0  501    0  0.00000000000E+00 -0.00000000000E+00 -0.11378450742E+03  0.11378450742E+03  0.00000000000E+00 0. -1.
         25    2    1    2    0    0 -0.93723057259E+02 -0.34574834841E+02 -0.12610176397E+02  0.16055693372E+03  0.12506031245E+03 0.  0.
          5    1    3    3  502    0 -0.87907540031E+02 -0.38907046762E+02  0.42229372872E+02  0.10508228307E+03  0.41800000000E+01 0.  1.
         -5    1    3    3    0  502 -0.58155172287E+01  0.43322119206E+01 -0.54839549268E+02  0.55474650650E+02  0.41800000000E+01 0.  1.
        -11    1    1    2    0    0  0.77385306524E+02 -0.11331535773E+02  0.49880490024E+02  0.92762884031E+02  0.00000000000E+00 0.  1.
         11    1    1    2    0    0  0.16337750736E+02  0.45906370614E+02  0.97296573139E+02  0.10881608386E+03  0.00000000000E+00 0. -1.
</event>
<event>
 7    1  0.3654291E-009  0.1071092E+03  0.7561462E-02  0.1266019E+00
          2   -1    0    0  501    0  0.00000000000E+00  0.00000000000E+00  0.82115036379E+02  0.82115036379E+02  0.00000000000E+00 0. -1.
         -2   -1    0    0    0  501 -0.00000000000E+00 -0.00000000000E+00 -0.25221068092E+03  0.25221068092E+03  0.00000000000E+00 0.  1.
         25    2    1    2    0    0  0.35920233213E+02 -0.76011070936E+02 -0.41125291758E+02  0.15622723485E+03  0.12509081991E+03 0.  0.
          5    1    3    3  502    0  0.58569896117E+02 -0.11634753836E+02 -0.60554680442E+02  0.85147765394E+02  0.41800000000E+01 0.  1.
         -5    1    3    3    0  502 -0.22649662905E+02 -0.64376317100E+02  0.19429388684E+02  0.71079469453E+02  0.41800000000E+01 0.  1.
        -11    1    1    2    0    0 -0.27175101817E+02  0.36426689387E+02 -0.12982592776E+03  0.13755057752E+03  0.00000000000E+00 0.  1.
         11    1    1    2    0    0 -0.87451313956E+01  0.39584381549E+02  0.85557497344E+00  0.40547904931E+02  0.00000000000E+00 0. -1.
</event>
<event>
 7    1  0.2855090E-009  0.1553502E+03  0.7561462E-02  0.1194049E+00
          2   -1    0    0  501    0  0.00000000000E+00  0.00000000000E+00  0.33281738210E+03  0.33281738210E+03  0.00000000000E+00 0. -1.
         -2   -1    0    0    0  501 -0.00000000000E+00 -0.00000000000E+00 -0.84625684276E+02  0.84625684276E+02  0.00000000000E+00 0.  1.
         25    2    1    2    0    0 -0.11089662446E+03 -0.55331442174E+02  0.16844569611E+03  0.24368307545E+03  0.12509140224E+03 0.  0.
          5    1    3    3  502    0 -0.10507348748E+03  0.95495086492E+01  0.74256092618E+02  0.12908551653E+03  0.41800000000E+01 0. -1.
         -5    1    3    3    0  502 -0.58231369742E+01 -0.64880950823E+02  0.94189603494E+02  0.11459755892E+03  0.41800000000E+01 0. -1.
        -11    1    1    2    0    0  0.33358780726E+02  0.52554445792E+02 -0.34733535402E+00  0.62248684049E+02  0.00000000000E+00 0.  1.
         11    1    1    2    0    0  0.77537843730E+02  0.27769963818E+01  0.80093337071E+02  0.11151130688E+03  0.00000000000E+00 0. -1.
</event>
<event>
 7    1  0.2855090E-009  0.1247069E+03  0.7561462E-02  0.1235528E+00
         -2   -1    0    0    0  501 -0.00000000000E+00  0.00000000000E+00  0.24373526571E+02  0.24373526571E+02  0.00000000000E+00 0.  1.
          2   -1    0    0  501    0  0.00000000000E+00 -0.00000000000E+00 -0.71906966992E+03  0.71906966992E+03  0.00000000000E+00 0. -1.
         25    2    1    2    0    0 -0.37890210662E+01 -0.73226420887E+02 -0.34004790705E+03  0.36967112131E+03  0.12509074083E+03 0.  0.
          5    1    3    3  502    0 -0.15783318919E+02  0.32881310928E+02 -0.65985014075E+02  0.75510186379E+02  0.41800000000E+01 0. -1.
         -5    1    3    3    0  502  0.11994297853E+02 -0.10610773182E+03 -0.27406289298E+03  0.29416093493E+03  0.41800000000E+01 0. -1.
        -11    1    1    2    0    0  0.38977292303E+02  0.25645352829E+02 -0.24270263715E+03  0.24714668421E+03  0.00000000000E+00 0.  1.
         11    1    1    2    0    0 -0.35188271237E+02  0.47581068058E+02 -0.11194559914E+03  0.12662539097E+03  0.00000000000E+00 0. -1.
</event>
<event>
 7    1  0.2855090E-009  0.2051218E+03  0.7561462E-02  0.1145488E+00
         -2   -1    0    0    0  501 -0.00000000000E+00  0.00000000000E+00  0.10714076772E+03  0.10714076772E+03  0.00000000000E+00 0.  1.
          2   -1    0    0  501    0  0.00000000000E+00 -0.00000000000E+00 -0.44953647158E+03  0.44953647158E+03  0.00000000000E+00 0. -1.
         25    2    1    2    0    0 -0.13301467378E+03 -0.13438525555E+03 -0.16871788745E+03  0.28260433529E+03  0.12508870626E+03 0.  0.
          5    1    3    3  502    0 -0.12427816265E+03 -0.68532867897E+02 -0.16244431773E+03  0.21574856769E+03  0.41800000000E+01 0.  1.
         -5    1    3    3    0  502 -0.87365111273E+01 -0.65852387648E+02 -0.62735697142E+01  0.66855767609E+02  0.41800000000E+01 0.  1.
        -11    1    1    2    0    0  0.13926948905E+03  0.11278153644E+03 -0.11945912170E+03  0.21537443511E+03  0.00000000000E+00 0.  1.
         11    1    1    2    0    0 -0.62548152755E+01  0.21603719105E+02 -0.54218694719E+02  0.58698468892E+02  0.00000000000E+00 0. -1.
</event>
<event>
 7    1  0.2855090E-009  0.1009552E+03  0.7561462E-02  0.1278300E+00
          2   -1    0    0  501    0  0.00000000000E+00  0.00000000000E+00  0.32096960187E+03  0.32096960187E+03  0.00000000000E+00 0. -1.
         -2   -1    0    0    0  501 -0.00000000000E+00 -0.00000000000E+00 -0.56378750648E+02  0.56378750648E+02  0.00000000000E+00 0.  1.
         25    2    1    2    0    0  0.54852722975E+02  0.33565791935E+02  0.20500022325E+03  0.24861341135E+03  0.12509217868E+03 0.  0.
          5    1    3    3  502    0  0.55658540307E+02  0.70185224169E+02  0.86817824989E+02  0.12481444602E+03  0.41800000000E+01 0. -1.
         -5    1    3    3    0  502 -0.80581733119E+00 -0.36619432234E+02  0.11818239826E+03  0.12379896533E+03  0.41800000000E+01 0. -1.
        -11    1    1    2    0    0 -0.16886724752E+02  0.83320373569E+01  0.68905482633E+02  0.71432134619E+02  0.00000000000E+00 0. -1.
         11    1    1    2    0    0 -0.37965998223E+02 -0.41897829291E+02 -0.93148546595E+01  0.57302806543E+02  0.00000000000E+00 0.  1.
</event>
<event>
 7    1  0.2855090E-009  0.1216079E+03  0.7561462E-02  0.1240468E+00
         -2   -1    0    0    0  501 -0.00000000000E+00  0.00000000000E+00  0.46083850943E+02  0.46083850943E+02  0.00000000000E+00 0.  1.
          2   -1    0    0  501    0  0.00000000000E+00 -0.00000000000E+00 -0.39931451099E+03  0.39931451099E+03  0.00000000000E+00 0. -1.
         25    2    1    2    0    0 -0.22966861248E+02  0.58397661669E+02 -0.27605628819E+03  0.30950282628E+03  0.12508861508E+03 0.  0.
          5    1    3    3  502    0  0.48885746891E+02  0.40024678709E+02 -0.99270651847E+02  0.11774517346E+03  0.41800000000E+01 0. -1.
         -5    1    3    3    0  502 -0.71852608139E+02  0.18372982960E+02 -0.17678563634E+03  0.19175765282E+03  0.41800000000E+01 0. -1.
        -11    1    1    2    0    0  0.49974756625E+02 -0.11166490426E+02 -0.15174863113E+02  0.53408269759E+02  0.00000000000E+00 0.  1.
         11    1    1    2    0    0 -0.27007895377E+02 -0.47231171243E+02 -0.61999508745E+02  0.82487265892E+02  0.00000000000E+00 0. -1.
</event>
<event>
 7    1  0.2855090E-009  0.1581891E+03  0.7561462E-02  0.1190756E+00
         -2   -1    0    0    0  501 -0.00000000000E+00  0.00000000000E+00  0.30267626281E+02  0.30267626281E+02  0.00000000000E+00 0.  1.
          2   -1    0    0  501    0  0.00000000000E+00 -0.00000000000E+00 -0.10436256452E+04  0.10436256452E+04  0.00000000000E+00 0. -1.
         25    2    1    2    0    0  0.13372614021E+03 -0.20123450821E+01 -0.67679605039E+03  0.70113328945E+03  0.12509302795E+03 0.  0.
          5    1    3    3  502    0 -0.17037965816E+02  0.23338269238E+02 -0.84121093647E+02  0.89043797575E+02  0.41800000000E+01 0. -1.
         -5    1    3    3    0  502  0.15076410603E+03 -0.25350614320E+02 -0.59267495674E+03  0.61208949187E+03  0.41800000000E+01 0. -1.
        -11    1    1    2    0    0 -0.89018905148E+02  0.68159740579E+01 -0.10947548107E+03  0.14126465917E+03  0.00000000000E+00 0.  1.
         11    1    1    2    0    0 -0.44707235064E+02 -0.48036289758E+01 -0.22708648746E+03  0.23149532286E+03  0.00000000000E+00 0. -1.
</event>
<event>
 7    1  0.2855090E-009  0.2315326E+03  0.7561462E-02  0.1125566E+00
         -2   -1    0    0    0  501 -0.00000000000E+00  0.00000000000E+00  0.60292822740E+02  0.60292822740E+02  0.00000000000E+00 0.  1.
          2   -1    0    0  501    0  0.00000000000E+00 -0.00000000000E+00 -0.11740401834E+04  0.11740401834E+04  0.00000000000E+00 0. -1.
         25    2    1    2    0    0  0.22094817799E+03 -0.57337820721E+02 -0.75848067937E+03  0.80190125077E+03  0.12508777707E+03 0.  0.
          5    1    3    3  502    0  0.14157660085E+03 -0.62545154936E+02 -0.31126965222E+03  0.34765226751E+03  0.41800000000E+01 0. -1.
         -5    1    3    3    0  502  0.79371577139E+02  0.52073342147E+01 -0.44721102716E+03  0.45424898327E+03  0.41800000000E+01 0. -1.
        -11    1    1    2    0    0 -0.13964732724E+03  0.42178022442E+02 -0.14152398598E+03  0.20324714067E+03  0.00000000000E+00 0.  1.
         11    1    1    2    0    0 -0.81300850746E+02  0.15159798279E+02 -0.21374269526E+03  0.22918461465E+03  0.00000000000E+00 0. -1.
</event>
<event>
 7    1  0.2855090E-009  0.9954512E+02  0.7561462E-02  0.1281255E+00
          2   -1    0    0  501    0  0.00000000000E+00  0.00000000000E+00  0.13164710582E+04  0.13164710582E+04  0.00000000000E+00 0. -1.
         -2   -1    0    0    0  501 -0.00000000000E+00 -0.00000000000E+00 -0.14382290786E+02  0.14382290786E+02  0.00000000000E+00 0.  1.
         25    2    1    2    0    0  0.24019489315E+02  0.74494216849E+02  0.86193084782E+03  0.87447018934E+03  0.12508797470E+03 0.  0.
          5    1    3    3  502    0  0.23386235587E+01  0.42817828083E+02  0.80213362790E+03  0.80328990096E+03  0.41800000000E+01 0. -1.
         -5    1    3    3    0  502  0.21680865756E+02  0.31676388766E+02  0.59797219913E+02  0.71180288385E+02  0.41800000000E+01 0. -1.
        -11    1    1    2    0    0  0.25763944747E+02  0.23079242125E+01  0.14737572701E+03  0.14962858108E+03  0.00000000000E+00 0.  1.
         11    1    1    2    0    0 -0.49783434061E+02 -0.76802141062E+02  0.29278219262E+03  0.30675457861E+03  0.00000000000E+00 0. -1.
</event>
<event>
 7    1  0.2855090E-009  0.1103018E+03  0.7561462E-02  0.1260012E+00
         -2   -1    0    0    0  501 -0.00000000000E+00  0.00000000000E+00  0.16292350176E+02  0.16292350176E+02  0.00000000000E+00 0.  1.
          2   -1    0    0  501    0  0.00000000000E+00 -0.00000000000E+00 -0.12057816856E+04  0.12057816856E+04  0.00000000000E+00 0. -1.
         25    2    1    2    0    0  0.11952487099E+02 -0.22439719422E+02 -0.10027619153E+04  0.10108539733E+04  0.12509154090E+03 0.  0.
          5    1    3    3  502    0  0.65785107490E+02 -0.14137089505E+02 -0.69676012371E+03  0.70001405704E+03  0.41800000000E+01 0. -1.
         -5    1    3    3    0  502 -0.53832620390E+02 -0.83026299164E+01 -0.30600179155E+03  0.31083991621E+03  0.41800000000E+01 0. -1.
        -11    1    1    2    0    0 -0.35760089530E+01  0.59983924428E+02 -0.11978820094E+03  0.13401519359E+03  0.00000000000E+00 0. -1.
         11    1    1    2    0    0 -0.83764781464E+01 -0.37544205007E+02 -0.66939219273E+02  0.77204868970E+02  0.00000000000E+00 0.  1.
</event>
<event>
 7    1  0.2855090E-009  0.1300955E+03  0.7561462E-02  0.1227314E+00
         -2   -1    0    0    0  501 -0.00000000000E+00  0.00000000000E+00  0.34715192036E+03  0.34715192036E+03  0.00000000000E+00 0.  1.
          2   -1    0    0  501    0  0.00000000000E+00 -0.00000000000E+00 -0.80104384076E+02  0.80104384076E+02  0.00000000000E+00 0. -1.
         25    2    1    2    0    0  0.12456707953E+03 -0.17641709512E+02  0.14924652954E+03  0.23184127694E+03  0.12509062274E+03 0.  0.
          5    1    3    3  502    0  0.53851515946E+02 -0.22553823936E+02 -0.82170878644E+01  0.59107137275E+02  0.41800000000E+01 0.  1.
         -5    1    3    3    0  502  0.70715563586E+02  0.49121144242E+01  0.15746361740E+03  0.17273413967E+03  0.41800000000E+01 0.  1.
        -11    1    1    2    0    0 -0.10372014529E+02  0.12630831283E+02  0.69376745488E+02  0.71275868278E+02  0.00000000000E+00 0.  1.
         11    1    1    2    0    0 -0.11419506500E+03  0.50108782294E+01  0.48424261254E+02  0.12413915921E+03  0.00000000000E+00 0. -1.
</event>
<event>
 7    1  0.2855090E-009  0.1051086E+03  0.7561462E-02  0.1269906E+00
         -2   -1    0    0    0  501 -0.00000000000E+00  0.00000000000E+00  0.32160732539E+02  0.32160732539E+02  0.00000000000E+00 0.  1.
          2   -1    0    0  501    0  0.00000000000E+00 -0.00000000000E+00 -0.58841355160E+03  0.58841355160E+03  0.00000000000E+00 0. -1.
         25    2    1    2    0    0 -0.57315985994E+02  0.33704171732E+02 -0.18486812928E+03  0.23291320281E+03  0.12510492147E+03 0.  0.
          5    1    3    3  502    0  0.25075831062E+02  0.12893566450E+01 -0.12103542149E+03  0.12368308453E+03  0.41800000000E+01 0. -1.
         -5    1    3    3    0  502 -0.82391817057E+02  0.32414815087E+02 -0.63832707795E+02  0.10923011828E+03  0.41800000000E+01 0. -1.
        -11    1    1    2    0    0  0.41586637040E+01  0.20079206282E+02 -0.21550126012E+02  0.29746881178E+02  0.00000000000E+00 0.  1.
         11    1    1    2    0    0  0.53157322290E+02 -0.53783378014E+02 -0.34983456377E+03  0.35791420015E+03  0.00000000000E+00 0. -1.
</event>
<event>
 7    1  0.2855090E-009  0.1902268E+03  0.7561462E-02  0.1158257E+00
         -2   -1    0    0    0  501 -0.00000000000E+00  0.00000000000E+00  0.22645060970E+03  0.22645060970E+03  0.00000000000E+00 0. -1.
          2   -1    0    0  501    0  0.00000000000E+00 -0.00000000000E+00 -0.21608782414E+03  0.21608782414E+03  0.00000000000E+00 0.  1.
         25    2    1    2    0    0  0.17428454272E+03  0.52977153933E+02 -0.56015814284E+02  0.22796287753E+03  0.12509045291E+03 0.  0.
          5    1    3    3  502    0  0.90593348570E+02  0.65190000598E+02 -0.82926987362E+02  0.13910876542E+03  0.41800000000E+01 0.  1.
         -5    1    3    3    0  502  0.83691194154E+02 -0.12212846665E+02  0.26911173077E+02  0.88854112111E+02  0.41800000000E+01 0.  1.
        -11    1    1    2    0    0 -0.94775004729E+02 -0.14942925697E+02 -0.11917423872E+02  0.96683077845E+02  0.00000000000E+00 0.  1.
         11    1    1    2    0    0 -0.79509537996E+02 -0.38034228235E+02  0.78296023709E+02  0.11789247846E+03  0.00000000000E+00 0. -1.
</event>
<event>
 7    1  0.2855090E-009  0.1115235E+03  0.7561462E-02  0.1257774E+00
         -2   -1    0    0    0  501 -0.00000000000E+00  0.00000000000E+00  0.45712564144E+02  0.45712564144E+02  0.00000000000E+00 0.  1.
          2   -1    0    0  501    0  0.00000000000E+00 -0.00000000000E+00 -0.45281406481E+03  0.45281406481E+03  0.00000000000E+00 0. -1.
         25    2    1    2    0    0  0.46992238669E+02  0.62315328226E+02 -0.12911749241E+03  0.19598647317E+03  0.12509156722E+03 0.  0.
          5    1    3    3  502    0  0.72434684038E+02  0.41096968726E+02 -0.13817658084E+03  0.16138768288E+03  0.41800000000E+01 0.  1.
         -5    1    3    3    0  502 -0.25442445369E+02  0.21218359501E+02  0.90590884353E+01  0.34598790290E+02  0.41800000000E+01 0.  1.
        -11    1    1    2    0    0 -0.46056570348E+02 -0.21605775983E+01 -0.55952097928E+02  0.72501813979E+02  0.00000000000E+00 0.  1.
         11    1    1    2    0    0 -0.93566832086E+00 -0.60154750628E+02 -0.22203191033E+03  0.23003834181E+03  0.00000000000E+00 0. -1.
</event>
<event>
 7    1  0.2855090E-009  0.1076822E+03  0.7561462E-02  0.1264923E+00
         -2   -1    0    0    0  501 -0.00000000000E+00  0.00000000000E+00  0.46194533836E+02  0.46194533836E+02  0.00000000000E+00 0.  1.
          2   -1    0    0  501    0  0.00000000000E+00 -0.00000000000E+00 -0.28530646242E+03  0.28530646242E+03  0.00000000000E+00 0. -1.
         25    2    1    2    0    0  0.17156839981E+02  0.35003848341E+02 -0.13490410294E+03  0.18805947880E+03  0.12509046334E+03 0.  0.
          5    1    3    3  502    0  0.44243001554E+02  0.65367574117E+02 -0.49226214469E+02  0.93118502584E+02  0.41800000000E+01 0.  1.
         -5    1    3    3    0  502 -0.27086161573E+02 -0.30363725777E+02 -0.85677888470E+02  0.94940976214E+02  0.41800000000E+01 0.  1.
        -11    1    1    2    0    0  0.35319864938E+02 -0.21052353350E+02 -0.63192546230E+02  0.75392256498E+02  0.00000000000E+00 0. -1.
         11    1    1    2    0    0 -0.52476704919E+02 -0.13951494991E+02 -0.41015279410E+02  0.68049260957E+02  0.00000000000E+00 0.  1.
</event>
<event>
 7    1  0.2855090E-009  0.8202016E+02  0.7561462E-02  0.1323414E+00
          2   -1    0    0  501    0  0.00000000000E+00  0.00000000000E+00  0.28661412193E+03  0.28661412193E+03  0.00000000000E+00 0.  1.
         -2   -1    0    0    0  501 -0.00000000000E+00 -0.00000000000E+00 -0.84605173184E+02  0.84605173184E+02  0.00000000000E+00 0. -1.
         25    2    1    2    0    0  0.24944277666E+02  0.51547993181E+02  0.22221255100E+03  0.26135198022E+03  0.12508807758E+03 0.  0.
          5    1    3    3  502    0  0.16080143045E+01 -0.19643107485E+02 -0.60798495408E+01  0.21044580112E+02  0.41800000000E+01 0.  1.
         -5    1    3    3    0  502  0.23336263361E+02  0.71191100665E+02  0.22829240054E+03  0.24030740011E+03  0.41800000000E+01 0.  1.
        -11    1    1    2    0    0 -0.23045229230E+02 -0.67407882412E+01  0.32664272130E+02  0.40539801309E+02  0.00000000000E+00 0.  1.
         11    1    1    2    0    0 -0.18990484354E+01 -0.44807204939E+02 -0.52867874379E+02  0.69327513591E+02  0.00000000000E+00 0. -1.
</event>
<event>
 7    1  0.3546873E-009  0.6917951E+02  0.7561462E-02  0.1362906E+00
          2   -1    0    0  501    0  0.00000000000E+00  0.00000000000E+00  0.49076677745E+03  0.49076677745E+03  0.00000000000E+00 0. -1.
         -2   -1    0    0    0  501 -0.00000000000E+00 -0.00000000000E+00 -0.46300248960E+02  0.46300248960E+02  0.00000000000E+00 0.  1.
         25    2    1    2    0    0 -0.27366697183E+02  0.27074484737E+01  0.42111544629E+03  0.44016153907E+03  0.12509074698E+03 0.  0.
          5    1    3    3  502    0  0.32034794049E+02  0.14075347943E+02  0.36268665257E+02  0.50569080761E+02  0.41800000000E+01 0. -1.
         -5    1    3    3    0  502 -0.59401491232E+02 -0.11367899469E+02  0.38484678104E+03  0.38959245831E+03  0.41800000000E+01 0. -1.
        -11    1    1    2    0    0  0.19451421942E+02  0.14028568484E+02 -0.31169102834E+02  0.39327744923E+02  0.00000000000E+00 0.  1.
         11    1    1    2    0    0  0.79152752414E+01 -0.16736016958E+02  0.54520185030E+02  0.57577742414E+02  0.00000000000E+00 0. -1.
</event>
<event>
 7    1  0.2855090E-009  0.7143335E+02  0.7561462E-02  0.1355286E+00
         -2   -1    0    0    0  501 -0.00000000000E+00  0.00000000000E+00  0.24524975073E+02  0.24524975073E+02  0.00000000000E+00 0. -1.
          2   -1    0    0  501    0  0.00000000000E+00 -0.00000000000E+00 -0.63396707894E+03  0.63396707894E+03  0.00000000000E+00 0.  1.
         25    2    1    2    0    0 -0.23554485597E+02 -0.58521548500E+01 -0.44512664968E+03  0.46300090968E+03  0.12507216558E+03 0.  0.
          5    1    3    3  502    0  0.24671806922E+02  0.20700145908E+02 -0.29976837536E+02  0.44195896711E+02  0.41800000000E+01 0. -1.
         -5    1    3    3    0  502 -0.48226292519E+02 -0.26552300758E+02 -0.41514981215E+03  0.41880501297E+03  0.41800000000E+01 0. -1.
        -11    1    1    2    0    0  0.36889825227E+02 -0.59565706317E+01 -0.17205790857E+03  0.17606891787E+03  0.00000000000E+00 0.  1.
         11    1    1    2    0    0 -0.13335339631E+02  0.11808725482E+02  0.77424543880E+01  0.19422226456E+02  0.00000000000E+00 0. -1.
</event>
<event>
 7    1  0.2855090E-009  0.1106551E+03  0.7561462E-02  0.1259362E+00
          3   -1    0    0  501    0  0.00000000000E+00  0.00000000000E+00  0.31757211685E+02  0.31757211685E+02  0.00000000000E+00 0. -1.
         -3   -1    0    0    0  501 -0.00000000000E+00 -0.00000000000E+00 -0.39689698452E+03  0.39689698452E+03  0.00000000000E+00 0.  1.
         25    2    1    2    0    0 -0.26124656453E+02  0.11826972731E+02 -0.21405067479E+03  0.24957349598E+03  0.12508742366E+03 0.  0.
          5    1    3    3  502    0 -0.40570805252E+02 -0.49993745237E+02 -0.11453912645E+03  0.13146120603E+03  0.41800000000E+01 0.  1.
         -5    1    3    3    0  502  0.14446148799E+02  0.61820717967E+02 -0.99511548336E+02  0.11811228995E+03  0.41800000000E+01 0.  1.
        -11    1    1    2    0    0 -0.52927275440E+01  0.35756920117E+02 -0.38095145794E+02  0.52514859175E+02  0.00000000000E+00 0.  1.
         11    1    1    2    0    0  0.31417383997E+02 -0.47583892847E+02 -0.11299395225E+03  0.12656584105E+03  0.00000000000E+00 0. -1.
</event>
<event>
 6    1  0.2855090E-009  0.1553435E+03  0.7561462E-02  0.1194057E+00
         -4   -1    0    0    0  501 -0.00000000000E+00  0.00000000000E+00  0.52570792085E+03  0.52570792085E+03  0.00000000000E+00 0. -1.
          4   -1    0    0  501    0  0.00000000000E+00 -0.00000000000E+00 -0.73804693648E+02  0.73804693648E+02  0.00000000000E+00 0.  1.
          5    1    1    2  502    0 -0.11850829289E+02  0.88496470622E+02 -0.29043545049E+00  0.89384697908E+02  0.41800000000E+01 0.  1.
         -5    1    1    2    0  502  0.12273841446E+02  0.60395040183E+02  0.13162362785E+03  0.14539759238E+03  0.41800000000E+01 0.  1.
        -11    1    1    2    0    0  0.28428940129E+02 -0.74916505294E+02  0.23362317253E+03  0.24698274058E+03  0.00000000000E+00 0. -1.
         11    1    1    2    0    0 -0.28851952286E+02 -0.73975005510E+02  0.86946862280E+02  0.11774758363E+03  0.00000000000E+00 0.  1.
</event>
<event>
 7    1  0.2855090E-009  0.4287706E+03  0.7561462E-02  0.1034249E+00
         -1   -1    0    0    0  501 -0.00000000000E+00  0.00000000000E+00  0.76695947669E+03  0.76695947669E+03  0.00000000000E+00 0. -1.
          1   -1    0    0  501    0  0.00000000000E+00 -0.00000000000E+00 -0.25733880692E+03  0.25733880692E+03  0.00000000000E+00 0.  1.
         25    2    1    2    0    0 -0.23901916169E+03  0.35417813398E+03  0.31648747394E+03  0.54624473590E+03  0.12508669031E+03 0.  0.
          5    1    3    3  502    0 -0.76536421194E+02  0.10515140589E+03  0.17186004135E+03  0.21556434803E+03  0.41800000000E+01 0.  1.
         -5    1    3    3    0  502 -0.16248274049E+03  0.24902672809E+03  0.14462743259E+03  0.33068038787E+03  0.41800000000E+01 0.  1.
        -11    1    1    2    0    0  0.66639483862E+02 -0.63236542377E+02  0.78924454947E+02  0.12111461799E+03  0.00000000000E+00 0.  1.
         11    1    1    2    0    0  0.17237967783E+03 -0.29094159161E+03  0.11420874089E+03  0.35693892972E+03  0.00000000000E+00 0. -1.
</event>
<event>
 7    1  0.2855090E-009  0.1484745E+03  0.7561462E-02  0.1202360E+00
         -1   -1    0    0    0  501 -0.00000000000E+00  0.00000000000E+00  0.11655735208E+03  0.11655735208E+03  0.00000000000E+00 0.  1.
          1   -1    0    0  501    0  0.00000000000E+00 -0.00000000000E+00 -0.21875266881E+03  0.21875266881E+03  0.00000000000E+00 0. -1.
         25    2    1    2    0    0  0.69158404772E+02 -0.89913082360E+02 -0.81818872366E+02  0.18764099468E+03  0.12509023814E+03 0.  0.
          5    1    3    3  502    0 -0.14417008745E+02  0.17713992541E+02 -0.37834740669E+02  0.44391166625E+02  0.41800000000E+01 0. -1.
         -5    1    3    3    0  502  0.83575413517E+02 -0.10762707490E+03 -0.43984131698E+02  0.14324982805E+03  0.41800000000E+01 0. -1.
        -11    1    1    2    0    0  0.17299761448E+02  0.17717168290E+02 -0.24663778404E+02  0.34949703340E+02  0.00000000000E+00 0. -1.
         11    1    1    2    0    0 -0.86458166221E+02  0.72195914070E+02  0.42873340459E+01  0.11271932287E+03  0.00000000000E+00 0.  1.
</event>
<event>
 7    1  0.2855090E-009  0.1092650E+03  0.7561462E-02  0.1261937E+00
         -1   -1    0    0    0  501 -0.00000000000E+00  0.00000000000E+00  0.45469507538E+02  0.45469507538E+02  0.00000000000E+00 0.  1.
          1   -1    0    0  501    0  0.00000000000E+00 -0.00000000000E+00 -0.31006453069E+03  0.31006453069E+03  0.00000000000E+00 0. -1.
         25    2    1    2    0    0 -0.13714988504E+02 -0.45640013263E+02 -0.15651281295E+03  0.20594842581E+03  0.12508949498E+03 0.  0.
          5    1    3    3  502    0  0.37308656662E+02 -0.58257859258E+02 -0.45099014341E+02  0.82688013169E+02  0.41800000000E+01 0. -1.
         -5    1    3    3    0  502 -0.51023645166E+02  0.12617845995E+02 -0.11141379861E+03  0.12326041264E+03  0.41800000000E+01 0. -1.
        -11    1    1    2    0    0 -0.33026570864E+02  0.35844634445E+02 -0.27630595854E+02  0.56027154388E+02  0.00000000000E+00 0.  1.
         11    1    1    2    0    0  0.46741559367E+02  0.97953788178E+01 -0.80451614351E+02  0.93558458035E+02  0.00000000000E+00 0. -1.
</event>
<event>
 7    1  0.2855090E-009  0.7835209E+02  0.7561462E-02  0.1333794E+00
          3   -1    0    0  501    0  0.00000000000E+00  0.00000000000E+00  0.21486164847E+03  0.21486164847E+03  0.00000000000E+00 0. -1.
         -3   -1    0    0    0  501 -0.00000000000E+00 -0.00000000000E+00 -0.58219532891E+02  0.58219532891E+02  0.00000000000E+00 0.  1.
         25    2    1    2    0    0 -0.24907627749E+02 -0.50441226287E+00  0.15540299117E+03  0.20104122021E+03  0.12508732234E+03 0.  0.
          5    1    3    3  502    0 -0.10513851097E+02  0.52457013039E+02  0.12956172800E+03  0.14023549138E+03  0.41800000000E+01 0.  1.
         -5    1    3    3    0  502 -0.14393776652E+02 -0.52961425302E+02  0.25841263169E+02  0.60805728830E+02  0.41800000000E+01 0.  1.
        -11    1    1    2    0    0  0.33795614119E+02  0.97505718210E+01 -0.24783602130E+02  0.43028410604E+02  0.00000000000E+00 0.  1.
         11    1    1    2    0    0 -0.88879863702E+01 -0.92461595581E+01  0.26022726543E+02  0.29011550545E+02  0.00000000000E+00 0. -1.
</event>
<event>
 7    1  0.2855090E-009  0.8414773E+02  0.7561462E-02  0.1317676E+00
          1   -1    0    0  501    0  0.00000000000E+00  0.00000000000E+00  0.57277712773E+03  0.57277712773E+03  0.00000000000E+00 0. -1.
         -1   -1    0    0    0  501 -0.00000000000E+00 -0.00000000000E+00 -0.41251846221E+02  0.41251846221E+02  0.00000000000E+00 0.  1.
         25    2    1    2    0    0 -0.19428123337E+02 -0.70498006324E+01  0.50014480869E+03  0.51595993811E+03  0.12507068564E+03 0.  0.
          5    1    3    3  502    0  0.27448970184E+02  0.60684719194E+00  0.43142534209E+03  0.43231829990E+03  0.41800000000E+01 0. -1.
         -5    1    3    3    0  502 -0.46877093521E+02 -0.76566478243E+01  0.68719466599E+02  0.83641638211E+02  0.41800000000E+01 0. -1.
        -11    1    1    2    0    0 -0.22482437420E+02  0.35618216004E+02  0.12326420458E+02  0.43886876683E+02  0.00000000000E+00 0.  1.
         11    1    1    2    0    0  0.41910560757E+02 -0.28568415372E+02  0.19054052358E+02  0.54182159159E+02  0.00000000000E+00 0. -1.
</event>
<event>
 7    1  0.2855090E-009  0.1234299E+03  0.7561462E-02  0.1237544E+00
          2   -1    0    0  501    0  0.00000000000E+00  0.00000000000E+00  0.41837817753E+03  0.41837817753E+03  0.00000000000E+00 0. -1.
         -2   -1    0    0    0  501 -0.00000000000E+00 -0.00000000000E+00 -0.49069448815E+02  0.49069448815E+02  0.00000000000E+00 0.  1.
         25    2    1    2    0    0  0.67179463638E+02  0.48656964341E+02  0.27236493838E+03  0.31098334830E+03  0.12508957890E+03 0.  0.
          5    1    3    3  502    0  0.12713535700E+02 -0.36349884897E+02  0.32001800259E+02  0.50244758351E+02  0.41800000000E+01 0. -1.
         -5    1    3    3    0  502  0.54465927938E+02  0.85006849238E+02  0.24036313812E+03  0.26073858995E+03  0.41800000000E+01 0. -1.
        -11    1    1    2    0    0 -0.73583146963E+02 -0.17989678867E+02  0.28041406441E+02  0.80773934768E+02  0.00000000000E+00 0.  1.
         11    1    1    2    0    0  0.64036833249E+01 -0.30667285474E+02  0.68902383895E+02  0.75690343274E+02  0.00000000000E+00 0. -1.
</event>
<event>
 7    1  0.2855090E-009  0.9487601E+02  0.7561462E-02  0.1291456E+00
          1   -1    0    0  501    0  0.00000000000E+00  0.00000000000E+00  0.35635514939E+02  0.35635514939E+02  0.00000000000E+00 0. -1.
         -1   -1    0    0    0  501 -0.00000000000E+00 -0.00000000000E+00 -0.43750636050E+03  0.43750636050E+03  0.00000000000E+00 0.  1.
         25    2    1    2    0    0  0.36215962457E+02 -0.44329343555E+02 -0.24862508422E+03  0.28414836558E+03  0.12509666072E+03 0.  0.
          5    1    3    3  502    0  0.44072890358E+02 -0.52615875093E+02 -0.49679399078E+02  0.84831392003E+02  0.41800000000E+01 0. -1.
         -5    1    3    3    0  502 -0.78569279010E+01  0.82865315385E+01 -0.19894568514E+03  0.19931697358E+03  0.41800000000E+01 0. -1.
        -11    1    1    2    0    0  0.29617932114E+02  0.28299161018E+00 -0.27731204956E+02  0.40574890206E+02  0.00000000000E+00 0. -1.
         11    1    1    2    0    0 -0.65833894571E+02  0.44046351945E+02 -0.12551455639E+03  0.14841861965E+03  0.00000000000E+00 0.  1.
</event>
<event>
 7    1  0.2855090E-009  0.1575355E+03  0.7561462E-02  0.1191508E+00
         -2   -1    0    0    0  501 -0.00000000000E+00  0.00000000000E+00  0.10548005437E+03  0.10548005437E+03  0.00000000000E+00 0.  1.
          2   -1    0    0  501    0  0.00000000000E+00 -0.00000000000E+00 -0.28324810412E+03  0.28324810412E+03  0.00000000000E+00 0. -1.
         25    2    1    2    0    0 -0.16072614239E+02  0.11870502788E+03 -0.16328295261E+03  0.23802987934E+03  0.12509072018E+03 0.  0.
          5    1    3    3  502    0 -0.24664942364E+02 -0.20611161963E+02 -0.20727174494E+02  0.38474245175E+02  0.41800000000E+01 0.  1.
         -5    1    3    3    0  502  0.85923281244E+01  0.13931618984E+03 -0.14255577811E+03  0.19955563417E+03  0.41800000000E+01 0.  1.
        -11    1    1    2    0    0  0.40295900290E+02 -0.27846119963E+02  0.16510361727E+02  0.51689051273E+02  0.00000000000E+00 0.  1.
         11    1    1    2    0    0 -0.24223286050E+02 -0.90858907913E+02 -0.30995458865E+02  0.99009227875E+02  0.00000000000E+00 0. -1.
</event>
<event>
 7    1  0.2855090E-009  0.1234043E+03  0.7561462E-02  0.1237584E+00
          1   -1    0    0  501    0  0.00000000000E+00  0.00000000000E+00  0.86130371130E+03  0.86130371130E+03  0.00000000000E+00 0. -1.
         -1   -1    0    0    0  501 -0.00000000000E+00 -0.00000000000E+00 -0.21850956636E+02  0.21850956636E+02  0.00000000000E+00 0.  1.
         25    2    1    2    0    0  0.20773419547E+02 -0.80892729281E+02  0.43038183889E+03  0.45591130285E+03  0.12510563620E+03 0.  0.
          5    1    3    3  502    0 -0.17581179580E+02 -0.91303676013E+02  0.38192241937E+03  0.39310007116E+03  0.41800000000E+01 0. -1.
         -5    1    3    3    0  502  0.38354599127E+02  0.10410946732E+02  0.48459419520E+02  0.62811231689E+02  0.41800000000E+01 0. -1.
        -11    1    1    2    0    0  0.19354976193E+02  0.69373677129E+02  0.17114472603E+03  0.18568209238E+03  0.00000000000E+00 0.  1.
         11    1    1    2    0    0 -0.40128395740E+02  0.11519052152E+02  0.23792618974E+03  0.24156127271E+03  0.00000000000E+00 0. -1.
</event>
<event>
 7    1  0.3065802E-009  0.1780715E+03  0.7561462E-02  0.1169683E+00
          1   -1    0    0  501    0  0.00000000000E+00  0.00000000000E+00  0.15744396176E+03  0.15744396176E+03  0.00000000000E+00 0. -1.
         -1   -1    0    0    0  501 -0.00000000000E+00 -0.00000000000E+00 -0.27753417793E+03  0.27753417793E+03  0.00000000000E+00 0.  1.
         25    2    1    2    0    0  0.75345225215E+02  0.15490381976E+03 -0.15044772537E+02  0.21341323991E+03  0.12508704749E+03 0.  0.
          5    1    3    3  502    0  0.60175376552E+02  0.12668974669E+03 -0.64428389740E+02  0.15440161160E+03  0.41800000000E+01 0.  1.
         -5    1    3    3    0  502  0.15169848662E+02  0.28214073063E+02  0.49383617203E+02  0.59011628306E+02  0.41800000000E+01 0.  1.
        -11    1    1    2    0    0 -0.19953691668E+02 -0.11116714151E+03 -0.26581518276E+02  0.11602956639E+03  0.00000000000E+00 0. -1.
         11    1    1    2    0    0 -0.55391533547E+02 -0.43736678247E+02 -0.78463925358E+02  0.10553533340E+03  0.00000000000E+00 0.  1.
</event>
<event>
 6    1  0.2855090E-009  0.1343628E+03  0.7561462E-02  0.1221122E+00
         -1   -1    0    0    0  501 -0.00000000000E+00  0.00000000000E+00  0.26654088240E+02  0.26654088240E+02  0.00000000000E+00 0.  1.
          1   -1    0    0  501    0  0.00000000000E+00 -0.00000000000E+00 -0.83271122077E+03  0.83271122077E+03  0.00000000000E+00 0. -1.
          5    1    1    2  502    0 -0.49989039419E+02  0.94901066032E+02 -0.42653122676E+03  0.43983119057E+03  0.41800000000E+01 0.  1.
         -5    1    1    2    0  502 -0.15902126943E+02 -0.18207628136E+02 -0.12121893512E+02  0.27364357583E+02  0.41800000000E+01 0.  1.
        -11    1    1    2    0    0  0.85782559653E+02 -0.39005364789E+02 -0.26480117347E+03  0.28106890168E+03  0.00000000000E+00 0.  1.
         11    1    1    2    0    0 -0.19891393292E+02 -0.37688073107E+02 -0.10260283878E+03  0.11110085917E+03  0.00000000000E+00 0. -1.
</event>
<event>
 7    1  0.2855090E-009  0.1395583E+03  0.7561462E-02  0.1213925E+00
         -1   -1    0    0    0  501 -0.00000000000E+00  0.00000000000E+00  0.15835281794E+03  0.15835281794E+03  0.00000000000E+00 0.  1.
          1   -1    0    0  501    0  0.00000000000E+00 -0.00000000000E+00 -0.15727358259E+03  0.15727358259E+03  0.00000000000E+00 0. -1.
         25    2    1    2    0    0  0.10375046663E+03  0.38726559357E+02  0.28963526112E+02  0.16955962374E+03  0.12509066484E+03 0.  0.
          5    1    3    3  502    0  0.13147305137E+03  0.39504835982E+02  0.14797800404E+02  0.13813849065E+03  0.41800000000E+01 0. -1.
         -5    1    3    3    0  502 -0.27722584742E+02 -0.77827662435E+00  0.14165725709E+02  0.31421133082E+02  0.41800000000E+01 0. -1.
        -11    1    1    2    0    0 -0.38918202385E+02 -0.14579951282E+01  0.31886784955E+02  0.50334076742E+02  0.00000000000E+00 0.  1.
         11    1    1    2    0    0 -0.64832264246E+02 -0.37268564229E+02 -0.59771075720E+02  0.95732700054E+02  0.00000000000E+00 0. -1.
</event>
<event>
 7    1  0.2855090E-009  0.1099891E+03  0.7561462E-02  0.1260590E+00
         -1   -1    0    0    0  501 -0.00000000000E+00  0.00000000000E+00  0.92247548479E+02  0.92247548479E+02  0.00000000000E+00 0.  1.
          1   -1    0    0  501    0  0.00000000000E+00 -0.00000000000E+00 -0.34512459674E+03  0.34512459674E+03  0.00000000000E+00 0. -1.
         25    2    1    2    0    0  0.34820852672E+01  0.71339778338E+02  0.14653401420E+02  0.14478682833E+03  0.12508802738E+03 0.  0.
          5    1    3    3  502    0  0.22389122019E+02 -0.13808499014E+02 -0.35272877151E+02  0.44199498779E+02  0.41800000000E+01 0.  1.
         -5    1    3    3    0  502 -0.18907036752E+02  0.85148277352E+02  0.49926278571E+02  0.10058732955E+03  0.41800000000E+01 0.  1.
        -11    1    1    2    0    0  0.14488718186E+01 -0.88323826370E+02 -0.25755074042E+03  0.27227849975E+03  0.00000000000E+00 0. -1.
         11    1    1    2    0    0 -0.49309570858E+01  0.16984048032E+02 -0.99797092610E+01  0.20306817138E+02  0.00000000000E+00 0.  1.
</event>
<event>
 7    1  0.2855090E-009  0.1277865E+03  0.7561462E-02  0.1230778E+00
         -2   -1    0    0    0  501 -0.00000000000E+00  0.00000000000E+00  0.94289243587E+02  0.94289243587E+02  0.00000000000E+00 0.  1.
          2   -1    0    0  501    0  0.00000000000E+00 -0.00000000000E+00 -0.23957714470E+03  0.23957714470E+03  0.00000000000E+00 0. -1.
         25    2    1    2    0    0 -0.37288146184E+02 -0.78095834671E+02 -0.14224683877E+03  0.20826142565E+03  0.12509713440E+03 0.  0.
          5    1    3    3  502    0 -0.81377706636E+00  0.33487771332E+02 -0.41594836899E+02  0.53569542826E+02  0.41800000000E+01 0. -1.
         -5    1    3    3    0  502 -0.36474369117E+02 -0.11158360600E+03 -0.10065200187E+03  0.15469188282E+03  0.41800000000E+01 0. -1.
        -11    1    1    2    0    0 -0.15226586300E+02  0.27447748300E+02  0.31862850862E+02  0.44726603740E+02  0.00000000000E+00 0.  1.
         11    1    1    2    0    0  0.52514732484E+02  0.50648086371E+02 -0.34903913209E+02  0.80878358899E+02  0.00000000000E+00 0. -1.
</event>
<event>
 7    1  0.2855090E-009  0.1464307E+03  0.7561462E-02  0.1204929E+00
          2   -1    0    0  501    0  0.00000000000E+00  0.00000000000E+00  0.16182338228E+03  0.16182338228E+03  0.00000000000E+00 0. -1.
         -2   -1    0    0    0  501 -0.00000000000E+00 -0.00000000000E+00 -0.29730519763E+03  0.29730519763E+03  0.00000000000E+00 0.  1.
         25    2    1    2    0    0 -0.57469463586E+02 -0.10535902504E+03 -0.22456379764E+03  0.28368967347E+03  0.12509064002E+03 0.  0.
          5    1    3    3  502    0  0.17115871620E+02  0.11895974244E+02 -0.21093889891E+01  0.21363267223E+02  0.41800000000E+01 0.  1.
         -5    1    3    3    0  502 -0.74585335206E+02 -0.11725499929E+03 -0.22245440865E+03  0.26232640625E+03  0.41800000000E+01 0.  1.
        -11    1    1    2    0    0  0.60309673380E+02  0.53449982064E+02  0.93296379231E+02  0.12328167611E+03  0.00000000000E+00 0. -1.
         11    1    1    2    0    0 -0.28402097939E+01  0.51909042979E+02 -0.42143969488E+01  0.52157230336E+02  0.00000000000E+00 0.  1.
</event>
<event>
 7    1  0.2855090E-009  0.1363641E+03  0.7561462E-02  0.1218307E+00
          2   -1    0    0  501    0  0.00000000000E+00  0.00000000000E+00  0.82196293135E+03  0.82196293135E+03  0.00000000000E+00 0. -1.
         -2   -1    0    0    0  501 -0.00000000000E+00 -0.00000000000E+00 -0.29030291003E+02  0.29030291003E+02  0.00000000000E+00 0.  1.
         25    2    1    2    0    0  0.78670329941E+02 -0.76704631009E+02  0.44208117428E+03  0.47239430469E+03  0.12509193909E+03 0.  0.
          5    1    3    3  502    0  0.87859529310E+02 -0.32371572526E+01  0.18570175124E+03  0.20550520405E+03  0.41800000000E+01 0. -1.
         -5    1    3    3    0  502 -0.91891993694E+01 -0.73467473756E+02  0.25637942304E+03  0.26688910065E+03  0.41800000000E+01 0. -1.
        -11    1    1    2    0    0 -0.29219637716E+02  0.36921041733E+02  0.27808486768E+03  0.28204280559E+03  0.00000000000E+00 0. -1.
         11    1    1    2    0    0 -0.49450692224E+02  0.39783589276E+02  0.72766598386E+02  0.96556112069E+02  0.00000000000E+00 0.  1.
</event>
<event>
 7    1  0.2855090E-009  0.1054346E+03  0.7561462E-02  0.1269266E+00
          1   -1    0    0  501    0  0.00000000000E+00  0.00000000000E+00  0.37218198095E+03  0.37218198095E+03  0.00000000000E+00 0. -1.
         -1   -1    0    0    0  501 -0.00000000000E+00 -0.00000000000E+00 -0.48904599073E+02  0.48904599073E+02  0.00000000000E+00 0.  1.
         25    2    1    2    0    0  0.42793844714E+02 -0.61904420706E+02  0.15628130114E+03  0.21385434451E+03  0.12508543133E+03 0.  0.
          5    1    3    3  502    0  0.63915708619E+02 -0.74851925083E+02  0.16055352549E+03  0.18836914674E+03  0.41800000000E+01 0.  1.
         -5    1    3    3    0  502 -0.21121863905E+02  0.12947504377E+02 -0.42722243509E+01  0.25485197769E+02  0.41800000000E+01 0.  1.
        -11    1    1    2    0    0 -0.55308066539E+01  0.46628809020E+02  0.13961560911E+02  0.48987353837E+02  0.00000000000E+00 0.  1.
         11    1    1    2    0    0 -0.37263038060E+02  0.15275611686E+02  0.15303451983E+03  0.15824488167E+03  0.00000000000E+00 0. -1.
</event>
<event>
 7    1  0.2855090E-009  0.2153257E+03  0.7561462E-02  0.1137417E+00
         -2   -1    0    0    0  501 -0.00000000000E+00  0.00000000000E+00  0.77964458042E+02  0.77964458042E+02  0.00000000000E+00 0.  1.
          2   -1    0    0  501    0  0.00000000000E+00 -0.00000000000E+00 -0.66375120284E+03  0.66375120284E+03  0.00000000000E+00 0. -1.
         25    2    1    2    0    0  0.69838545292E+02 -0.18529440665E+03 -0.25962553874E+03  0.34964987908E+03  0.12505270102E+03 0.  0.
          5    1    3    3  502    0  0.88111564403E+02 -0.68044575072E+02 -0.15819682989E+03  0.19348752250E+03  0.41800000000E+01 0. -1.
         -5    1    3    3    0  502 -0.18273019111E+02 -0.11724983158E+03 -0.10142870885E+03  0.15616235658E+03  0.41800000000E+01 0. -1.
        -11    1    1    2    0    0 -0.14851840705E+02  0.83502963242E+02 -0.21706764256E+03  0.23304867193E+03  0.00000000000E+00 0. -1.
         11    1    1    2    0    0 -0.54986704588E+02  0.10179144341E+03 -0.10909356350E+03  0.15901710987E+03  0.00000000000E+00 0.  1.
</event>
<event>
 7    1  0.2855090E-009  0.2099222E+03  0.7561462E-02  0.1141628E+00
          1   -1    0    0  501    0  0.00000000000E+00  0.00000000000E+00  0.15262237643E+03  0.15262237643E+03  0.00000000000E+00 0. -1.
         -1   -1    0    0    0  501 -0.00000000000E+00 -0.00000000000E+00 -0.29452017454E+03  0.29452017454E+03  0.00000000000E+00 0.  1.
         25    2    1    2    0    0 -0.85446569284E+02  0.16071604391E+03 -0.69702619316E+02  0.23159439546E+03  0.12508695334E+03 0.  0.
          5    1    3    3  502    0 -0.11274327835E+03  0.15499827619E+03 -0.53349703869E+02  0.19899541638E+03  0.41800000000E+01 0. -1.
         -5    1    3    3    0  502  0.27296709068E+02  0.57177677223E+01 -0.16352915447E+02  0.32598979084E+02  0.41800000000E+01 0. -1.
        -11    1    1    2    0    0 -0.16703053226E+02 -0.20205610504E+02  0.27386674020E+01  0.26358281091E+02  0.00000000000E+00 0. -1.
         11    1    1    2    0    0  0.10214962251E+03 -0.14051043341E+03 -0.74933846192E+02  0.18918987442E+03  0.00000000000E+00 0.  1.
</event>
<event>
 7    1  0.2855090E-009  0.1653962E+03  0.7561462E-02  0.1182736E+00
         -1   -1    0    0    0  501 -0.00000000000E+00  0.00000000000E+00  0.74875562303E+02  0.74875562303E+02  0.00000000000E+00 0.  1.
          1   -1    0    0  501    0  0.00000000000E+00 -0.00000000000E+00 -0.39437754578E+03  0.39437754578E+03  0.00000000000E+00 0. -1.
         25    2    1    2    0    0  0.11673566360E+03 -0.48439759197E+02 -0.11155790846E+03  0.20991836327E+03  0.12508767673E+03 0.  0.
          5    1    3    3  502    0 -0.22631980515E+02 -0.26712321505E+02 -0.12100208430E+02  0.37277903727E+02  0.41800000000E+01 0. -1.
         -5    1    3    3    0  502  0.13936764412E+03 -0.21727437692E+02 -0.99457700034E+02  0.17264045955E+03  0.41800000000E+01 0. -1.
        -11    1    1    2    0    0 -0.73227508033E+01 -0.22740870182E+02 -0.40549663151E+02  0.47064264975E+02  0.00000000000E+00 0. -1.
         11    1    1    2    0    0 -0.10941291280E+03  0.71180629380E+02 -0.16739441186E+03  0.21227047983E+03  0.00000000000E+00 0.  1.
</event>
<event>
 7    1  0.2855090E-009  0.1125226E+03  0.7561462E-02  0.1255968E+00
         -2   -1    0    0    0  501 -0.00000000000E+00  0.00000000000E+00  0.19926087467E+03  0.19926087467E+03  0.00000000000E+00 0.  1.
          2   -1    0    0  501    0  0.00000000000E+00 -0.00000000000E+00 -0.78137276245E+02  0.78137276245E+02  0.00000000000E+00 0. -1.
         25    2    1    2    0    0 -0.53634099895E+02  0.19382217699E+02  0.44706096911E+02  0.14455982467E+03  0.12508645319E+03 0.  0.
          5    1    3    3  502    0 -0.90339514228E+02 -0.28893258411E+01  0.13880086587E+02  0.91540729943E+02  0.41800000000E+01 0.  1.
         -5    1    3    3    0  502  0.36705414333E+02  0.22271543540E+02  0.30826010324E+02  0.53019094726E+02  0.41800000000E+01 0.  1.
        -11    1    1    2    0    0 -0.17803961416E+02 -0.56613930911E+01  0.53347083640E+02  0.56523833440E+02  0.00000000000E+00 0.  1.
         11    1    1    2    0    0  0.71438061312E+02 -0.13720824608E+02  0.23070417878E+02  0.76314492811E+02  0.00000000000E+00 0. -1.
</event>
<event>
 7    1  0.2855090E-009  0.1244727E+03  0.7561462E-02  0.1235896E+00
          2   -1    0    0  501    0  0.00000000000E+00  0.00000000000E+00  0.85243790201E+03  0.85243790201E+03  0.00000000000E+00 0. -1.
         -2   -1    0    0    0  501 -0.00000000000E+00 -0.00000000000E+00 -0.32697838893E+02  0.32697838893E+02  0.00000000000E+00 0.  1.
         25    2    1    2    0    0 -0.59563667809E+01  0.10562434906E+03  0.62177970889E+03  0.64299613465E+03  0.12506814694E+03 0.  0.
          5    1    3    3  502    0 -0.46515903977E+02  0.39302672727E+02  0.11428465805E+03  0.12956421138E+03  0.41800000000E+01 0. -1.
         -5    1    3    3    0  502  0.40559537196E+02  0.66321676331E+02  0.50749505084E+03  0.51343192327E+03  0.41800000000E+01 0. -1.
        -11    1    1    2    0    0  0.15495617800E+02 -0.29404112928E+02  0.14518807000E+03  0.14894392132E+03  0.00000000000E+00 0. -1.
         11    1    1    2    0    0 -0.95392510188E+01 -0.76220236130E+02  0.52772284223E+02  0.93195684921E+02  0.00000000000E+00 0.  1.
</event>
<event>
 7    1  0.2855090E-009  0.1188281E+03  0.7561462E-02  0.1245043E+00
         -1   -1    0    0    0  501 -0.00000000000E+00  0.00000000000E+00  0.29483212769E+02  0.29483212769E+02  0.00000000000E+00 0. -1.
          1   -1    0    0  501    0  0.00000000000E+00 -0.00000000000E+00 -0.50256762864E+03  0.50256762864E+03  0.00000000000E+00 0.  1.
         25    2    1    2    0    0  0.50352736243E+02 -0.12416733462E+02 -0.30379288516E+03  0.33260664150E+03  0.12508991799E+03 0.  0.
          5    1    3    3  502    0 -0.28329114704E+02  0.32435849280E+02 -0.12229827747E+03  0.12972649741E+03  0.41800000000E+01 0.  1.
         -5    1    3    3    0  502  0.78681850947E+02 -0.44852582742E+02 -0.18149460769E+03  0.20288014409E+03  0.41800000000E+01 0.  1.
        -11    1    1    2    0    0 -0.52762748914E+02  0.46033199460E+02 -0.13016468787E+03  0.14780327836E+03  0.00000000000E+00 0.  1.
         11    1    1    2    0    0  0.24100126707E+01 -0.33616465998E+02 -0.39126842845E+02  0.51640921548E+02  0.00000000000E+00 0. -1.
</event>
<event>
 7    1  0.2855090E-009  0.1152141E+03  0.7561462E-02  0.1251208E+00
          2   -1    0    0  501    0  0.00000000000E+00  0.00000000000E+00  0.15072383031E+04  0.15072383031E+04  0.00000000000E+00 0. -1.
         -2   -1    0    0    0  501 -0.00000000000E+00 -0.00000000000E+00 -0.52752667966E+02  0.52752667966E+02  0.00000000000E+00 0.  1.
         25    2    1    2    0    0  0.23595221269E+02  0.88031865290E+02  0.13816797439E+04  0.13903211186E+04  0.12509018463E+03 0.  0.
          5    1    3    3  502    0  0.33615172014E+01  0.35439358536E+02  0.11886675871E+04  0.11892078679E+04  0.41800000000E+01 0.  1.
         -5    1    3    3    0  502  0.20233704067E+02  0.52592506754E+02  0.19301215681E+03  0.20111325074E+03  0.41800000000E+01 0.  1.
        -11    1    1    2    0    0  0.36504541160E+02 -0.69619465050E+01  0.56229221042E+02  0.67400115159E+02  0.00000000000E+00 0. -1.
         11    1    1    2    0    0 -0.60099762429E+02 -0.81069918785E+02  0.16576670177E+02  0.10226973731E+03  0.00000000000E+00 0.  1.
</event>
<event>
 7    1  0.2855090E-009  0.1081924E+03  0.7561462E-02  0.1263954E+00
         -1   -1    0    0    0  501 -0.00000000000E+00  0.00000000000E+00  0.88449635097E+02  0.88449635097E+02  0.00000000000E+00 0.  1.
          1   -1    0    0  501    0  0.00000000000E+00 -0.00000000000E+00 -0.17771560641E+03  0.17771560641E+03  0.00000000000E+00 0. -1.
         25    2    1    2    0    0  0.36056862016E+02 -0.11770824777E+02  0.23728637098E+00  0.13071179829E+03  0.12508744259E+03 0.  0.
          5    1    3    3  502    0 -0.19117484526E+01  0.52982665513E+02 -0.12060749155E+02  0.54532116199E+02  0.41800000000E+01 0.  1.
         -5    1    3    3    0  502  0.37968610469E+02 -0.64753490290E+02  0.12298035526E+02  0.76179682091E+02  0.41800000000E+01 0.  1.
        -11    1    1    2    0    0 -0.61184664624E+02  0.14096442371E+02 -0.27565265517E+02  0.68571982148E+02  0.00000000000E+00 0.  1.
         11    1    1    2    0    0  0.25127802608E+02 -0.23256175938E+01 -0.61937992161E+02  0.66881461064E+02  0.00000000000E+00 0. -1.
</event>
<event>
 7    1  0.2855090E-009  0.1897395E+03  0.7561462E-02  0.1158696E+00
          2   -1    0    0  501    0  0.00000000000E+00  0.00000000000E+00  0.29159670309E+03  0.29159670309E+03  0.00000000000E+00 0. -1.
         -2   -1    0    0    0  501 -0.00000000000E+00 -0.00000000000E+00 -0.16614174114E+03  0.16614174114E+03  0.00000000000E+00 0.  1.
         25    2    1    2    0    0 -0.86282272061E+02 -0.14540365067E+03 -0.28121809879E+02  0.21219131801E+03  0.12508983631E+03 0.  0.
          5    1    3    3  502    0 -0.79877556237E+01 -0.10758863749E+03  0.24177731715E+02  0.11063974994E+03  0.41800000000E+01 0.  1.
         -5    1    3    3    0  502 -0.78294516438E+02 -0.37815013186E+02 -0.52299541594E+02  0.10155156807E+03  0.41800000000E+01 0.  1.
        -11    1    1    2    0    0  0.71011715754E+02  0.47630882900E+02  0.38503499400E+02  0.93775712454E+02  0.00000000000E+00 0.  1.
         11    1    1    2    0    0  0.15270556307E+02  0.97772767774E+02  0.11507327242E+03  0.15177141376E+03  0.00000000000E+00 0. -1.
</event>
<event>
 7    1  0.2855090E-009  0.1838513E+03  0.7561462E-02  0.1164127E+00
         -1   -1    0    0    0  501 -0.00000000000E+00  0.00000000000E+00  0.15191278999E+03  0.15191278999E+03  0.00000000000E+00 0.  1.
          1   -1    0    0  501    0  0.00000000000E+00 -0.00000000000E+00 -0.22652229787E+03  0.22652229787E+03  0.00000000000E+00 0. -1.
         25    2    1    2    0    0  0.11339593474E+02 -0.15308883426E+03 -0.43337156122E+02  0.20270994084E+03  0.12509369872E+03 0.  0.
          5    1    3    3  502    0  0.65424779718E+02 -0.10750843053E+03 -0.38574314892E+02  0.13169629686E+03  0.41800000000E+01 0.  1.
         -5    1    3    3    0  502 -0.54085186244E+02 -0.45580403728E+02 -0.47628412300E+01  0.71013643983E+02  0.41800000000E+01 0.  1.
        -11    1    1    2    0    0  0.31758410999E+02  0.80087147475E+02 -0.29055751010E+02  0.90921859454E+02  0.00000000000E+00 0.  1.
         11    1    1    2    0    0 -0.43098004473E+02  0.73001686785E+02 -0.22166007411E+01  0.84803287565E+02  0.00000000000E+00 0. -1.
</event>
<event>
 7    1  0.2855090E-009  0.1239959E+03  0.7561462E-02  0.1236647E+00
         -1   -1    0    0    0  501 -0.00000000000E+00  0.00000000000E+00  0.11622017205E+03  0.11622017205E+03  0.00000000000E+00 0.  1.
          1   -1    0    0  501    0  0.00000000000E+00 -0.00000000000E+00 -0.29402951305E+03  0.29402951305E+03  0.00000000000E+00 0. -1.
         25    2    1    2    0    0 -0.35538005639E+02  0.69947000942E+02  0.47413405068E+02  0.15508316139E+03  0.12508886113E+03 0.  0.
          5    1    3    3  502    0 -0.17011160979E+02  0.10569872200E+03  0.32926267612E+02  0.11208573026E+03  0.41800000000E+01 0. -1.
         -5    1    3    3    0  502 -0.18526844661E+02 -0.35751721056E+02  0.14487137456E+02  0.42997431123E+02  0.41800000000E+01 0. -1.
        -11    1    1    2    0    0 -0.16978359472E+02 -0.29672259768E+02 -0.20158624727E+02  0.39687250358E+02  0.00000000000E+00 0.  1.
         11    1    1    2    0    0  0.52516365111E+02 -0.40274741174E+02 -0.20506412134E+03  0.21547927335E+03  0.00000000000E+00 0. -1.
</event>
<event>
 7    1  0.2855090E-009  0.1094601E+03  0.7561462E-02  0.1261573E+00
         -2   -1    0    0    0  501 -0.00000000000E+00  0.00000000000E+00  0.53577793677E+02  0.53577793677E+02  0.00000000000E+00 0.  1.
          2   -1    0    0  501    0  0.00000000000E+00 -0.00000000000E+00 -0.25805993562E+03  0.25805993562E+03  0.00000000000E+00 0. -1.
         25    2    1    2    0    0 -0.80691344198E+01 -0.41084183251E+02 -0.91529024388E+02  0.16055640314E+03  0.12509106779E+03 0.  0.
          5    1    3    3  502    0 -0.54730573834E+02  0.50143059940E+01 -0.74477670048E+02  0.92655138619E+02  0.41800000000E+01 0.  1.
         -5    1    3    3    0  502  0.46661439414E+02 -0.46098489245E+02 -0.17051354340E+02  0.67901264521E+02  0.41800000000E+01 0.  1.
        -11    1    1    2    0    0 -0.31447597232E+02 -0.10447151505E+02 -0.54096474786E+02  0.63439127756E+02  0.00000000000E+00 0.  1.
         11    1    1    2    0    0  0.39516731651E+02  0.51531334756E+02 -0.58856642765E+02  0.87642198396E+02  0.00000000000E+00 0. -1.
</event>
<event>
 7    1  0.2855090E-009  0.1360455E+03  0.7561462E-02  0.1218751E+00
          4   -1    0    0  501    0  0.00000000000E+00  0.00000000000E+00  0.38946958942E+03  0.38946958942E+03  0.00000000000E+00 0. -1.
         -4   -1    0    0    0  501 -0.00000000000E+00 -0.00000000000E+00 -0.68183872493E+02  0.68183872493E+02  0.00000000000E+00 0.  1.
         25    2    1    2    0    0 -0.11772920662E+03 -0.26673305551E+02  0.19067148563E+03  0.25802119342E+03  0.12509072508E+03 0.  0.
          5    1    3    3  502    0 -0.92291311261E+02 -0.19876760167E+02  0.36088998741E+02  0.10115661105E+03  0.41800000000E+01 0.  1.
         -5    1    3    3    0  502 -0.25437895355E+02 -0.67965453846E+01  0.15458248689E+03  0.15686458237E+03  0.41800000000E+01 0.  1.
        -11    1    1    2    0    0  0.26119235018E+02  0.49988279142E+02  0.46529775939E+02  0.73116773304E+02  0.00000000000E+00 0.  1.
         11    1    1    2    0    0  0.91609971599E+02 -0.23314973590E+02  0.84084455355E+02  0.12651549519E+03  0.00000000000E+00 0. -1.
</event>
<event>
 7    1  0.2855090E-009  0.1152820E+03  0.7561462E-02  0.1251090E+00
          2   -1    0    0  501    0  0.00000000000E+00  0.00000000000E+00  0.72613982453E+03  0.72613982453E+03  0.00000000000E+00 0. -1.
         -2   -1    0    0    0  501 -0.00000000000E+00 -0.00000000000E+00 -0.24539844065E+02  0.24539844065E+02  0.00000000000E+00 0.  1.
         25    2    1    2    0    0  0.75254452224E+02  0.79225360132E+01  0.43909268158E+03  0.46279298050E+03  0.12509580577E+03 0.  0.
          5    1    3    3  502    0  0.87432572836E+02 -0.33798414372E+02  0.21650448136E+03  0.23596281583E+03  0.41800000000E+01 0.  1.
         -5    1    3    3    0  502 -0.12178120612E+02  0.41720950385E+02  0.22258820022E+03  0.22683016466E+03  0.41800000000E+01 0.  1.
        -11    1    1    2    0    0 -0.47966868207E+02 -0.31185085826E+02  0.62670054906E+02  0.84857915397E+02  0.00000000000E+00 0.  1.
         11    1    1    2    0    0 -0.27287584018E+02  0.23262549813E+02  0.19983724398E+03  0.20302877270E+03  0.00000000000E+00 0. -1.
</event>
<event>
 7    1  0.2855090E-009  0.9110476E+02  0.7561462E-02  0.1300198E+00
          1   -1    0    0  501    0  0.00000000000E+00  0.00000000000E+00  0.67080175983E+02  0.67080175983E+02  0.00000000000E+00 0. -1.
         -1   -1    0    0    0  501 -0.00000000000E+00 -0.00000000000E+00 -0.20356678693E+03  0.20356678693E+03  0.00000000000E+00 0.  1.
         25    2    1    2    0    0  0.17678034283E+02  0.67754066591E+01 -0.31836142454E+02  0.13046056330E+03  0.12509196449E+03 0.  0.
          5    1    3    3  502    0  0.74818507866E+01 -0.58427501659E+02 -0.24477867775E+02  0.63924873501E+02  0.41800000000E+01 0. -1.
         -5    1    3    3    0  502  0.10196183496E+02  0.65202908318E+02 -0.73582746793E+01  0.66535689801E+02  0.41800000000E+01 0. -1.
        -11    1    1    2    0    0 -0.27129208802E+02  0.16607276876E+02  0.74290654702E+00  0.31817409159E+02  0.00000000000E+00 0. -1.
         11    1    1    2    0    0  0.94511745191E+01 -0.23382683535E+02 -0.10539337504E+03  0.10836899045E+03  0.00000000000E+00 0.  1.
</event>
<event>
 7    1  0.2855090E-009  0.1417447E+03  0.7561462E-02  0.1211000E+00
          3   -1    0    0  501    0  0.00000000000E+00  0.00000000000E+00  0.41159673097E+02  0.41159673097E+02  0.00000000000E+00 0. -1.
         -3   -1    0    0    0  501 -0.00000000000E+00 -0.00000000000E+00 -0.64222497319E+03  0.64222497319E+03  0.00000000000E+00 0.  1.
         25    2    1    2    0    0  0.10629943759E+03 -0.53486279396E+02 -0.35708633213E+03  0.39663483452E+03  0.12509272899E+03 0.  0.
          5    1    3    3  502    0 -0.21636152444E+02  0.35306445606E+01 -0.14808416419E+02  0.26783392997E+02  0.41800000000E+01 0. -1.
         -5    1    3    3    0  502  0.12793559003E+03 -0.57016923956E+02 -0.34227791571E+03  0.36985144153E+03  0.41800000000E+01 0. -1.
        -11    1    1    2    0    0 -0.44937823629E+02  0.34995277577E+02 -0.20262626566E+03  0.21047916995E+03  0.00000000000E+00 0.  1.
         11    1    1    2    0    0 -0.61361613959E+02  0.18491001819E+02 -0.41352702301E+02  0.76270641819E+02  0.00000000000E+00 0. -1.
</event>
<event>
 7    1  0.2855090E-009  0.1140756E+03  0.7561462E-02  0.1253203E+00
         -1   -1    0    0    0  501 -0.00000000000E+00  0.00000000000E+00  0.15099601972E+03  0.15099601972E+03  0.00000000000E+00 0.  1.
          1   -1    0    0  501    0  0.00000000000E+00 -0.00000000000E+00 -0.96105932646E+02  0.96105932646E+02  0.00000000000E+00 0. -1.
         25    2    1    2    0    0  0.11014243398E+02 -0.55282256536E+02  0.29645261809E+02  0.14037097556E+03  0.12509087811E+03 0.  0.
          5    1    3    3  502    0 -0.48986969238E+02 -0.39866110529E+00 -0.94199393064E+01  0.50060860383E+02  0.41800000000E+01 0.  1.
         -5    1    3    3    0  502  0.60001212636E+02 -0.54883595431E+02  0.39065201115E+02  0.90310115178E+02  0.41800000000E+01 0.  1.
        -11    1    1    2    0    0 -0.20699390358E+02  0.73808350452E+02  0.37511259432E+01  0.76747692496E+02  0.00000000000E+00 0. -1.
         11    1    1    2    0    0  0.96851469593E+01 -0.18526093916E+02  0.21493699325E+02  0.29983284311E+02  0.00000000000E+00 0.  1.
</event>
<event>
 7    1  0.2855090E-009  0.1440585E+03  0.7561462E-02  0.1207970E+00
          2   -1    0    0  501    0  0.00000000000E+00  0.00000000000E+00  0.21273235153E+03  0.21273235153E+03  0.00000000000E+00 0. -1.
         -2   -1    0    0    0  501 -0.00000000000E+00 -0.00000000000E+00 -0.12811094068E+03  0.12811094068E+03  0.00000000000E+00 0.  1.
         25    2    1    2    0    0 -0.11352106722E+03  0.18086538137E+02 -0.60845543365E+01  0.17000472283E+03  0.12510167232E+03 0.  0.
          5    1    3    3  502    0  0.21518571333E+02 -0.91627076663E+01  0.18363559657E+02  0.30028267470E+02  0.41800000000E+01 0.  1.
         -5    1    3    3    0  502 -0.13503963855E+03  0.27249245803E+02 -0.24448113994E+02  0.13997645536E+03  0.41800000000E+01 0.  1.
        -11    1    1    2    0    0  0.19669205908E+02  0.17336614195E+02  0.60719174542E+02  0.66138143381E+02  0.00000000000E+00 0. -1.
         11    1    1    2    0    0  0.93851861309E+02 -0.35423152331E+02  0.29986790636E+02  0.10470042600E+03  0.00000000000E+00 0.  1.
</event>
<event>
 7    1  0.2855090E-009  0.8368213E+02  0.7561462E-02  0.1318915E+00
         -1   -1    0    0    0  501 -0.00000000000E+00  0.00000000000E+00  0.91171230827E+02  0.91171230827E+02  0.00000000000E+00 0.  1.
          1   -1    0    0  501    0  0.00000000000E+00 -0.00000000000E+00 -0.17267265418E+03  0.17267265418E+03  0.00000000000E+00 0. -1.
         25    2    1    2    0    0  0.74272901533E+01  0.45955361391E+02 -0.29000786274E+01  0.13350318458E+03  0.12509048707E+03 0.  0.
          5    1    3    3  502    0  0.72390582719E-04 -0.12225954026E+02  0.51682126817E+02  0.53272775263E+02  0.41800000000E+01 0. -1.
         -5    1    3    3    0  502  0.74272177628E+01  0.58181315417E+02 -0.54582205445E+02  0.80230409313E+02  0.41800000000E+01 0. -1.
        -11    1    1    2    0    0  0.38095714688E+02 -0.17213940605E+02 -0.60508079328E+02  0.73544754352E+02  0.00000000000E+00 0. -1.
         11    1    1    2    0    0 -0.45523004841E+02 -0.28741420786E+02 -0.18093265400E+02  0.56795946082E+02  0.00000000000E+00 0.  1.
</event>
<event>
 7    1  0.2855090E-009  0.2277262E+03  0.7561462E-02  0.1128250E+00
          1   -1    0    0  501    0  0.00000000000E+00  0.00000000000E+00  0.28722022790E+03  0.28722022790E+03  0.00000000000E+00 0. -1.
         -1   -1    0    0    0  501 -0.00000000000E+00 -0.00000000000E+00 -0.20128839917E+03  0.20128839917E+03  0.00000000000E+00 0.  1.
         25    2    1    2    0    0 -0.65173526989E+02 -0.19948120227E+03 -0.28364071038E+00  0.24431155826E+03  0.12509084046E+03 0.  0.
          5    1    3    3  502    0 -0.77617544101E+02 -0.54416794379E+02 -0.21021231654E+02  0.97185571166E+02  0.41800000000E+01 0. -1.
         -5    1    3    3    0  502  0.12444017111E+02 -0.14506440789E+03  0.20737590944E+02  0.14712598709E+03  0.41800000000E+01 0. -1.
        -11    1    1    2    0    0  0.21548307588E+02  0.17459587204E+02  0.44489787593E+02  0.52426214295E+02  0.00000000000E+00 0.  1.
         11    1    1    2    0    0  0.43625219401E+02  0.18202161507E+03  0.41725681849E+02  0.19177085452E+03  0.00000000000E+00 0. -1.
</event>
<event>
 7    1  0.2855090E-009  0.7110993E+02  0.7561462E-02  0.1356359E+00
         -1   -1    0    0    0  501 -0.00000000000E+00  0.00000000000E+00  0.48341596408E+02  0.48341596408E+02  0.00000000000E+00 0.  1.
          1   -1    0    0  501    0  0.00000000000E+00 -0.00000000000E+00 -0.28455910395E+03  0.28455910395E+03  0.00000000000E+00 0. -1.
         25    2    1    2    0    0  0.13756181274E+02  0.33777185265E+02 -0.16616297797E+03  0.21115787530E+03  0.12508949712E+03 0.  0.
          5    1    3    3  502    0 -0.72899306192E+01  0.11523636398E+02  0.18817789762E+02  0.23611838044E+02  0.41800000000E+01 0.  1.
         -5    1    3    3    0  502  0.21046111893E+02  0.22253548867E+02 -0.18498076773E+03  0.18754603726E+03  0.41800000000E+01 0.  1.
        -11    1    1    2    0    0 -0.41389622461E+02  0.12420311012E+02 -0.44925306136E+02  0.62334966949E+02  0.00000000000E+00 0.  1.
         11    1    1    2    0    0  0.27633441187E+02 -0.46197496277E+02 -0.25129223442E+02  0.59407858107E+02  0.00000000000E+00 0. -1.
</event>
<event>
 7    1  0.2855090E-009  0.1079985E+03  0.7561462E-02  0.1264322E+00
         -1   -1    0    0    0  501 -0.00000000000E+00  0.00000000000E+00  0.26101575637E+03  0.26101575637E+03  0.00000000000E+00 0.  1.
          1   -1    0    0  501    0  0.00000000000E+00 -0.00000000000E+00 -0.97516028742E+02  0.97516028742E+02  0.00000000000E+00 0. -1.
         25    2    1    2    0    0  0.15775978829E+02  0.11858931814E+01 -0.41887636929E+02  0.13286276074E+03  0.12509057204E+03 0.  0.
          5    1    3    3  502    0 -0.39606667395E+02  0.40537284561E+02 -0.28167465321E+02  0.63425846816E+02  0.41800000000E+01 0.  1.
         -5    1    3    3    0  502  0.55382646223E+02 -0.39351391379E+02 -0.13720171608E+02  0.69436913923E+02  0.41800000000E+01 0.  1.
        -11    1    1    2    0    0  0.29411835082E+02 -0.26254596332E+02  0.64400107163E+02  0.75509825017E+02  0.00000000000E+00 0. -1.
         11    1    1    2    0    0 -0.45187813911E+02  0.25068703151E+02  0.14098725740E+03  0.15015919936E+03  0.00000000000E+00 0.  1.
</event>
<event>
 7    1  0.2855090E-009  0.2196049E+03  0.7561462E-02  0.1134178E+00
          2   -1    0    0  501    0  0.00000000000E+00  0.00000000000E+00  0.14075871370E+04  0.14075871370E+04  0.00000000000E+00 0.  1.
         -2   -1    0    0    0  501 -0.00000000000E+00 -0.00000000000E+00 -0.37601352767E+02  0.37601352767E+02  0.00000000000E+00 0. -1.
         25    2    1    2    0    0 -0.12402354084E+03  0.15457144362E+03  0.57405915368E+03  0.62005270816E+03  0.12508908467E+03 0.  0.
          5    1    3    3  502    0 -0.73498928379E+02  0.16083144868E+03  0.37622683298E+03  0.41573182415E+03  0.41800000000E+01 0. -1.
         -5    1    3    3    0  502 -0.50524612464E+02 -0.62600050570E+01  0.19783232070E+03  0.20432088401E+03  0.41800000000E+01 0. -1.
        -11    1    1    2    0    0  0.81802747349E+01 -0.63145492767E+02  0.15769152442E+03  0.17006142133E+03  0.00000000000E+00 0.  1.
         11    1    1    2    0    0  0.11584326611E+03 -0.91425950856E+02  0.63823510617E+03  0.65507436031E+03  0.00000000000E+00 0. -1.
</event>
<event>
 7    1  0.2855090E-009  0.1069231E+03  0.7561462E-02  0.1266376E+00
          1   -1    0    0  501    0  0.00000000000E+00  0.00000000000E+00  0.51580496890E+03  0.51580496890E+03  0.00000000000E+00 0. -1.
         -1   -1    0    0    0  501 -0.00000000000E+00 -0.00000000000E+00 -0.29048165070E+02  0.29048165070E+02  0.00000000000E+00 0.  1.
         25    2    1    2    0    0 -0.51347123912E+02 -0.32156248308E+01  0.31921450244E+03  0.34668597980E+03  0.12508558128E+03 0.  0.
          5    1    3    3  502    0 -0.84183020725E+01 -0.46617575254E+02  0.44124837261E+02  0.64873259480E+02  0.41800000000E+01 0. -1.
         -5    1    3    3    0  502 -0.42928821840E+02  0.43401950423E+02  0.27508966518E+03  0.28181272032E+03  0.41800000000E+01 0. -1.
        -11    1    1    2    0    0 -0.26505411372E+02  0.60897466691E+01  0.33726785547E+02  0.43325718804E+02  0.00000000000E+00 0.  1.
         11    1    1    2    0    0  0.77852535285E+02 -0.28741218383E+01  0.13381551585E+03  0.15484143537E+03  0.00000000000E+00 0. -1.
</event>
<event>
 7    1  0.2855090E-009  0.1230461E+03  0.7561462E-02  0.1238155E+00
          2   -1    0    0  501    0  0.00000000000E+00  0.00000000000E+00  0.15825305962E+03  0.15825305962E+03  0.00000000000E+00 0. -1.
         -2   -1    0    0    0  501 -0.00000000000E+00 -0.00000000000E+00 -0.10642512735E+03  0.10642512735E+03  0.00000000000E+00 0.  1.
         25    2    1    2    0    0  0.45725257426E+02 -0.43231691216E+02  0.66869163169E+02  0.15517345963E+03  0.12509012471E+03 0.  0.
          5    1    3    3  502    0  0.65658772457E+02 -0.75267246315E+02  0.36027683953E+02  0.10626240718E+03  0.41800000000E+01 0. -1.
         -5    1    3    3    0  502 -0.19933515031E+02  0.32035555099E+02  0.30841479216E+02  0.48911052455E+02  0.41800000000E+01 0. -1.
        -11    1    1    2    0    0 -0.72271058718E+02  0.35461336267E+02 -0.14756681488E+02  0.81843582196E+02  0.00000000000E+00 0.  1.
         11    1    1    2    0    0  0.26545801292E+02  0.77703549490E+01 -0.28454940944E+00  0.27661145143E+02  0.00000000000E+00 0. -1.
</event>
<event>
 7    1  0.2855090E-009  0.1213182E+03  0.7561462E-02  0.1240938E+00
          1   -1    0    0  501    0  0.00000000000E+00  0.00000000000E+00  0.18018846244E+03  0.18018846244E+03  0.00000000000E+00 0. -1.
         -1   -1    0    0    0  501 -0.00000000000E+00 -0.00000000000E+00 -0.12628283478E+03  0.12628283478E+03  0.00000000000E+00 0.  1.
         25    2    1    2    0    0 -0.74806151874E+02 -0.76193762554E+02  0.44847373847E+02  0.17047457902E+03  0.12509534501E+03 0.  0.
          5    1    3    3  502    0 -0.59472698992E+02 -0.18061139279E+01  0.68486816194E+02  0.90819493311E+02  0.41800000000E+01 0. -1.
         -5    1    3    3    0  502 -0.15333452882E+02 -0.74387648626E+02 -0.23639442348E+02  0.79655085712E+02  0.41800000000E+01 0. -1.
        -11    1    1    2    0    0  0.16721423307E+02  0.20464000649E+02  0.41507461136E+02  0.49206205401E+02  0.00000000000E+00 0. -1.
         11    1    1    2    0    0  0.58084728567E+02  0.55729761905E+02 -0.32449207323E+02  0.86790512791E+02  0.00000000000E+00 0.  1.
</event>
<event>
 7    1  0.2855090E-009  0.8508212E+02  0.7561462E-02  0.1315218E+00
         -3   -1    0    0    0  501 -0.00000000000E+00  0.00000000000E+00  0.12073243007E+03  0.12073243007E+03  0.00000000000E+00 0.  1.
          3   -1    0    0  501    0  0.00000000000E+00 -0.00000000000E+00 -0.11254464143E+03  0.11254464143E+03  0.00000000000E+00 0. -1.
         25    2    1    2    0    0  0.33700744868E+02  0.15345682561E+02 -0.17212082346E+02  0.13158417493E+03  0.12508760585E+03 0.  0.
          5    1    3    3  502    0 -0.28446848043E+02  0.51017637009E+02 -0.10449990685E+02  0.59486949450E+02  0.41800000000E+01 0.  1.
         -5    1    3    3    0  502  0.62147592911E+02 -0.35671954448E+02 -0.67620916612E+01  0.72097225484E+02  0.41800000000E+01 0.  1.
        -11    1    1    2    0    0 -0.10412063676E+02 -0.12642125559E+02  0.58714245240E+02  0.60955697049E+02  0.00000000000E+00 0.  1.
         11    1    1    2    0    0 -0.23288681192E+02 -0.27035570021E+01 -0.33314374255E+02  0.40737199513E+02  0.00000000000E+00 0. -1.
</event>
<event>
 7    1  0.4049116E-009  0.1125331E+03  0.7561462E-02  0.1255950E+00
          1   -1    0    0  501    0  0.00000000000E+00  0.00000000000E+00  0.13359987873E+03  0.13359987873E+03  0.00000000000E+00 0. -1.
         -1   -1    0    0    0  501 -0.00000000000E+00 -0.00000000000E+00 -0.15533399312E+03  0.15533399312E+03  0.00000000000E+00 0.  1.
         25    2    1    2    0    0  0.41583550340E+02 -0.74065907218E+02 -0.53656777054E+02  0.16043845345E+03  0.12508595984E+03 0.  0.
          5    1    3    3  502    0  0.63871870464E+02 -0.37091671288E+02  0.18492333502E+02  0.76255142213E+02  0.41800000000E+01 0. -1.
         -5    1    3    3    0  502 -0.22288320124E+02 -0.36974235929E+02 -0.72149110556E+02  0.84183311235E+02  0.41800000000E+01 0. -1.
        -11    1    1    2    0    0  0.13865429586E+02  0.40705000671E+02 -0.18148443946E+02  0.46674545899E+02  0.00000000000E+00 0.  1.
         11    1    1    2    0    0 -0.55448979926E+02  0.33360906547E+02  0.50071106613E+02  0.81820872508E+02  0.00000000000E+00 0. -1.
</event>
<event>
 7    1  0.2855090E-009  0.1261242E+03  0.7561462E-02  0.1233323E+00
          2   -1    0    0  501    0  0.00000000000E+00  0.00000000000E+00  0.25650385621E+03  0.25650385621E+03  0.00000000000E+00 0.  1.
         -2   -1    0    0    0  501 -0.00000000000E+00 -0.00000000000E+00 -0.91338712940E+02  0.91338712940E+02  0.00000000000E+00 0. -1.
         25    2    1    2    0    0 -0.41413161852E+02 -0.97866755958E+02  0.11031284766E+03  0.19775839548E+03  0.12508599733E+03 0.  0.
          5    1    3    3  502    0 -0.36314524428E+01  0.66854340978E+01 -0.22730845545E+02  0.24331999817E+02  0.41800000000E+01 0.  1.
         -5    1    3    3    0  502 -0.37781709410E+02 -0.10455219006E+03  0.13304369321E+03  0.17342639567E+03  0.41800000000E+01 0.  1.
        -11    1    1    2    0    0  0.43660434508E+02  0.10475366512E+02 -0.34086885814E+01  0.45028724197E+02  0.00000000000E+00 0. -1.
         11    1    1    2    0    0 -0.22472726560E+01  0.87391389447E+02  0.58260984183E+02  0.10505544946E+03  0.00000000000E+00 0.  1.
</event>
<event>
 7    1  0.2855090E-009  0.1319900E+03  0.7561462E-02  0.1224533E+00
         -2   -1    0    0    0  501 -0.00000000000E+00  0.00000000000E+00  0.38230569069E+02  0.38230569069E+02  0.00000000000E+00 0.  1.
          2   -1    0    0  501    0  0.00000000000E+00 -0.00000000000E+00 -0.71697876219E+03  0.71697876219E+03  0.00000000000E+00 0. -1.
         25    2    1    2    0    0 -0.48253089633E+02 -0.98916146399E+02 -0.49705816377E+03  0.52423933701E+03  0.12508916670E+03 0.  0.
          5    1    3    3  502    0  0.51479717823E+01  0.21301558810E+02 -0.22174013580E+02  0.31455004363E+02  0.41800000000E+01 0. -1.
         -5    1    3    3    0  502 -0.53401061415E+02 -0.12021770521E+03 -0.47488415019E+03  0.49278433265E+03  0.41800000000E+01 0. -1.
        -11    1    1    2    0    0  0.31076058620E+02  0.64234805060E+02 -0.17838435067E+03  0.19212706255E+03  0.00000000000E+00 0. -1.
         11    1    1    2    0    0  0.17177031013E+02  0.34681341339E+02 -0.33056786886E+01  0.38842931701E+02  0.00000000000E+00 0.  1.
</event>
<event>
 7    1  0.2855090E-009  0.1116713E+03  0.7561462E-02  0.1257506E+00
         -1   -1    0    0    0  501 -0.00000000000E+00  0.00000000000E+00  0.16131924962E+03  0.16131924962E+03  0.00000000000E+00 0.  1.
          1   -1    0    0  501    0  0.00000000000E+00 -0.00000000000E+00 -0.99493621495E+02  0.99493621495E+02  0.00000000000E+00 0. -1.
         25    2    1    2    0    0  0.40378010810E+02 -0.33052033416E+02 -0.93604451372E+01  0.13586277042E+03  0.12509298056E+03 0.  0.
          5    1    3    3  502    0  0.25744850131E+02 -0.78647332420E+02 -0.22822987936E+02  0.85945106803E+02  0.41800000000E+01 0. -1.
         -5    1    3    3    0  502  0.14633160678E+02  0.45595299004E+02  0.13462542799E+02  0.49917663621E+02  0.41800000000E+01 0. -1.
        -11    1    1    2    0    0 -0.85801763053E+01  0.53778563314E+02  0.13855979692E+02  0.56193784984E+02  0.00000000000E+00 0. -1.
         11    1    1    2    0    0 -0.31797834504E+02 -0.20726529899E+02  0.57330093568E+02  0.68756315705E+02  0.00000000000E+00 0.  1.
</event>
<event>
 7    1  0.2855090E-009  0.1724561E+03  0.7561462E-02  0.1175310E+00
         -1   -1    0    0    0  501 -0.00000000000E+00  0.00000000000E+00  0.12191413536E+03  0.12191413536E+03  0.00000000000E+00 0.  1.
          1   -1    0    0  501    0  0.00000000000E+00 -0.00000000000E+00 -0.25083777182E+03  0.25083777182E+03  0.00000000000E+00 0. -1.
         25    2    1    2    0    0  0.10706614260E+02  0.13597653049E+03 -0.67737656409E+02  0.19707364276E+03  0.12508150200E+03 0.  0.
          5    1    3    3  502    0  0.63666941306E+02  0.90348624962E+02 -0.62026523784E+02  0.12681133822E+03  0.41800000000E+01 0.  1.
         -5    1    3    3    0  502 -0.52960327046E+02  0.45627905525E+02 -0.57111326255E+01  0.70262304540E+02  0.41800000000E+01 0.  1.
        -11    1    1    2    0    0  0.38697705396E+02 -0.36447568994E+02 -0.25602185799E+02  0.59003471136E+02  0.00000000000E+00 0.  1.
         11    1    1    2    0    0 -0.49404319656E+02 -0.99528961493E+02 -0.35583794253E+02  0.11667479329E+03  0.00000000000E+00 0. -1.
</event>
<event>
 7    1  0.2855090E-009  0.7844679E+02  0.7561462E-02  0.1333518E+00
          2   -1    0    0  501    0  0.00000000000E+00  0.00000000000E+00  0.17429318432E+03  0.17429318432E+03  0.00000000000E+00 0. -1.
         -2   -1    0    0    0  501 -0.00000000000E+00 -0.00000000000E+00 -0.75637650294E+02  0.75637650294E+02  0.00000000000E+00 0.  1.
         25    2    1    2    0    0 -0.27142889251E+02  0.22591459905E+02  0.43981371214E+02  0.13721906055E+03  0.12509036361E+03 0.  0.
          5    1    3    3  502    0  0.20900167114E+02 -0.17835774826E+01  0.72871807125E+02  0.75945841280E+02  0.41800000000E+01 0.  1.
         -5    1    3    3    0  502 -0.48043056365E+02  0.24375037387E+02 -0.28890435912E+02  0.61273219270E+02  0.41800000000E+01 0.  1.
        -11    1    1    2    0    0 -0.18760532923E+02  0.13470527912E+02  0.48865899798E+02  0.54048948934E+02  0.00000000000E+00 0. -1.
         11    1    1    2    0    0  0.45903422175E+02 -0.36061987817E+02  0.58082630113E+01  0.58662825127E+02  0.00000000000E+00 0.  1.
</event>
<event>
 7    1  0.2855090E-009  0.1452801E+03  0.7561462E-02  0.1206396E+00
          1   -1    0    0  501    0  0.00000000000E+00  0.00000000000E+00  0.47812131746E+03  0.47812131746E+03  0.00000000000E+00 0. -1.
         -1   -1    0    0    0  501 -0.00000000000E+00 -0.00000000000E+00 -0.58971953335E+02  0.58971953335E+02  0.00000000000E+00 0.  1.
         25    2    1    2    0    0  0.11098077317E+03  0.39772989912E+02  0.30161082937E+03  0.34715308163E+03  0.12509015529E+03 0.  0.
          5    1    3    3  502    0  0.11211952953E+03 -0.16399725967E+02  0.22610911034E+03  0.25294770624E+03  0.41800000000E+01 0.  1.
         -5    1    3    3    0  502 -0.11387563551E+01  0.56172715880E+02  0.75501719031E+02  0.94205375388E+02  0.41800000000E+01 0.  1.
        -11    1    1    2    0    0 -0.61571003021E+02 -0.35892763499E+02  0.12081561752E+03  0.14027006923E+03  0.00000000000E+00 0.  1.
         11    1    1    2    0    0 -0.49409770153E+02 -0.38802264138E+01 -0.32770827621E+01  0.49670119942E+02  0.00000000000E+00 0. -1.
</event>
<event>
 7    1  0.2855090E-009  0.1379658E+03  0.7561462E-02  0.1216093E+00
          1   -1    0    0  501    0  0.00000000000E+00  0.00000000000E+00  0.24176178535E+04  0.24176178535E+04  0.00000000000E+00 0. -1.
         -1   -1    0    0    0  501 -0.00000000000E+00 -0.00000000000E+00 -0.18331522917E+02  0.18331522917E+02  0.00000000000E+00 0.  1.
         25    2    1    2    0    0 -0.15666520079E+02  0.11399475646E+03  0.20512343807E+04  0.20582640928E+04  0.12509335132E+03 0.  0.
          5    1    3    3  502    0  0.41377899559E+02  0.86774438193E+02  0.86418431017E+03  0.86952511639E+03  0.41800000000E+01 0. -1.
         -5    1    3    3    0  502 -0.57044419638E+02  0.27220318271E+02  0.11870500706E+04  0.11887389764E+04  0.41800000000E+01 0. -1.
        -11    1    1    2    0    0 -0.36102078737E+01 -0.28056946309E+02  0.12785293543E+02  0.31043349820E+02  0.00000000000E+00 0.  1.
         11    1    1    2    0    0  0.19276727953E+02 -0.85937810155E+02  0.33526665635E+03  0.34664193387E+03  0.00000000000E+00 0. -1.
</event>
<event>
 7    1  0.3261967E-009  0.1708718E+03  0.7561462E-02  0.1176942E+00
          1   -1    0    0  501    0  0.00000000000E+00  0.00000000000E+00  0.17643102435E+03  0.17643102435E+03  0.00000000000E+00 0. -1.
         -1   -1    0    0    0  501 -0.00000000000E+00 -0.00000000000E+00 -0.18805841518E+03  0.18805841518E+03  0.00000000000E+00 0.  1.
         25    2    1    2    0    0  0.11712173922E+03 -0.67135672384E+02 -0.61543473725E+02  0.19406076601E+03  0.12508909402E+03 0.  0.
          5    1    3    3  502    0  0.13885908640E+03 -0.32122698969E+02 -0.49209181578E+02  0.15084007961E+03  0.41800000000E+01 0.  1.
         -5    1    3    3    0  502 -0.21737347186E+02 -0.35012973416E+02 -0.12334292148E+02  0.43220686400E+02  0.41800000000E+01 0.  1.
        -11    1    1    2    0    0 -0.12012569352E+03  0.34531454017E+02  0.20993012366E+02  0.12674111459E+03  0.00000000000E+00 0.  1.
         11    1    1    2    0    0  0.30039542989E+01  0.32604218368E+02  0.28923070522E+02  0.43687558929E+02  0.00000000000E+00 0. -1.
</event>
<event>
 7    1  0.2855090E-009  0.1012441E+03  0.7561462E-02  0.1277701E+00
         -1   -1    0    0    0  501 -0.00000000000E+00  0.00000000000E+00  0.23637049826E+03  0.23637049826E+03  0.00000000000E+00 0.  1.
          1   -1    0    0  501    0  0.00000000000E+00 -0.00000000000E+00 -0.64821337661E+02  0.64821337661E+02  0.00000000000E+00 0. -1.
         25    2    1    2    0    0  0.21815717024E+02 -0.30172111281E+02  0.15145827264E+03  0.19993193684E+03  0.12508752619E+03 0.  0.
          5    1    3    3  502    0 -0.40273944871E+02  0.24786502368E+02  0.53785341959E+02  0.71740481911E+02  0.41800000000E+01 0.  1.
         -5    1    3    3    0  502  0.62089661895E+02 -0.54958613650E+02  0.97672930682E+02  0.12819145493E+03  0.41800000000E+01 0.  1.
        -11    1    1    2    0    0 -0.36484619963E+02 -0.20945060566E+01  0.44976455241E+02  0.57951669307E+02  0.00000000000E+00 0.  1.
         11    1    1    2    0    0  0.14668902938E+02  0.32266617338E+02 -0.24885567279E+02  0.43308229780E+02  0.00000000000E+00 0. -1.
</event>
<event>
 7    1  0.2855090E-009  0.9845374E+02  0.7561462E-02  0.1283582E+00
          1   -1    0    0  501    0  0.00000000000E+00  0.00000000000E+00  0.40024606968E+03  0.40024606968E+03  0.00000000000E+00 0. -1.
         -1   -1    0    0    0  501 -0.00000000000E+00 -0.00000000000E+00 -0.38618947520E+02  0.38618947520E+02  0.00000000000E+00 0.  1.
         25    2    1    2    0    0 -0.43185802450E+02 -0.28303528191E+02  0.26834607507E+03  0.30053890335E+03  0.12509161913E+03 0.  0.
          5    1    3    3  502    0  0.14803349465E+02 -0.35740022192E+02  0.22316918096E+03  0.22653574568E+03  0.41800000000E+01 0. -1.
         -5    1    3    3    0  502 -0.57989151914E+02  0.74364940009E+01  0.45176894112E+02  0.74003157665E+02  0.41800000000E+01 0. -1.
        -11    1    1    2    0    0 -0.26003423279E+02  0.59677581036E+01  0.40437882767E+02  0.48445995930E+02  0.00000000000E+00 0.  1.
         11    1    1    2    0    0  0.69189225729E+02  0.22335770088E+02  0.52843164324E+02  0.89880117925E+02  0.00000000000E+00 0. -1.
</event>
<event>
 7    1  0.2855090E-009  0.1158485E+03  0.7561462E-02  0.1250107E+00
          3   -1    0    0  501    0  0.00000000000E+00  0.00000000000E+00  0.33110684519E+03  0.33110684519E+03  0.00000000000E+00 0. -1.
         -3   -1    0    0    0  501 -0.00000000000E+00 -0.00000000000E+00 -0.12132043481E+03  0.12132043481E+03  0.00000000000E+00 0.  1.
         25    2    1    2    0    0 -0.22110571729E+01 -0.62564558071E+02 -0.66385010847E+02  0.15483017130E+03  0.12508476957E+03 0.  0.
          5    1    3    3  502    0 -0.56422977300E+02 -0.30135172063E+02 -0.14191876403E+01  0.64118386257E+02  0.41800000000E+01 0. -1.
         -5    1    3    3    0  502  0.54211920127E+02 -0.32429386008E+02 -0.64965823207E+02  0.90711785043E+02  0.41800000000E+01 0. -1.
        -11    1    1    2    0    0 -0.31271022310E+02 -0.22304741234E+01  0.42527336285E+02  0.52833949148E+02  0.00000000000E+00 0.  1.
         11    1    1    2    0    0  0.33482079483E+02  0.64795032195E+02  0.23364408494E+03  0.24476315955E+03  0.00000000000E+00 0. -1.
</event>
<event>
 7    1  0.2855090E-009  0.1135023E+03  0.7561462E-02  0.1254218E+00
          1   -1    0    0  501    0  0.00000000000E+00  0.00000000000E+00  0.27677342495E+02  0.27677342495E+02  0.00000000000E+00 0. -1.
         -1   -1    0    0    0  501 -0.00000000000E+00 -0.00000000000E+00 -0.64961706103E+03  0.64961706103E+03  0.00000000000E+00 0.  1.
         25    2    1    2    0    0  0.52854880083E+02  0.36935827382E+02 -0.43284342738E+03  0.45514698643E+03  0.12508977951E+03 0.  0.
          5    1    3    3  502    0  0.75206217692E+02 -0.14723452060E+02 -0.17324729514E+03  0.18948575908E+03  0.41800000000E+01 0.  1.
         -5    1    3    3    0  502 -0.22351337608E+02  0.51659279442E+02 -0.25959613224E+03  0.26566122735E+03  0.41800000000E+01 0.  1.
        -11    1    1    2    0    0 -0.31495960749E+02  0.17008868055E+02 -0.14478020121E+03  0.14913954472E+03  0.00000000000E+00 0.  1.
         11    1    1    2    0    0 -0.21358919335E+02 -0.53944695437E+02 -0.44316089948E+02  0.73007872378E+02  0.00000000000E+00 0. -1.
</event>
<event>
 7    1  0.2855090E-009  0.1060252E+03  0.7561462E-02  0.1268113E+00
         -1   -1    0    0    0  501 -0.00000000000E+00  0.00000000000E+00  0.56013986482E+02  0.56013986482E+02  0.00000000000E+00 0.  1.
          1   -1    0    0  501    0  0.00000000000E+00 -0.00000000000E+00 -0.21967084766E+03  0.21967084766E+03  0.00000000000E+00 0. -1.
         25    2    1    2    0    0  0.57924253318E+01  0.24799299503E+02 -0.87585681854E+02  0.15481509778E+03  0.12509158799E+03 0.  0.
          5    1    3    3  502    0  0.42225032176E+02  0.58460830790E+02 -0.28751848192E+02  0.77748075560E+02  0.41800000000E+01 0. -1.
         -5    1    3    3    0  502 -0.36432606844E+02 -0.33661531287E+02 -0.58833833662E+02  0.77067022217E+02  0.41800000000E+01 0. -1.
        -11    1    1    2    0    0  0.13305963386E+02  0.29561085475E+02 -0.44842849806E+02  0.55333422222E+02  0.00000000000E+00 0. -1.
         11    1    1    2    0    0 -0.19098388718E+02 -0.54360384979E+02 -0.31228329515E+02  0.65536314139E+02  0.00000000000E+00 0.  1.
</event>
<event>
 7    1  0.2855090E-009  0.3313078E+03  0.7561462E-02  0.1070560E+00
         -3   -1    0    0    0  501 -0.00000000000E+00  0.00000000000E+00  0.77016273769E+02  0.77016273769E+02  0.00000000000E+00 0.  1.
          3   -1    0    0  501    0  0.00000000000E+00 -0.00000000000E+00 -0.15577075075E+04  0.15577075075E+04  0.00000000000E+00 0. -1.
         25    2    1    2    0    0  0.31447424353E+03 -0.69210232924E+02 -0.91314234121E+03  0.97630141266E+03  0.12510558290E+03 0.  0.
          5    1    3    3  502    0  0.41982257007E+02 -0.41045003917E+02 -0.80373741904E+02  0.99622352098E+02  0.41800000000E+01 0.  1.
         -5    1    3    3    0  502  0.27249198652E+03 -0.28165229008E+02 -0.83276859930E+03  0.87667906056E+03  0.41800000000E+01 0.  1.
        -11    1    1    2    0    0 -0.10640714940E+03  0.58518890360E+02 -0.16171195058E+03  0.20223179011E+03  0.00000000000E+00 0.  1.
         11    1    1    2    0    0 -0.20806709413E+03  0.10691342564E+02 -0.40583694199E+03  0.45619057854E+03  0.00000000000E+00 0. -1.
</event>
<event>
 7    1  0.2855090E-009  0.1081888E+03  0.7561462E-02  0.1263961E+00
          1   -1    0    0  501    0  0.00000000000E+00  0.00000000000E+00  0.49411940011E+03  0.49411940011E+03  0.00000000000E+00 0. -1.
         -1   -1    0    0    0  501 -0.00000000000E+00 -0.00000000000E+00 -0.34870445595E+02  0.34870445595E+02  0.00000000000E+00 0.  1.
         25    2    1    2    0    0  0.59701683298E+02  0.27463839742E+02  0.18540376109E+03  0.23310642503E+03  0.12508196226E+03 0.  0.
          5    1    3    3  502    0  0.46951736541E+02  0.68377365261E+02  0.65704454513E+02  0.10589842958E+03  0.41800000000E+01 0.  1.
         -5    1    3    3    0  502  0.12749946757E+02 -0.40913525519E+02  0.11969930657E+03  0.12720799545E+03  0.41800000000E+01 0.  1.
        -11    1    1    2    0    0 -0.38847646617E+02  0.16037514679E+02  0.43290860168E+02  0.60336059690E+02  0.00000000000E+00 0.  1.
         11    1    1    2    0    0 -0.20854036680E+02 -0.43501354421E+02  0.23055433326E+03  0.23554736099E+03  0.00000000000E+00 0. -1.
</event>
<event>
 7    1  0.2855090E-009  0.1097091E+03  0.7561462E-02  0.1261110E+00
         -2   -1    0    0    0  501 -0.00000000000E+00  0.00000000000E+00  0.28749918455E+02  0.28749918455E+02  0.00000000000E+00 0.  1.
          2   -1    0    0  501    0  0.00000000000E+00 -0.00000000000E+00 -0.47159679351E+03  0.47159679351E+03  0.00000000000E+00 0. -1.
         25    2    1    2    0    0 -0.19073253333E+01 -0.32881725608E+02 -0.18927322066E+03  0.22925368006E+03  0.12509217399E+03 0.  0.
          5    1    3    3  502    0 -0.25638119338E+02  0.41029470150E+02 -0.49669088293E+02  0.69463812995E+02  0.41800000000E+01 0.  1.
         -5    1    3    3    0  502  0.23730794005E+02 -0.73911195758E+02 -0.13960413237E+03  0.15978986706E+03  0.41800000000E+01 0.  1.
        -11    1    1    2    0    0  0.36706160142E+02  0.43326093643E+02 -0.18458504103E+03  0.19312205973E+03  0.00000000000E+00 0.  1.
         11    1    1    2    0    0 -0.34798834809E+02 -0.10444368035E+02 -0.68988613365E+02  0.77970972174E+02  0.00000000000E+00 0. -1.
</event>
<event>
 7    1  0.2855090E-009  0.1093923E+03  0.7561462E-02  0.1261699E+00
          1   -1    0    0  501    0  0.00000000000E+00  0.00000000000E+00  0.13625173361E+03  0.13625173361E+03  0.00000000000E+00 0. -1.
         -1   -1    0    0    0  501 -0.00000000000E+00 -0.00000000000E+00 -0.12164197175E+03  0.12164197175E+03  0.00000000000E+00 0.  1.
         25    2    1    2    0    0  0.17300833578E+02 -0.53818914634E+02 -0.31413353950E+02  0.14081431527E+03  0.12508428424E+03 0.  0.
          5    1    3    3  502    0  0.86279591384E+01  0.40657515186E+02 -0.39591385486E+01  0.41959771187E+02  0.41800000000E+01 0. -1.
         -5    1    3    3    0  502  0.86728744395E+01 -0.94476429820E+02 -0.27454215402E+02  0.98854544083E+02  0.41800000000E+01 0. -1.
        -11    1    1    2    0    0 -0.77234194655E+01 -0.12687674404E+02 -0.18634400599E+02  0.23830005785E+02  0.00000000000E+00 0.  1.
         11    1    1    2    0    0 -0.95774141124E+01  0.66506589038E+02  0.64657516409E+02  0.93249384312E+02  0.00000000000E+00 0. -1.
</event>
<event>
 7    1  0.2855090E-009  0.1205598E+03  0.7561462E-02  0.1242176E+00
         -1   -1    0    0    0  501 -0.00000000000E+00  0.00000000000E+00  0.10894960296E+03  0.10894960296E+03  0.00000000000E+00 0.  1.
          1   -1    0    0  501    0  0.00000000000E+00 -0.00000000000E+00 -0.18984138705E+03  0.18984138705E+03  0.00000000000E+00 0. -1.
         25    2    1    2    0    0  0.80804489916E+02  0.49023093003E+02 -0.38750389441E+02  0.16148705531E+03  0.12507536573E+03 0.  0.
          5    1    3    3  502    0  0.77490167078E+02 -0.75539467437E+01 -0.62468772939E+02  0.99907998167E+02  0.41800000000E+01 0. -1.
         -5    1    3    3    0  502  0.33143228382E+01  0.56577039747E+02  0.23718383498E+02  0.61579057139E+02  0.41800000000E+01 0. -1.
        -11    1    1    2    0    0 -0.48787113108E+02 -0.12388663893E+01  0.19897576994E+02  0.52703232970E+02  0.00000000000E+00 0.  1.
         11    1    1    2    0    0 -0.32017376808E+02 -0.47784226614E+02 -0.62038971644E+02  0.84600701731E+02  0.00000000000E+00 0. -1.
</event>
<event>
 7    1  0.2855090E-009  0.1496187E+03  0.7561462E-02  0.1200942E+00
          2   -1    0    0  501    0  0.00000000000E+00  0.00000000000E+00  0.36845753157E+03  0.36845753157E+03  0.00000000000E+00 0. -1.
         -2   -1    0    0    0  501 -0.00000000000E+00 -0.00000000000E+00 -0.77420936763E+02  0.77420936763E+02  0.00000000000E+00 0.  1.
         25    2    1    2    0    0  0.74056257278E+02 -0.65641255391E+02  0.50966211541E+02  0.16744091777E+03  0.12508318262E+03 0.  0.
          5    1    3    3  502    0  0.92879867607E+02 -0.89336323671E+02  0.40538398045E+02  0.13516095091E+03  0.41800000000E+01 0. -1.
         -5    1    3    3    0  502 -0.18823610329E+02  0.23695068280E+02  0.10427813496E+02  0.32279966867E+02  0.41800000000E+01 0. -1.
        -11    1    1    2    0    0 -0.73929818516E+02 -0.17824638084E+00  0.10808088671E+03  0.13094704239E+03  0.00000000000E+00 0.  1.
         11    1    1    2    0    0 -0.12643876199E+00  0.65819501772E+02  0.13198949655E+03  0.14749050817E+03  0.00000000000E+00 0. -1.
</event>
<event>
 7    1  0.2855090E-009  0.1457946E+03  0.7561462E-02  0.1205738E+00
         -1   -1    0    0    0  501 -0.00000000000E+00  0.00000000000E+00  0.81601958112E+03  0.81601958112E+03  0.00000000000E+00 0.  1.
          1   -1    0    0  501    0  0.00000000000E+00 -0.00000000000E+00 -0.34456962023E+02  0.34456962023E+02  0.00000000000E+00 0. -1.
         25    2    1    2    0    0 -0.12113913901E+03  0.40669112247E+02  0.41081641447E+03  0.44804717250E+03  0.12508986648E+03 0.  0.
          5    1    3    3  502    0 -0.10729606345E+03  0.71176698630E+02  0.38368629846E+03  0.40473598269E+03  0.41800000000E+01 0.  1.
         -5    1    3    3    0  502 -0.13843075557E+02 -0.30507586382E+02  0.27130116013E+02  0.43311189809E+02  0.41800000000E+01 0.  1.
        -11    1    1    2    0    0  0.89927685251E+02 -0.38163553014E+02  0.35335822261E+03  0.36661352790E+03  0.00000000000E+00 0. -1.
         11    1    1    2    0    0  0.31211453759E+02 -0.25055592332E+01  0.17387982017E+02  0.35815842744E+02  0.00000000000E+00 0.  1.
</event>
<event>
 7    1  0.2855090E-009  0.1121027E+03  0.7561462E-02  0.1256725E+00
          4   -1    0    0  501    0  0.00000000000E+00  0.00000000000E+00  0.45140886706E+02  0.45140886706E+02  0.00000000000E+00 0. -1.
         -4   -1    0    0    0  501 -0.00000000000E+00 -0.00000000000E+00 -0.36047665406E+03  0.36047665406E+03  0.00000000000E+00 0.  1.
         25    2    1    2    0    0  0.62966283434E+01 -0.47858272594E+02 -0.10147038647E+03  0.16814711434E+03  0.12508857241E+03 0.  0.
          5    1    3    3  502    0  0.33200039266E+02 -0.75322732031E+02 -0.99805679384E+02  0.12943879869E+03  0.41800000000E+01 0. -1.
         -5    1    3    3    0  502 -0.26903410923E+02  0.27464459437E+02 -0.16647070827E+01  0.38708315658E+02  0.41800000000E+01 0. -1.
        -11    1    1    2    0    0 -0.35560359618E+02 -0.11131895998E+02 -0.82499687499E+02  0.90524343257E+02  0.00000000000E+00 0.  1.
         11    1    1    2    0    0  0.29263731274E+02  0.58990168592E+02 -0.13136569339E+03  0.14694608317E+03  0.00000000000E+00 0. -1.
</event>
<event>
 7    1  0.2855090E-009  0.1059175E+03  0.7561462E-02  0.1268322E+00
         -1   -1    0    0    0  501 -0.00000000000E+00  0.00000000000E+00  0.23810443296E+02  0.23810443296E+02  0.00000000000E+00 0.  1.
          1   -1    0    0  501    0  0.00000000000E+00 -0.00000000000E+00 -0.52936578114E+03  0.52936578114E+03  0.00000000000E+00 0. -1.
         25    2    1    2    0    0  0.37660370455E+02  0.25246555160E+02 -0.29765557294E+03  0.32604052113E+03  0.12509152356E+03 0.  0.
          5    1    3    3  502    0 -0.37194630145E+02  0.41940272659E+02 -0.12944455906E+03  0.14112332639E+03  0.41800000000E+01 0.  1.
         -5    1    3    3    0  502  0.74855000600E+02 -0.16693717499E+02 -0.16821101389E+03  0.18491719474E+03  0.41800000000E+01 0.  1.
        -11    1    1    2    0    0  0.15952547049E+02 -0.19045810103E+02 -0.13008741947E+03  0.13243852666E+03  0.00000000000E+00 0.  1.
         11    1    1    2    0    0 -0.53612917504E+02 -0.62007450568E+01 -0.77812345436E+02  0.94697176647E+02  0.00000000000E+00 0. -1.
</event>
<event>
 7    1  0.2855090E-009  0.1134834E+03  0.7561462E-02  0.1254252E+00
         -2   -1    0    0    0  501 -0.00000000000E+00  0.00000000000E+00  0.31708185006E+02  0.31708185006E+02  0.00000000000E+00 0.  1.
          2   -1    0    0  501    0  0.00000000000E+00 -0.00000000000E+00 -0.43098059374E+03  0.43098059374E+03  0.00000000000E+00 0. -1.
         25    2    1    2    0    0  0.23194471246E+02 -0.29747878437E+01 -0.25504896532E+03  0.28503360203E+03  0.12508935494E+03 0.  0.
          5    1    3    3  502    0  0.71881399916E+02  0.10140926694E+02 -0.18368617616E+03  0.19755469562E+03  0.41800000000E+01 0. -1.
         -5    1    3    3    0  502 -0.48686928670E+02 -0.13115714538E+02 -0.71362789158E+02  0.87478906416E+02  0.41800000000E+01 0. -1.
        -11    1    1    2    0    0  0.39533020594E+02 -0.69821525461E+01 -0.52537850933E+02  0.66119860497E+02  0.00000000000E+00 0. -1.
         11    1    1    2    0    0 -0.62727491840E+02  0.99569403898E+01 -0.91685592485E+02  0.11153531622E+03  0.00000000000E+00 0.  1.
</event>
<event>
 7    1  0.2855090E-009  0.1285211E+03  0.7561462E-02  0.1229667E+00
          1   -1    0    0  501    0  0.00000000000E+00  0.00000000000E+00  0.11794891556E+03  0.11794891556E+03  0.00000000000E+00 0. -1.
         -1   -1    0    0    0  501 -0.00000000000E+00 -0.00000000000E+00 -0.21279572212E+03  0.21279572212E+03  0.00000000000E+00 0.  1.
         25    2    1    2    0    0 -0.21342072863E+02  0.10501642581E+03 -0.43651228204E+01  0.16473307944E+03  0.12503599243E+03 0.  0.
          5    1    3    3  502    0  0.20051162103E+02  0.34612033155E+02  0.51759596003E+02  0.65548227430E+02  0.41800000000E+01 0.  1.
         -5    1    3    3    0  502 -0.41393234966E+02  0.70404392653E+02 -0.56124718823E+02  0.99184852013E+02  0.41800000000E+01 0.  1.
        -11    1    1    2    0    0  0.32939588728E+02 -0.37896790129E+01 -0.41039847179E+02  0.52760280790E+02  0.00000000000E+00 0. -1.
         11    1    1    2    0    0 -0.11597515865E+02 -0.10122674680E+03 -0.49441836558E+02  0.11325127745E+03  0.00000000000E+00 0.  1.
</event>
<event>
 7    1  0.2855090E-009  0.1019779E+03  0.7561462E-02  0.1276191E+00
         -1   -1    0    0    0  501 -0.00000000000E+00  0.00000000000E+00  0.86909011608E+02  0.86909011608E+02  0.00000000000E+00 0.  1.
          1   -1    0    0  501    0  0.00000000000E+00 -0.00000000000E+00 -0.15241943588E+03  0.15241943588E+03  0.00000000000E+00 0. -1.
         25    2    1    2    0    0 -0.87702985604E+01  0.53442608530E+01  0.28531452042E+01  0.12554294178E+03  0.12508961001E+03 0.  0.
          5    1    3    3  502    0 -0.86408310892E+01  0.59014799960E+02 -0.25146887544E+02  0.64863309578E+02  0.41800000000E+01 0.  1.
         -5    1    3    3    0  502 -0.12946747126E+00 -0.53670539107E+02  0.28000032748E+02  0.60679632199E+02  0.41800000000E+01 0.  1.
        -11    1    1    2    0    0 -0.16462732094E+02  0.37305916127E+02 -0.24269166743E+02  0.47452559262E+02  0.00000000000E+00 0.  1.
         11    1    1    2    0    0  0.25233030654E+02 -0.42650176980E+02 -0.44094402737E+02  0.66332946453E+02  0.00000000000E+00 0. -1.
</event>
<event>
 7    1  0.2855090E-009  0.7109015E+02  0.7561462E-02  0.1356425E+00
          1   -1    0    0  501    0  0.00000000000E+00  0.00000000000E+00  0.51769746780E+02  0.51769746780E+02  0.00000000000E+00 0. -1.
         -1   -1    0    0    0  501 -0.00000000000E+00 -0.00000000000E+00 -0.33929815539E+03  0.33929815539E+03  0.00000000000E+00 0.  1.
         25    2    1    2    0    0 -0.32327000586E+02 -0.57191664762E+02 -0.20390607619E+03  0.24807450694E+03  0.12508937446E+03 0.  0.
          5    1    3    3  502    0 -0.86285909563E+01 -0.33453676402E+02  0.61296656339E+01  0.35336188922E+02  0.41800000000E+01 0. -1.
         -5    1    3    3    0  502 -0.23698409629E+02 -0.23737988360E+02 -0.21003574182E+03  0.21273831802E+03  0.41800000000E+01 0. -1.
        -11    1    1    2    0    0  0.22759809382E+02  0.90474313121E+01 -0.90202690265E+02  0.93468659279E+02  0.00000000000E+00 0.  1.
         11    1    1    2    0    0  0.95671912040E+01  0.48144233450E+02  0.65803578395E+01  0.49524735954E+02  0.00000000000E+00 0. -1.
</event>
<event>
 7    1  0.2855090E-009  0.9371917E+02  0.7561462E-02  0.1294087E+00
         -3   -1    0    0    0  501 -0.00000000000E+00  0.00000000000E+00  0.31928288652E+02  0.31928288652E+02  0.00000000000E+00 0.  1.
          3   -1    0    0  501    0  0.00000000000E+00 -0.00000000000E+00 -0.96619239261E+03  0.96619239261E+03  0.00000000000E+00 0. -1.
         25    2    1    2    0    0 -0.30145204023E+02  0.20287737908E+02 -0.85829553456E+03  0.86812438096E+03  0.12509352713E+03 0.  0.
          5    1    3    3  502    0 -0.68639063311E+02 -0.20522391372E+02 -0.39968800695E+03  0.40607938246E+03  0.41800000000E+01 0.  1.
         -5    1    3    3    0  502  0.38493859288E+02  0.40810129280E+02 -0.45860752761E+03  0.46204499850E+03  0.41800000000E+01 0.  1.
        -11    1    1    2    0    0  0.50416337148E+01 -0.31517685606E+02 -0.92539010275E+02  0.97888972817E+02  0.00000000000E+00 0. -1.
         11    1    1    2    0    0  0.25103570308E+02  0.11229947698E+02  0.16570440878E+02  0.32107327488E+02  0.00000000000E+00 0.  1.
</event>
<event>
 7    1  0.2855090E-009  0.1163805E+03  0.7561462E-02  0.1249190E+00
          2   -1    0    0  501    0  0.00000000000E+00  0.00000000000E+00  0.35900553395E+03  0.35900553395E+03  0.00000000000E+00 0.  1.
         -2   -1    0    0    0  501 -0.00000000000E+00 -0.00000000000E+00 -0.48299035035E+02  0.48299035035E+02  0.00000000000E+00 0. -1.
         25    2    1    2    0    0  0.60070857859E+02 -0.11979990492E+02  0.10681765293E+03  0.17552530627E+03  0.12508834489E+03 0.  0.
          5    1    3    3  502    0  0.31231428045E+02  0.53294377310E+02  0.24713068431E+02  0.66662589972E+02  0.41800000000E+01 0.  1.
         -5    1    3    3    0  502  0.28839429814E+02 -0.65274367803E+02  0.82104584503E+02  0.10886271630E+03  0.41800000000E+01 0.  1.
        -11    1    1    2    0    0 -0.76285250308E+02  0.23097124713E+02  0.19407840436E+03  0.20980787312E+03  0.00000000000E+00 0.  1.
         11    1    1    2    0    0  0.16214392450E+02 -0.11117134221E+02  0.98104416242E+01  0.21971389593E+02  0.00000000000E+00 0. -1.
</event>
<event>
 7    1  0.2855090E-009  0.1098803E+03  0.7561462E-02  0.1260792E+00
          3   -1    0    0  501    0  0.00000000000E+00  0.00000000000E+00  0.17564898194E+03  0.17564898194E+03  0.00000000000E+00 0. -1.
         -3   -1    0    0    0  501 -0.00000000000E+00 -0.00000000000E+00 -0.13265400824E+03  0.13265400824E+03  0.00000000000E+00 0.  1.
         25    2    1    2    0    0  0.70204441117E+02 -0.79312976647E+02  0.42397796882E+02  0.16930331718E+03  0.12508728236E+03 0.  0.
          5    1    3    3  502    0  0.48108021579E+02 -0.59573406069E+02  0.86759508953E+02  0.11579316579E+03  0.41800000000E+01 0.  1.
         -5    1    3    3    0  502  0.22096419537E+02 -0.19739570578E+02 -0.44361712072E+02  0.53510151382E+02  0.41800000000E+01 0.  1.
        -11    1    1    2    0    0 -0.56331141245E+02  0.34078943767E+02  0.40336408582E+02  0.77211383484E+02  0.00000000000E+00 0. -1.
         11    1    1    2    0    0 -0.13873299872E+02  0.45234032880E+02 -0.39739231772E+02  0.61788289520E+02  0.00000000000E+00 0.  1.
</event>
<event>
 7    1  0.2855090E-009  0.1462074E+03  0.7561462E-02  0.1205212E+00
         -2   -1    0    0    0  501 -0.00000000000E+00  0.00000000000E+00  0.26271472681E+02  0.26271472681E+02  0.00000000000E+00 0.  1.
          2   -1    0    0  501    0  0.00000000000E+00 -0.00000000000E+00 -0.14074645626E+04  0.14074645626E+04  0.00000000000E+00 0. -1.
         25    2    1    2    0    0  0.89530349571E+01 -0.10974241628E+03 -0.11496749750E+04  0.11616902800E+04  0.12509278025E+03 0.  0.
          5    1    3    3  502    0  0.64706011399E+02 -0.37668985997E+02 -0.47686293895E+03  0.48272306280E+03  0.41800000000E+01 0.  1.
         -5    1    3    3    0  502 -0.55752976442E+02 -0.72073430281E+02 -0.67281203604E+03  0.67896721715E+03  0.41800000000E+01 0.  1.
        -11    1    1    2    0    0  0.14613938486E+02  0.67972631530E+00  0.45034394397E+00  0.14636667504E+02  0.00000000000E+00 0.  1.
         11    1    1    2    0    0 -0.23566973444E+02  0.10906268996E+03 -0.23196845887E+03  0.25740908782E+03  0.00000000000E+00 0. -1.
</event>
<event>
 7    1  0.2855090E-009  0.1153186E+03  0.7561462E-02  0.1251026E+00
          2   -1    0    0  501    0  0.00000000000E+00  0.00000000000E+00  0.52918320504E+02  0.52918320504E+02  0.00000000000E+00 0.  1.
         -2   -1    0    0    0  501 -0.00000000000E+00 -0.00000000000E+00 -0.27835387096E+03  0.27835387096E+03  0.00000000000E+00 0. -1.
         25    2    1    2    0    0  0.32442189969E+02 -0.44807831519E+02 -0.14737836409E+03  0.20106789777E+03  0.12509068652E+03 0.  0.
          5    1    3    3  502    0 -0.40897082962E+02 -0.14681525416E+01 -0.15391427578E+02  0.43921467525E+02  0.41800000000E+01 0. -1.
         -5    1    3    3    0  502  0.73339272931E+02 -0.43339678977E+02 -0.13198693651E+03  0.15714643024E+03  0.41800000000E+01 0. -1.
        -11    1    1    2    0    0 -0.19874851562E+02 -0.25757961892E+02 -0.24741699642E+02  0.40873390202E+02  0.00000000000E+00 0.  1.
         11    1    1    2    0    0 -0.12567338406E+02  0.70565793411E+02 -0.53315486724E+02  0.89330903493E+02  0.00000000000E+00 0. -1.
</event>
<event>
 7    1  0.2855090E-009  0.8623797E+02  0.7561462E-02  0.1312227E+00
         -1   -1    0    0    0  501 -0.00000000000E+00  0.00000000000E+00  0.56718941426E+03  0.56718941426E+03  0.00000000000E+00 0.  1.
          1   -1    0    0  501    0  0.00000000000E+00 -0.00000000000E+00 -0.34235590526E+02  0.34235590526E+02  0.00000000000E+00 0. -1.
         25    2    1    2    0    0  0.42981986949E+02  0.72154141038E+01  0.45217522927E+03  0.47117892097E+03  0.12509046406E+03 0.  0.
          5    1    3    3  502    0  0.50633786051E+02 -0.27107964973E+02  0.87255095116E+02  0.10454446938E+03  0.41800000000E+01 0. -1.
         -5    1    3    3    0  502 -0.76517991020E+01  0.34323379077E+02  0.36492013415E+03  0.36663445159E+03  0.41800000000E+01 0. -1.
        -11    1    1    2    0    0 -0.49063893569E+02  0.18963227620E+02  0.87905421251E+02  0.10244136244E+03  0.00000000000E+00 0.  1.
         11    1    1    2    0    0  0.60819066201E+01 -0.26178641724E+02 -0.71268267854E+01  0.27804721374E+02  0.00000000000E+00 0. -1.
</event>
<event>
 7    1  0.2855090E-009  0.1325432E+03  0.7561462E-02  0.1223730E+00
          1   -1    0    0  501    0  0.00000000000E+00  0.00000000000E+00  0.61784956746E+02  0.61784956746E+02  0.00000000000E+00 0. -1.
         -1   -1    0    0    0  501 -0.00000000000E+00 -0.00000000000E+00 -0.35930358142E+03  0.35930358142E+03  0.00000000000E+00 0.  1.
         25    2    1    2    0    0  0.67414710623E+02  0.70772343531E+02 -0.20225161917E+03  0.25711160321E+03  0.12508873342E+03 0.  0.
          5    1    3    3  502    0 -0.34015502449E+02 -0.12156539340E+01 -0.44456449546E+02  0.56146064222E+02  0.41800000000E+01 0.  1.
         -5    1    3    3    0  502  0.10143021307E+03  0.71987997465E+02 -0.15779516962E+03  0.20096553898E+03  0.41800000000E+01 0.  1.
        -11    1    1    2    0    0 -0.61311654537E+02 -0.36125104159E+02 -0.10158937923E+02  0.71884255246E+02  0.00000000000E+00 0. -1.
         11    1    1    2    0    0 -0.61030560864E+01 -0.34647239372E+02 -0.85108067586E+02  0.92092679720E+02  0.00000000000E+00 0.  1.
</event>
<event>
 7    1  0.2855090E-009  0.6849222E+02  0.7561462E-02  0.1365297E+00
         -2   -1    0    0    0  501 -0.00000000000E+00  0.00000000000E+00  0.56813248135E+02  0.56813248135E+02  0.00000000000E+00 0. -1.
          2   -1    0    0  501    0  0.00000000000E+00 -0.00000000000E+00 -0.23215979646E+03  0.23215979646E+03  0.00000000000E+00 0.  1.
         25    2    1    2    0    0  0.29261315439E+02 -0.27322076192E+02 -0.10831779997E+03  0.17024384713E+03  0.12508997268E+03 0.  0.
          5    1    3    3  502    0  0.39336503413E+02 -0.48133962597E+02 -0.30419164339E+01  0.62377596231E+02  0.41800000000E+01 0.  1.
         -5    1    3    3    0  502 -0.10075187974E+02  0.20811886405E+02 -0.10527588353E+03  0.10786625089E+03  0.41800000000E+01 0.  1.
        -11    1    1    2    0    0 -0.34626297060E+02  0.14982915662E+02  0.11196539709E+02  0.39355186586E+02  0.00000000000E+00 0. -1.
         11    1    1    2    0    0  0.53649816206E+01  0.12339160530E+02 -0.78225288070E+02  0.79374010885E+02  0.00000000000E+00 0.  1.
</event>
<event>
 7    1  0.2855090E-009  0.1036073E+03  0.7561462E-02  0.1272888E+00
         -1   -1    0    0    0  501 -0.00000000000E+00  0.00000000000E+00  0.58704875257E+02  0.58704875257E+02  0.00000000000E+00 0.  1.
          1   -1    0    0  501    0  0.00000000000E+00 -0.00000000000E+00 -0.23650226202E+03  0.23650226202E+03  0.00000000000E+00 0. -1.
         25    2    1    2    0    0  0.19368993304E+01 -0.16005739641E+02 -0.42918663038E+02  0.13322283999E+03  0.12508548348E+03 0.  0.
          5    1    3    3  502    0 -0.39348251963E+02  0.38297232701E+02 -0.32906704610E+02  0.64150499401E+02  0.41800000000E+01 0. -1.
         -5    1    3    3    0  502  0.41285151294E+02 -0.54302972342E+02 -0.10011958428E+02  0.69072340586E+02  0.41800000000E+01 0. -1.
        -11    1    1    2    0    0  0.40115116509E+02  0.98207971912E+01 -0.95476139871E+02  0.10402578485E+03  0.00000000000E+00 0.  1.
         11    1    1    2    0    0 -0.42052015840E+02  0.61849424497E+01 -0.39402583850E+02  0.57958512432E+02  0.00000000000E+00 0. -1.
</event>
<event>
 7    1  0.2855090E-009  0.2082716E+03  0.7561462E-02  0.1142942E+00
         -2   -1    0    0    0  501 -0.00000000000E+00  0.00000000000E+00  0.57644694530E+02  0.57644694530E+02  0.00000000000E+00 0.  1.
          2   -1    0    0  501    0  0.00000000000E+00 -0.00000000000E+00 -0.10379890912E+04  0.10379890912E+04  0.00000000000E+00 0. -1.
         25    2    1    2    0    0 -0.92245577777E+02 -0.17751507315E+03 -0.70925766126E+03  0.74747316939E+03  0.12509540797E+03 0.  0.
          5    1    3    3  502    0 -0.20913517383E+02 -0.18899189337E+02 -0.15916604263E+02  0.32639933489E+02  0.41800000000E+01 0.  1.
         -5    1    3    3    0  502 -0.71332060394E+02 -0.15861588382E+03 -0.69334105699E+03  0.71483323590E+03  0.41800000000E+01 0.  1.
        -11    1    1    2    0    0  0.10218300225E+03  0.12905163459E+03 -0.17604188321E+03  0.24101127564E+03  0.00000000000E+00 0.  1.
         11    1    1    2    0    0 -0.99374244748E+01  0.48463438563E+02 -0.95044852212E+02  0.10714934071E+03  0.00000000000E+00 0. -1.
</event>
<event>
 7    1  0.2855090E-009  0.1069434E+03  0.7561462E-02  0.1266337E+00
         -2   -1    0    0    0  501 -0.00000000000E+00  0.00000000000E+00  0.90629662765E+02  0.90629662765E+02  0.00000000000E+00 0.  1.
          2   -1    0    0  501    0  0.00000000000E+00 -0.00000000000E+00 -0.23443071609E+03  0.23443071609E+03  0.00000000000E+00 0. -1.
         25    2    1    2    0    0  0.25211463931E+02  0.82595524106E+02 -0.27019336551E+02  0.15438487591E+03  0.12508799641E+03 0.  0.
          5    1    3    3  502    0 -0.87505874630E+01  0.68057029507E+02 -0.69621190270E+02  0.97841272380E+02  0.41800000000E+01 0. -1.
         -5    1    3    3    0  502  0.33962051394E+02  0.14538494598E+02  0.42601853719E+02  0.56543603532E+02  0.41800000000E+01 0. -1.
        -11    1    1    2    0    0  0.39152952919E+01 -0.78444939211E+02 -0.39361845783E+02  0.87853815674E+02  0.00000000000E+00 0.  1.
         11    1    1    2    0    0 -0.29126759223E+02 -0.41505848949E+01 -0.77419870990E+02  0.82821687268E+02  0.00000000000E+00 0. -1.
</event>
<event>
 7    1  0.2855090E-009  0.1441703E+03  0.7561462E-02  0.1207825E+00
         -1   -1    0    0    0  501 -0.00000000000E+00  0.00000000000E+00  0.35366872065E+02  0.35366872065E+02  0.00000000000E+00 0.  1.
          1   -1    0    0  501    0  0.00000000000E+00 -0.00000000000E+00 -0.84581330688E+03  0.84581330688E+03  0.00000000000E+00 0. -1.
         25    2    1    2    0    0  0.39486963146E+02  0.10910182593E+03 -0.59164073284E+03  0.61575023722E+03  0.12508864538E+03 0.  0.
          5    1    3    3  502    0 -0.15306866790E+02 -0.22615311450E+02 -0.10931126736E+03  0.11274829513E+03  0.41800000000E+01 0.  1.
         -5    1    3    3    0  502  0.54793829935E+02  0.13171713738E+03 -0.48232946548E+03  0.50300194209E+03  0.41800000000E+01 0.  1.
        -11    1    1    2    0    0 -0.18695558615E+02 -0.80443043014E+02 -0.21439287919E+03  0.22974967623E+03  0.00000000000E+00 0. -1.
         11    1    1    2    0    0 -0.20791404531E+02 -0.28658782912E+02 -0.44128227800E+01  0.35680265487E+02  0.00000000000E+00 0.  1.
</event>
<event>
 7    1  0.2855090E-009  0.8572792E+02  0.7561462E-02  0.1313540E+00
          2   -1    0    0  501    0  0.00000000000E+00  0.00000000000E+00  0.37448443512E+02  0.37448443512E+02  0.00000000000E+00 0. -1.
         -2   -1    0    0    0  501 -0.00000000000E+00 -0.00000000000E+00 -0.38369460994E+03  0.38369460994E+03  0.00000000000E+00 0.  1.
         25    2    1    2    0    0 -0.25045409223E+02 -0.53769033108E+01 -0.27569770361E+03  0.30383063868E+03  0.12509056563E+03 0.  0.
          5    1    3    3  502    0 -0.19437877475E+02  0.51933127879E+02 -0.65868520201E+02  0.86203336394E+02  0.41800000000E+01 0. -1.
         -5    1    3    3    0  502 -0.56075317481E+01 -0.57310031190E+02 -0.20982918341E+03  0.21762730228E+03  0.41800000000E+01 0. -1.
        -11    1    1    2    0    0  0.37649728206E+02  0.16682222547E+02 -0.85387272936E+02  0.94798654856E+02  0.00000000000E+00 0.  1.
         11    1    1    2    0    0 -0.12604318983E+02 -0.11305319236E+02  0.14838810119E+02  0.22513759922E+02  0.00000000000E+00 0. -1.
</event>
<event>
 7    1  0.2855090E-009  0.2756549E+03  0.7561462E-02  0.1098086E+00
         -1   -1    0    0    0  501 -0.00000000000E+00  0.00000000000E+00  0.60559563808E+02  0.60559563808E+02  0.00000000000E+00 0.  1.
          1   -1    0    0  501    0  0.00000000000E+00 -0.00000000000E+00 -0.13665237666E+04  0.13665237666E+04  0.00000000000E+00 0. -1.
         25    2    1    2    0    0  0.99479554102E+02 -0.24285478564E+03 -0.77892460708E+03  0.83141152655E+03  0.12508778668E+03 0.  0.
          5    1    3    3  502    0  0.68767036779E+02 -0.32398892219E+02 -0.16612210071E+03  0.18273647230E+03  0.41800000000E+01 0.  1.
         -5    1    3    3    0  502  0.30712517323E+02 -0.21045589342E+03 -0.61280250636E+03  0.64867505425E+03  0.41800000000E+01 0.  1.
        -11    1    1    2    0    0 -0.21126129931E+02  0.48919318053E+02 -0.20387045098E+03  0.21071918239E+03  0.00000000000E+00 0.  1.
         11    1    1    2    0    0 -0.78353424171E+02  0.19393546759E+03 -0.32316914474E+03  0.38495262148E+03  0.00000000000E+00 0. -1.
</event>
<event>
 7    1  0.2855090E-009  0.1070885E+03  0.7561462E-02  0.1266058E+00
         -2   -1    0    0    0  501 -0.00000000000E+00  0.00000000000E+00  0.67030232963E+02  0.67030232963E+02  0.00000000000E+00 0.  1.
          2   -1    0    0  501    0  0.00000000000E+00 -0.00000000000E+00 -0.33212312702E+03  0.33212312702E+03  0.00000000000E+00 0. -1.
         25    2    1    2    0    0  0.61766302864E+02 -0.80105096427E+02 -0.13749562961E+03  0.21162569755E+03  0.12509390495E+03 0.  0.
          5    1    3    3  502    0  0.35290582782E+02 -0.73546505252E+02 -0.11314054095E+02  0.82462075452E+02  0.41800000000E+01 0.  1.
         -5    1    3    3    0  502  0.26475720082E+02 -0.65585911748E+01 -0.12618157552E+03  0.12916362209E+03  0.41800000000E+01 0.  1.
        -11    1    1    2    0    0 -0.35915845100E+02  0.66761376383E+02 -0.23389383012E+02  0.79335317126E+02  0.00000000000E+00 0.  1.
         11    1    1    2    0    0 -0.25850457764E+02  0.13343720044E+02 -0.10420788143E+03  0.10819234531E+03  0.00000000000E+00 0. -1.
</event>
<event>
 7    1  0.2855090E-009  0.1292806E+03  0.7561462E-02  0.1228527E+00
          2   -1    0    0  501    0  0.00000000000E+00  0.00000000000E+00  0.22264207925E+02  0.22264207925E+02  0.00000000000E+00 0. -1.
         -2   -1    0    0    0  501 -0.00000000000E+00 -0.00000000000E+00 -0.86617990357E+03  0.86617990357E+03  0.00000000000E+00 0.  1.
         25    2    1    2    0    0  0.21260342661E+02  0.83227493979E+02 -0.48778862858E+03  0.51084665502E+03  0.12509093034E+03 0.  0.
          5    1    3    3  502    0  0.56263808171E+02  0.47517617333E+01 -0.11400236942E+03  0.12728789409E+03  0.41800000000E+01 0. -1.
         -5    1    3    3    0  502 -0.35003465510E+02  0.78475732245E+02 -0.37378625916E+03  0.38355876093E+03  0.41800000000E+01 0. -1.
        -11    1    1    2    0    0 -0.32394694982E+02 -0.94602477626E+02 -0.34198774332E+03  0.35630697666E+03  0.00000000000E+00 0. -1.
         11    1    1    2    0    0  0.11134352320E+02  0.11374983647E+02 -0.14139323745E+02  0.21290479810E+02  0.00000000000E+00 0.  1.
</event>
<event>
 7    1  0.2855090E-009  0.2061752E+03  0.7561462E-02  0.1144631E+00
         -1   -1    0    0    0  501 -0.00000000000E+00  0.00000000000E+00  0.10494185214E+04  0.10494185214E+04  0.00000000000E+00 0.  1.
          1   -1    0    0  501    0  0.00000000000E+00 -0.00000000000E+00 -0.54794607907E+02  0.54794607907E+02  0.00000000000E+00 0. -1.
         25    2    1    2    0    0 -0.17660493968E+03 -0.85777012298E+02  0.70868513214E+03  0.74594165684E+03  0.12508932143E+03 0.  0.
          5    1    3    3  502    0 -0.18450457613E+03 -0.69083220905E+02  0.69547443470E+03  0.72285309140E+03  0.41800000000E+01 0. -1.
         -5    1    3    3    0  502  0.78996364534E+01 -0.16693791393E+02  0.13210697433E+02  0.23088565435E+02  0.41800000000E+01 0. -1.
        -11    1    1    2    0    0  0.16531343051E+03  0.79471204974E+02  0.29132698731E+03  0.34426097116E+03  0.00000000000E+00 0.  1.
         11    1    1    2    0    0  0.11291509172E+02  0.63058073242E+01 -0.53882059091E+01  0.14010501358E+02  0.00000000000E+00 0. -1.
</event>
<event>
 7    1  0.2855090E-009  0.1389071E+03  0.7561462E-02  0.1214807E+00
          2   -1    0    0  501    0  0.00000000000E+00  0.00000000000E+00  0.29326925792E+03  0.29326925792E+03  0.00000000000E+00 0.  1.
         -2   -1    0    0    0  501 -0.00000000000E+00 -0.00000000000E+00 -0.76107089236E+02  0.76107089236E+02  0.00000000000E+00 0. -1.
         25    2    1    2    0    0 -0.52785259941E+02  0.82229996499E+02  0.15296657678E+03  0.22044142047E+03  0.12509032839E+03 0.  0.
          5    1    3    3  502    0  0.37554535967E+02  0.24947805332E+02  0.19377528799E+02  0.49251367341E+02  0.41800000000E+01 0.  1.
         -5    1    3    3    0  502 -0.90339795908E+02  0.57282191167E+02  0.13358904798E+03  0.17119005313E+03  0.41800000000E+01 0.  1.
        -11    1    1    2    0    0 -0.25441632317E+01  0.14135991790E+02 -0.79807774453E+01  0.16431428394E+02  0.00000000000E+00 0. -1.
         11    1    1    2    0    0  0.55329423173E+02 -0.96365988289E+02  0.72176369349E+02  0.13250349829E+03  0.00000000000E+00 0.  1.
</event>
<event>
 7    1  0.2855090E-009  0.9131458E+02  0.7561462E-02  0.1299699E+00
         -2   -1    0    0    0  501 -0.00000000000E+00  0.00000000000E+00  0.12981314697E+02  0.12981314697E+02  0.00000000000E+00 0.  1.
          2   -1    0    0  501    0  0.00000000000E+00 -0.00000000000E+00 -0.16360878316E+04  0.16360878316E+04  0.00000000000E+00 0. -1.
         25    2    1    2    0    0 -0.91782026116E+01 -0.25410778148E+02 -0.14191104673E+04  0.14248691679E+04  0.12509068805E+03 0.  0.
          5    1    3    3  502    0 -0.48088155728E+02  0.14156676566E+02 -0.28579106582E+03  0.29018423099E+03  0.41800000000E+01 0.  1.
         -5    1    3    3    0  502  0.38909953117E+02 -0.39567454714E+02 -0.11333194014E+04  0.11346849369E+04  0.41800000000E+01 0.  1.
        -11    1    1    2    0    0  0.36884253660E+02 -0.29820522564E+01 -0.36157916136E+02  0.51737179117E+02  0.00000000000E+00 0.  1.
         11    1    1    2    0    0 -0.27706051048E+02  0.28392830404E+02 -0.16783813347E+03  0.17246279926E+03  0.00000000000E+00 0. -1.
</event>
<event>
 7    1  0.2855090E-009  0.1194502E+03  0.7561462E-02  0.1244007E+00
         -1   -1    0    0    0  501 -0.00000000000E+00  0.00000000000E+00  0.27888389586E+03  0.27888389586E+03  0.00000000000E+00 0.  1.
          1   -1    0    0  501    0  0.00000000000E+00 -0.00000000000E+00 -0.11242775714E+03  0.11242775714E+03  0.00000000000E+00 0. -1.
         25    2    1    2    0    0  0.54033167109E+02  0.10414240546E+03  0.16844046599E+03  0.24038302533E+03  0.12508630829E+03 0.  0.
          5    1    3    3  502    0  0.27096230184E+02  0.64265728909E+02  0.17792972056E+03  0.19115634297E+03  0.41800000000E+01 0.  1.
         -5    1    3    3    0  502  0.26936936926E+02  0.39876676546E+02 -0.94892545688E+01  0.49226682354E+02  0.41800000000E+01 0.  1.
        -11    1    1    2    0    0 -0.57012472643E+01 -0.40051247241E+02  0.42894758670E+02  0.58962419788E+02  0.00000000000E+00 0.  1.
         11    1    1    2    0    0 -0.48331919845E+02 -0.64091158214E+02 -0.44879085936E+02  0.91966207878E+02  0.00000000000E+00 0. -1.
</event>
<event>
 7    1  0.2855090E-009  0.1125369E+03  0.7561462E-02  0.1255943E+00
          1   -1    0    0  501    0  0.00000000000E+00  0.00000000000E+00  0.36250536319E+03  0.36250536319E+03  0.00000000000E+00 0. -1.
         -1   -1    0    0    0  501 -0.00000000000E+00 -0.00000000000E+00 -0.51035630603E+02  0.51035630603E+02  0.00000000000E+00 0.  1.
         25    2    1    2    0    0  0.57117866721E+01 -0.45455217872E+02  0.27604700177E+03  0.30650777560E+03  0.12508504297E+03 0.  0.
          5    1    3    3  502    0  0.12370908118E+02  0.42673176954E+02  0.86855515485E+02  0.97649333685E+02  0.41800000000E+01 0.  1.
         -5    1    3    3    0  502 -0.66591214460E+01 -0.88128394827E+02  0.18919148629E+03  0.20885844191E+03  0.41800000000E+01 0.  1.
        -11    1    1    2    0    0 -0.32798877790E+02 -0.64445393605E+01 -0.77256104684E+01  0.34307193546E+02  0.00000000000E+00 0.  1.
         11    1    1    2    0    0  0.27087091118E+02  0.51899757233E+02  0.43148341281E+02  0.72726024650E+02  0.00000000000E+00 0. -1.
</event>
<event>
 7    1  0.2855090E-009  0.8966136E+02  0.7561462E-02  0.1303674E+00
         -2   -1    0    0    0  501 -0.00000000000E+00  0.00000000000E+00  0.10819755137E+03  0.10819755137E+03  0.00000000000E+00 0.  1.
          2   -1    0    0  501    0  0.00000000000E+00 -0.00000000000E+00 -0.15658291581E+03  0.15658291581E+03  0.00000000000E+00 0. -1.
         25    2    1    2    0    0  0.33611171321E+02 -0.45677494257E+02 -0.72427229722E+02  0.15527405141E+03  0.12509269809E+03 0.  0.
          5    1    3    3  502    0 -0.15674201959E+02 -0.14773851328E+01 -0.86031161188E+02  0.87559673191E+02  0.41800000000E+01 0. -1.
         -5    1    3    3    0  502  0.49285373280E+02 -0.44200109124E+02  0.13603931466E+02  0.67714378216E+02  0.41800000000E+01 0. -1.
        -11    1    1    2    0    0 -0.13705134547E+02 -0.22130383959E+02  0.28622303486E+02  0.38688769222E+02  0.00000000000E+00 0.  1.
         11    1    1    2    0    0 -0.19906036774E+02  0.67807878216E+02 -0.45804381996E+01  0.70817646546E+02  0.00000000000E+00 0. -1.
</event>
<event>
 7    1  0.2855090E-009  0.8602320E+02  0.7561462E-02  0.1312778E+00
         -1   -1    0    0    0  501 -0.00000000000E+00  0.00000000000E+00  0.38745966422E+02  0.38745966422E+02  0.00000000000E+00 0.  1.
          1   -1    0    0  501    0  0.00000000000E+00 -0.00000000000E+00 -0.44547314236E+03  0.44547314236E+03  0.00000000000E+00 0. -1.
         25    2    1    2    0    0 -0.24163050659E+02  0.65422790014E+02 -0.18529265465E+03  0.23418823709E+03  0.12508704191E+03 0.  0.
          5    1    3    3  502    0 -0.37719805815E+02  0.27952702296E+01 -0.16115570592E+03  0.16558753346E+03  0.41800000000E+01 0.  1.
         -5    1    3    3    0  502  0.13556755156E+02  0.62627519785E+02 -0.24136948731E+02  0.68600703632E+02  0.41800000000E+01 0.  1.
        -11    1    1    2    0    0  0.14866148055E+02 -0.37035395193E+02 -0.21601720780E+03  0.21967261304E+03  0.00000000000E+00 0. -1.
         11    1    1    2    0    0  0.92969026032E+01 -0.28387394822E+02 -0.54173134871E+01  0.30358258649E+02  0.00000000000E+00 0.  1.
</event>
<event>
 7    1  0.2855090E-009  0.8552481E+02  0.7561462E-02  0.1314066E+00
         -2   -1    0    0    0  501 -0.00000000000E+00  0.00000000000E+00  0.54485360077E+02  0.54485360077E+02  0.00000000000E+00 0.  1.
          2   -1    0    0  501    0  0.00000000000E+00 -0.00000000000E+00 -0.23486823039E+03  0.23486823039E+03  0.00000000000E+00 0. -1.
         25    2    1    2    0    0 -0.28550657431E+02  0.59460678003E+01 -0.11577848360E+03  0.17292738794E+03  0.12509487788E+03 0.  0.
          5    1    3    3  502    0 -0.43388842689E+02 -0.18123518411E+02  0.62290566265E+01  0.47616458667E+02  0.41800000000E+01 0. -1.
         -5    1    3    3    0  502  0.14838185259E+02  0.24069586211E+02 -0.12200754023E+03  0.12531092927E+03  0.41800000000E+01 0. -1.
        -11    1    1    2    0    0  0.51852194760E+02  0.24147359800E+02 -0.28256845382E+02  0.63798075188E+02  0.00000000000E+00 0.  1.
         11    1    1    2    0    0 -0.23301537330E+02 -0.30093427600E+02 -0.36347541328E+02  0.52628127339E+02  0.00000000000E+00 0. -1.
</event>
<event>
 7    1  0.2855090E-009  0.9718877E+02  0.7561462E-02  0.1286321E+00
          1   -1    0    0  501    0  0.00000000000E+00  0.00000000000E+00  0.22137443918E+03  0.22137443918E+03  0.00000000000E+00 0. -1.
         -1   -1    0    0    0  501 -0.00000000000E+00 -0.00000000000E+00 -0.81740958362E+02  0.81740958362E+02  0.00000000000E+00 0.  1.
         25    2    1    2    0    0  0.19427652970E+02  0.76525762538E+02  0.75562814156E+02  0.16610367154E+03  0.12508822800E+03 0.  0.
          5    1    3    3  502    0  0.41127420040E+02  0.49081684528E+02 -0.17566011760E+02  0.66532049452E+02  0.41800000000E+01 0. -1.
         -5    1    3    3    0  502 -0.21699767070E+02  0.27444078011E+02  0.93128825916E+02  0.99571622088E+02  0.41800000000E+01 0. -1.
        -11    1    1    2    0    0 -0.67286460157E+00 -0.76210531159E+02  0.65321162165E+01  0.76492916983E+02  0.00000000000E+00 0.  1.
         11    1    1    2    0    0 -0.18754788368E+02 -0.31523137894E+00  0.57538550449E+02  0.60518809021E+02  0.00000000000E+00 0. -1.
</event>
<event>
 7    1  0.2855090E-009  0.1823378E+03  0.7561462E-02  0.1165560E+00
          1   -1    0    0  501    0  0.00000000000E+00  0.00000000000E+00  0.22641732776E+04  0.22641732776E+04  0.00000000000E+00 0. -1.
         -1   -1    0    0    0  501 -0.00000000000E+00 -0.00000000000E+00 -0.19517077235E+02  0.19517077235E+02  0.00000000000E+00 0.  1.
         25    2    1    2    0    0  0.52325281825E+02 -0.15458849858E+03  0.15735636282E+04  0.15869423855E+04  0.12509238082E+03 0.  0.
          5    1    3    3  502    0  0.78526437461E+02 -0.15593063918E+03  0.14547553575E+04  0.14652001188E+04  0.41800000000E+01 0.  1.
         -5    1    3    3    0  502 -0.26201155636E+02  0.13421406009E+01  0.11880827073E+03  0.12174226666E+03  0.41800000000E+01 0.  1.
        -11    1    1    2    0    0 -0.25539635382E+01  0.16307547397E+02  0.95342166655E+01  0.19062007221E+02  0.00000000000E+00 0.  1.
         11    1    1    2    0    0 -0.49771318287E+02  0.13828095118E+03  0.66155835550E+03  0.67768596217E+03  0.00000000000E+00 0. -1.
</event>
<event>
 7    1  0.2855090E-009  0.1101178E+03  0.7561462E-02  0.1260352E+00
          1   -1    0    0  501    0  0.00000000000E+00  0.00000000000E+00  0.44549021472E+03  0.44549021472E+03  0.00000000000E+00 0. -1.
         -1   -1    0    0    0  501 -0.00000000000E+00 -0.00000000000E+00 -0.46113566985E+02  0.46113566985E+02  0.00000000000E+00 0.  1.
         25    2    1    2    0    0 -0.81583604214E+02 -0.15516840698E+02  0.29409440812E+03  0.33020615740E+03  0.12509168109E+03 0.  0.
          5    1    3    3  502    0 -0.52347249597E+02  0.42216592816E+02  0.71019551845E+02  0.97896498373E+02  0.41800000000E+01 0.  1.
         -5    1    3    3    0  502 -0.29236354616E+02 -0.57733433514E+02  0.22307485627E+03  0.23230965903E+03  0.41800000000E+01 0.  1.
        -11    1    1    2    0    0  0.73468672900E+02  0.35573109269E+01  0.21862377233E+02  0.76735023927E+02  0.00000000000E+00 0.  1.
         11    1    1    2    0    0  0.81149313133E+01  0.11959529771E+02  0.83419862385E+02  0.84662600379E+02  0.00000000000E+00 0. -1.
</event>
<event>
 7    1  0.2855090E-009  0.2529287E+03  0.7561462E-02  0.1111468E+00
         -1   -1    0    0    0  501 -0.00000000000E+00  0.00000000000E+00  0.82381692578E+03  0.82381692578E+03  0.00000000000E+00 0.  1.
          1   -1    0    0  501    0  0.00000000000E+00 -0.00000000000E+00 -0.87094993647E+02  0.87094993647E+02  0.00000000000E+00 0. -1.
         25    2    1    2    0    0 -0.62931017031E+02  0.23520147324E+03  0.42035145781E+03  0.50161842891E+03  0.12508258959E+03 0.  0.
          5    1    3    3  502    0 -0.12562342799E+02  0.19753328421E+03  0.37470920614E+03  0.42379437513E+03  0.41800000000E+01 0.  1.
         -5    1    3    3    0  502 -0.50368674232E+02  0.37668189035E+02  0.45642251672E+02  0.77824053780E+02  0.41800000000E+01 0.  1.
        -11    1    1    2    0    0  0.15082996485E+02 -0.10603108486E+03  0.20826955542E+03  0.23419285953E+03  0.00000000000E+00 0.  1.
         11    1    1    2    0    0  0.47848020546E+02 -0.12917038838E+03  0.10810091890E+03  0.17510063098E+03  0.00000000000E+00 0. -1.
</event>
<event>
 6    1  0.2855090E-009  0.1005245E+03  0.7561462E-02  0.1279197E+00
          2   -1    0    0  501    0  0.00000000000E+00  0.00000000000E+00  0.13397561067E+04  0.13397561067E+04  0.00000000000E+00 0. -1.
         -2   -1    0    0    0  501 -0.00000000000E+00 -0.00000000000E+00 -0.99330373903E+01  0.99330373903E+01  0.00000000000E+00 0.  1.
          5    1    1    2  502    0  0.36699690957E+02  0.30883903807E+02  0.68398044312E+03  0.68567295542E+03  0.41800000000E+01 0. -1.
         -5    1    1    2    0  502 -0.41919145518E+02 -0.42443731969E+02  0.26974177651E+03  0.27629112099E+03  0.41800000000E+01 0. -1.
        -11    1    1    2    0    0  0.48767985922E+02  0.78340563323E+01  0.16942256332E+03  0.17647575996E+03  0.00000000000E+00 0.  1.
         11    1    1    2    0    0 -0.43548531360E+02  0.37257718301E+01  0.20667828639E+03  0.21124930775E+03  0.00000000000E+00 0. -1.
</event>
<event>
 7    1  0.2855090E-009  0.1717952E+03  0.7561462E-02  0.1175989E+00
          2   -1    0    0  501    0  0.00000000000E+00  0.00000000000E+00  0.49764243840E+02  0.49764243840E+02  0.00000000000E+00 0. -1.
         -2   -1    0    0    0  501 -0.00000000000E+00 -0.00000000000E+00 -0.92627391804E+03  0.92627391804E+03  0.00000000000E+00 0.  1.
         25    2    1    2    0    0 -0.81253315108E+02  0.12319202794E+03 -0.70575778576E+03  0.73179215598E+03  0.12508928982E+03 0.  0.
          5    1    3    3  502    0  0.30353893589E+02  0.77393023114E+01 -0.88416794677E+02  0.93894928709E+02  0.41800000000E+01 0.  1.
         -5    1    3    3    0  502 -0.11160720870E+03  0.11545272563E+03 -0.61734099108E+03  0.63789722727E+03  0.41800000000E+01 0.  1.
        -11    1    1    2    0    0  0.18876917627E+02 -0.58580536133E+02 -0.13352726497E+03  0.14702907101E+03  0.00000000000E+00 0.  1.
         11    1    1    2    0    0  0.62376397481E+02 -0.64611491807E+02 -0.37224623469E+02  0.97216934886E+02  0.00000000000E+00 0. -1.
</event>
<event>
 7    1  0.2855090E-009  0.1177633E+03  0.7561462E-02  0.1246833E+00
          2   -1    0    0  501    0  0.00000000000E+00  0.00000000000E+00  0.13397131386E+04  0.13397131386E+04  0.00000000000E+00 0. -1.
         -2   -1    0    0    0  501 -0.00000000000E+00 -0.00000000000E+00 -0.11769251337E+02  0.11769251337E+02  0.00000000000E+00 0.  1.
         25    2    1    2    0    0 -0.34872306254E+02  0.40291436185E+02  0.91849278590E+03  0.92850094163E+03  0.12508206615E+03 0.  0.
          5    1    3    3  502    0 -0.77949993721E+02  0.46926458552E+02  0.56264294800E+03  0.56996741430E+03  0.41800000000E+01 0. -1.
         -5    1    3    3    0  502  0.43077687467E+02 -0.66350223676E+01  0.35584983791E+03  0.35853352733E+03  0.41800000000E+01 0. -1.
        -11    1    1    2    0    0  0.21552692915E+02  0.25583391139E+02  0.79433916078E+02  0.86190344573E+02  0.00000000000E+00 0.  1.
         11    1    1    2    0    0  0.13319613339E+02 -0.65874827324E+02  0.33001718524E+03  0.33679110369E+03  0.00000000000E+00 0. -1.
</event>
<event>
 7    1  0.2855090E-009  0.1030793E+03  0.7561462E-02  0.1273951E+00
          2   -1    0    0  501    0  0.00000000000E+00  0.00000000000E+00  0.54960581469E+03  0.54960581469E+03  0.00000000000E+00 0. -1.
         -2   -1    0    0    0  501 -0.00000000000E+00 -0.00000000000E+00 -0.30501828362E+02  0.30501828362E+02  0.00000000000E+00 0.  1.
         25    2    1    2    0    0 -0.62519850527E+02 -0.12116153829E+02  0.36372674801E+03  0.38986613047E+03  0.12507165776E+03 0.  0.
          5    1    3    3  502    0  0.45992185874E+01  0.43760131647E+02  0.64977025290E+02  0.78584910440E+02  0.41800000000E+01 0. -1.
         -5    1    3    3    0  502 -0.67119069115E+02 -0.55876285476E+02  0.29874972272E+03  0.31128122003E+03  0.41800000000E+01 0. -1.
        -11    1    1    2    0    0  0.21853120112E+02 -0.14223634530E+02 -0.14357985675E+01  0.26113830729E+02  0.00000000000E+00 0.  1.
         11    1    1    2    0    0  0.40666730416E+02  0.26339788359E+02  0.15681303688E+03  0.16412768185E+03  0.00000000000E+00 0. -1.
</event>
<event>
 7    1  0.2855090E-009  0.1609250E+03  0.7561462E-02  0.1187656E+00
         -1   -1    0    0    0  501 -0.00000000000E+00  0.00000000000E+00  0.38384569364E+03  0.38384569364E+03  0.00000000000E+00 0.  1.
          1   -1    0    0  501    0  0.00000000000E+00 -0.00000000000E+00 -0.89756924176E+02  0.89756924176E+02  0.00000000000E+00 0. -1.
         25    2    1    2    0    0  0.50738324137E+01  0.13645422953E+03  0.74989557742E+02  0.19978086496E+03  0.12507381701E+03 0.  0.
          5    1    3    3  502    0 -0.21252645748E+02  0.15227231938E+03  0.67044787450E+02  0.16778262760E+03  0.41800000000E+01 0. -1.
         -5    1    3    3    0  502  0.26326478162E+02 -0.15818089852E+02  0.79447702918E+01  0.31998237357E+02  0.41800000000E+01 0. -1.
        -11    1    1    2    0    0  0.36021226397E+01 -0.25138310698E+02 -0.26663603848E+01  0.25534671134E+02  0.00000000000E+00 0. -1.
         11    1    1    2    0    0 -0.86759550534E+01 -0.11131591883E+03  0.22176557211E+03  0.24828708173E+03  0.00000000000E+00 0.  1.
</event>
<event>
 7    1  0.2855090E-009  0.1214257E+03  0.7561462E-02  0.1240763E+00
         -2   -1    0    0    0  501 -0.00000000000E+00  0.00000000000E+00  0.28625625232E+02  0.28625625232E+02  0.00000000000E+00 0.  1.
          2   -1    0    0  501    0  0.00000000000E+00 -0.00000000000E+00 -0.72747959327E+03  0.72747959327E+03  0.00000000000E+00 0. -1.
         25    2    1    2    0    0 -0.34778650512E+02 -0.87949714668E+02 -0.38394255183E+03  0.41473423761E+03  0.12509155809E+03 0.  0.
          5    1    3    3  502    0  0.30199432579E+02 -0.12210281608E+02 -0.22662654976E+02  0.39901942755E+02  0.41800000000E+01 0.  1.
         -5    1    3    3    0  502 -0.64978083091E+02 -0.75739433059E+02 -0.36127989685E+03  0.37483229486E+03  0.41800000000E+01 0.  1.
        -11    1    1    2    0    0 -0.72216326714E+01  0.58233893158E+02 -0.25826464378E+03  0.26484705873E+03  0.00000000000E+00 0. -1.
         11    1    1    2    0    0  0.42000283184E+02  0.29715821509E+02 -0.56646772433E+02  0.76523922158E+02  0.00000000000E+00 0.  1.
</event>
<event>
 7    1  0.2855090E-009  0.1102406E+03  0.7561462E-02  0.1260125E+00
         -1   -1    0    0    0  501 -0.00000000000E+00  0.00000000000E+00  0.64549342031E+03  0.64549342031E+03  0.00000000000E+00 0.  1.
          1   -1    0    0  501    0  0.00000000000E+00 -0.00000000000E+00 -0.22843063959E+02  0.22843063959E+02  0.00000000000E+00 0. -1.
         25    2    1    2    0    0 -0.17901247570E+02 -0.13226552037E+02  0.23503195692E+03  0.26717393217E+03  0.12508594213E+03 0.  0.
          5    1    3    3  502    0 -0.55194741551E+02 -0.42554982199E+02  0.18665482394E+03  0.19928592952E+03  0.41800000000E+01 0. -1.
         -5    1    3    3    0  502  0.37293493982E+02  0.29328430162E+02  0.48377132976E+02  0.67888002652E+02  0.41800000000E+01 0. -1.
        -11    1    1    2    0    0  0.33052888415E+02  0.51880783179E+02  0.24684148019E+03  0.25439108758E+03  0.00000000000E+00 0.  1.
         11    1    1    2    0    0 -0.15151640845E+02 -0.38654231142E+02  0.14077691924E+03  0.14677146452E+03  0.00000000000E+00 0. -1.
</event>
<event>
 7    1  0.2855090E-009  0.1086975E+03  0.7561462E-02  0.1263001E+00
         -2   -1    0    0    0  501 -0.00000000000E+00  0.00000000000E+00  0.60647343972E+02  0.60647343972E+02  0.00000000000E+00 0.  1.
          2   -1    0    0  501    0  0.00000000000E+00 -0.00000000000E+00 -0.27561853023E+03  0.27561853023E+03  0.00000000000E+00 0. -1.
         25    2    1    2    0    0 -0.91500171254E+01  0.30244967705E+02 -0.20102327757E+03  0.23886520706E+03  0.12509095943E+03 0.  0.
          5    1    3    3  502    0 -0.49252226986E+02  0.59175198524E+02 -0.14343577871E+03  0.16284588112E+03  0.41800000000E+01 0.  1.
         -5    1    3    3    0  502  0.40102209860E+02 -0.28930230819E+02 -0.57587498858E+02  0.76019325935E+02  0.41800000000E+01 0.  1.
        -11    1    1    2    0    0  0.33677491071E+02 -0.49232156053E+02  0.68718168482E+01  0.60043321538E+02  0.00000000000E+00 0.  1.
         11    1    1    2    0    0 -0.24527473945E+02  0.18987188349E+02 -0.20819725537E+02  0.37357345609E+02  0.00000000000E+00 0. -1.
</event>
<event>
 7    1  0.2855090E-009  0.2628543E+03  0.7561462E-02  0.1105440E+00
          2   -1    0    0  501    0  0.00000000000E+00  0.00000000000E+00  0.61841690607E+03  0.61841690607E+03  0.00000000000E+00 0. -1.
         -2   -1    0    0    0  501 -0.00000000000E+00 -0.00000000000E+00 -0.13354623378E+03  0.13354623378E+03  0.00000000000E+00 0.  1.
         25    2    1    2    0    0 -0.19577388532E+03 -0.17259728254E+03  0.31127485158E+03  0.42503644817E+03  0.12508682156E+03 0.  0.
          5    1    3    3  502    0 -0.16302050900E+03 -0.14885288139E+03  0.31446926252E+03  0.38424114319E+03  0.41800000000E+01 0.  1.
         -5    1    3    3    0  502 -0.32753376323E+02 -0.23744401159E+02 -0.31944109358E+01  0.40795304978E+02  0.41800000000E+01 0.  1.
        -11    1    1    2    0    0  0.33388301657E+02  0.52718872452E+02  0.87542130203E+02  0.10750666380E+03  0.00000000000E+00 0. -1.
         11    1    1    2    0    0  0.16238558366E+03  0.11987841009E+03  0.86053690514E+02  0.21942002789E+03  0.00000000000E+00 0.  1.
</event>
<event>
 7    1  0.2855090E-009  0.1005477E+03  0.7561462E-02  0.1279148E+00
         -1   -1    0    0    0  501 -0.00000000000E+00  0.00000000000E+00  0.88359900604E+02  0.88359900604E+02  0.00000000000E+00 0.  1.
          1   -1    0    0  501    0  0.00000000000E+00 -0.00000000000E+00 -0.19603519381E+03  0.19603519381E+03  0.00000000000E+00 0. -1.
         25    2    1    2    0    0 -0.41988435560E+02 -0.54250767648E+02 -0.90425304397E+02  0.16890982460E+03  0.12509044192E+03 0.  0.
          5    1    3    3  502    0 -0.77477314692E+02 -0.22954054569E+02 -0.90514102293E+02  0.12140798173E+03  0.41800000000E+01 0.  1.
         -5    1    3    3    0  502  0.35488879132E+02 -0.31296713079E+02  0.88797895901E-01  0.47501842876E+02  0.41800000000E+01 0.  1.
        -11    1    1    2    0    0  0.38372220642E+02  0.31506721830E+02  0.33404645953E+02  0.59841216639E+02  0.00000000000E+00 0.  1.
         11    1    1    2    0    0  0.36162149174E+01  0.22744045817E+02 -0.50654634759E+02  0.55644053168E+02  0.00000000000E+00 0. -1.
</event>
<event>
 7    1  0.2855090E-009  0.1033045E+03  0.7561462E-02  0.1273497E+00
          1   -1    0    0  501    0  0.00000000000E+00  0.00000000000E+00  0.11179925053E+03  0.11179925053E+03  0.00000000000E+00 0. -1.
         -1   -1    0    0    0  501 -0.00000000000E+00 -0.00000000000E+00 -0.14296356047E+03  0.14296356047E+03  0.00000000000E+00 0.  1.
         25    2    1    2    0    0  0.40508672648E+02  0.57850865318E+02 -0.37196523561E+02  0.14838552775E+03  0.12508800223E+03 0.  0.
          5    1    3    3  502    0  0.51870084672E+02  0.79624476472E+01 -0.69908173332E+02  0.87513035343E+02  0.41800000000E+01 0. -1.
         -5    1    3    3    0  502 -0.11361412024E+02  0.49888417671E+02  0.32711649771E+02  0.60872492405E+02  0.41800000000E+01 0. -1.
        -11    1    1    2    0    0 -0.62211184293E+02 -0.48999417697E+02  0.16196500105E+02  0.80830074857E+02  0.00000000000E+00 0. -1.
         11    1    1    2    0    0  0.21702511645E+02 -0.88514476207E+01 -0.10164286486E+02  0.25547208388E+02  0.00000000000E+00 0.  1.
</event>
<event>
 7    1  0.2855090E-009  0.1083155E+03  0.7561462E-02  0.1263722E+00
          3   -1    0    0  501    0  0.00000000000E+00  0.00000000000E+00  0.11869992176E+03  0.11869992176E+03  0.00000000000E+00 0. -1.
         -3   -1    0    0    0  501 -0.00000000000E+00 -0.00000000000E+00 -0.99209611036E+02  0.99209611036E+02  0.00000000000E+00 0.  1.
         25    2    1    2    0    0 -0.59850287335E+01  0.24040551698E+02  0.63500809206E+01  0.12768013974E+03  0.12509246925E+03 0.  0.
          5    1    3    3  502    0  0.33372668438E+02 -0.39909114836E+02  0.53701102645E+01  0.52466969894E+02  0.41800000000E+01 0. -1.
         -5    1    3    3    0  502 -0.39357697171E+02  0.63949666534E+02  0.97997065602E+00  0.75213169850E+02  0.41800000000E+01 0. -1.
        -11    1    1    2    0    0  0.45598107976E+02 -0.18608345660E+02  0.85028310818E+01  0.49977556119E+02  0.00000000000E+00 0. -1.
         11    1    1    2    0    0 -0.39613079242E+02 -0.54322060385E+01  0.46373987207E+01  0.40251836932E+02  0.00000000000E+00 0.  1.
</event>
<event>
 7    1  0.2855090E-009  0.6603743E+02  0.7561462E-02  0.1374111E+00
         -1   -1    0    0    0  501 -0.00000000000E+00  0.00000000000E+00  0.27952247361E+03  0.27952247361E+03  0.00000000000E+00 0.  1.
          1   -1    0    0  501    0  0.00000000000E+00 -0.00000000000E+00 -0.96197946899E+02  0.96197946899E+02  0.00000000000E+00 0. -1.
         25    2    1    2    0    0  0.30978683380E+02 -0.66790906536E+01  0.23365106515E+03  0.26691763125E+03  0.12509161661E+03 0.  0.
          5    1    3    3  502    0  0.10478192523E+02  0.42944632963E+01 -0.13803993590E+02  0.18337327302E+02  0.41800000000E+01 0.  1.
         -5    1    3    3    0  502  0.20500490857E+02 -0.10973553950E+02  0.24745505874E+03  0.24858030394E+03  0.41800000000E+01 0.  1.
        -11    1    1    2    0    0  0.76896619413E+01  0.42787119832E+02 -0.24982758551E+02  0.50139871849E+02  0.00000000000E+00 0. -1.
         11    1    1    2    0    0 -0.38668345321E+02 -0.36108029178E+02 -0.25343779887E+02  0.58662917418E+02  0.00000000000E+00 0.  1.
</event>
<event>
 7    1  0.2855090E-009  0.9537079E+02  0.7561462E-02  0.1290343E+00
         -1   -1    0    0    0  501 -0.00000000000E+00  0.00000000000E+00  0.57111434895E+02  0.57111434895E+02  0.00000000000E+00 0.  1.
          1   -1    0    0  501    0  0.00000000000E+00 -0.00000000000E+00 -0.70702304752E+03  0.70702304752E+03  0.00000000000E+00 0. -1.
         25    2    1    2    0    0  0.12125601404E+02 -0.49583350216E+02 -0.64739339968E+03  0.66134039955E+03  0.12508945322E+03 0.  0.
          5    1    3    3  502    0 -0.49470753873E+02 -0.33814969948E+02 -0.18326391531E+03  0.19285731186E+03  0.41800000000E+01 0. -1.
         -5    1    3    3    0  502  0.61596355277E+02 -0.15768380267E+02 -0.46412948436E+03  0.46848308769E+03  0.41800000000E+01 0. -1.
        -11    1    1    2    0    0 -0.22706987132E+02  0.80484733706E+01  0.37226007205E+02  0.44341411803E+02  0.00000000000E+00 0.  1.
         11    1    1    2    0    0  0.10581385728E+02  0.41534876845E+02 -0.39744220155E+02  0.58452671062E+02  0.00000000000E+00 0. -1.
</event>
<event>
 7    1  0.2855090E-009  0.8116960E+02  0.7561462E-02  0.1325765E+00
          1   -1    0    0  501    0  0.00000000000E+00  0.00000000000E+00  0.87473080786E+03  0.87473080786E+03  0.00000000000E+00 0. -1.
         -1   -1    0    0    0  501 -0.00000000000E+00 -0.00000000000E+00 -0.19696593423E+02  0.19696593423E+02  0.00000000000E+00 0.  1.
         25    2    1    2    0    0 -0.18861581046E+02 -0.13184178310E+01  0.67230359066E+03  0.68410423365E+03  0.12509591129E+03 0.  0.
          5    1    3    3  502    0 -0.17832857014E+02  0.26847653634E+02  0.64081211950E+03  0.64163576287E+03  0.41800000000E+01 0.  1.
         -5    1    3    3    0  502 -0.10287240327E+01 -0.28166071465E+02  0.31491471165E+02  0.42468470787E+02  0.41800000000E+01 0.  1.
        -11    1    1    2    0    0 -0.18430102323E+01  0.49171200362E+02  0.11305248307E+03  0.12329666483E+03  0.00000000000E+00 0. -1.
         11    1    1    2    0    0  0.20704591279E+02 -0.47852782531E+02  0.69678140707E+02  0.87026502793E+02  0.00000000000E+00 0.  1.
</event>
<event>
 7    1  0.2855090E-009  0.3350270E+03  0.7561462E-02  0.1068934E+00
         -2   -1    0    0    0  501 -0.00000000000E+00  0.00000000000E+00  0.77102693108E+02  0.77102693108E+02  0.00000000000E+00 0. -1.
          2   -1    0    0  501    0  0.00000000000E+00 -0.00000000000E+00 -0.19668739995E+04  0.19668739995E+04  0.00000000000E+00 0.  1.
         25    2    1    2    0    0 -0.32994064577E+03 -0.27520010463E+02 -0.14095060799E+04  0.14532626943E+04  0.12508752444E+03 0.  0.
          5    1    3    3  502    0 -0.19747807907E+03  0.13271494306E+02 -0.59586590966E+03  0.62789121587E+03  0.41800000000E+01 0.  1.
         -5    1    3    3    0  502 -0.13246256670E+03 -0.40791504769E+02 -0.81364017021E+03  0.82537147844E+03  0.41800000000E+01 0.  1.
        -11    1    1    2    0    0  0.24902760101E+03  0.36225761679E+01 -0.41520952945E+03  0.48417643733E+03  0.00000000000E+00 0.  1.
         11    1    1    2    0    0  0.80913044752E+02  0.23897434295E+02 -0.65055697100E+02  0.10653756099E+03  0.00000000000E+00 0. -1.
</event>
<event>
 7    1  0.2855090E-009  0.1350634E+03  0.7561462E-02  0.1220130E+00
          4   -1    0    0  501    0  0.00000000000E+00  0.00000000000E+00  0.13215582445E+03  0.13215582445E+03  0.00000000000E+00 0. -1.
         -4   -1    0    0    0  501 -0.00000000000E+00 -0.00000000000E+00 -0.15360046170E+03  0.15360046170E+03  0.00000000000E+00 0.  1.
         25    2    1    2    0    0  0.38503473346E+02  0.84319023371E+02 -0.38418964590E+02  0.16035431590E+03  0.12508107221E+03 0.  0.
          5    1    3    3  502    0  0.20690427252E+02 -0.27946353916E+02  0.10458890545E+02  0.36550694501E+02  0.41800000000E+01 0. -1.
         -5    1    3    3    0  502  0.17813046094E+02  0.11226537729E+03 -0.48877855135E+02  0.12380362140E+03  0.41800000000E+01 0. -1.
        -11    1    1    2    0    0 -0.33416873318E+01 -0.86086805432E+02 -0.37639856108E+00  0.86152461483E+02  0.00000000000E+00 0.  1.
         11    1    1    2    0    0 -0.35161786014E+02  0.17677820602E+01  0.17350725909E+02  0.39249508769E+02  0.00000000000E+00 0. -1.
</event>
<event>
 7    1  0.2855090E-009  0.1286289E+03  0.7561462E-02  0.1229504E+00
         -1   -1    0    0    0  501 -0.00000000000E+00  0.00000000000E+00  0.22215063418E+02  0.22215063418E+02  0.00000000000E+00 0.  1.
          1   -1    0    0  501    0  0.00000000000E+00 -0.00000000000E+00 -0.79642798600E+03  0.79642798600E+03  0.00000000000E+00 0. -1.
         25    2    1    2    0    0  0.16317917376E+02  0.74653562405E+02 -0.39054206165E+03  0.41714575588E+03  0.12509216970E+03 0.  0.
          5    1    3    3  502    0  0.85659013653E+01 -0.32767105704E+02 -0.14548636440E+03  0.14943497753E+03  0.41800000000E+01 0. -1.
         -5    1    3    3    0  502  0.77520160108E+01  0.10742066811E+03 -0.24505569725E+03  0.26771077835E+03  0.41800000000E+01 0. -1.
        -11    1    1    2    0    0 -0.42124633651E+02 -0.78666100424E+02 -0.32934330711E+03  0.34121819127E+03  0.00000000000E+00 0. -1.
         11    1    1    2    0    0  0.25806716275E+02  0.40125380193E+01 -0.54327553818E+02  0.60279102266E+02  0.00000000000E+00 0.  1.
</event>
<event>
 7    1  0.2855090E-009  0.1465437E+03  0.7561462E-02  0.1204785E+00
          4   -1    0    0  501    0  0.00000000000E+00  0.00000000000E+00  0.30141811679E+02  0.30141811679E+02  0.00000000000E+00 0. -1.
         -4   -1    0    0    0  501 -0.00000000000E+00 -0.00000000000E+00 -0.93279325031E+03  0.93279325031E+03  0.00000000000E+00 0.  1.
         25    2    1    2    0    0 -0.72973661164E+02 -0.10250303218E+03 -0.42132362381E+03  0.45716618651E+03  0.12512113843E+03 0.  0.
          5    1    3    3  502    0 -0.75344672598E+02 -0.10998525476E+03 -0.42650424195E+03  0.44687460966E+03  0.41800000000E+01 0. -1.
         -5    1    3    3    0  502  0.23710114339E+01  0.74822225781E+01  0.51806181408E+01  0.10291576859E+02  0.41800000000E+01 0. -1.
        -11    1    1    2    0    0  0.24959408641E+02 -0.11222270554E+02 -0.14366847656E+03  0.14625164133E+03  0.00000000000E+00 0.  1.
         11    1    1    2    0    0  0.48014252523E+02  0.11372530273E+03 -0.33765933826E+03  0.35951723414E+03  0.00000000000E+00 0. -1.
</event>
<event>
 7    1  0.2855090E-009  0.1024983E+03  0.7561462E-02  0.1275128E+00
          2   -1    0    0  501    0  0.00000000000E+00  0.00000000000E+00  0.10169197529E+04  0.10169197529E+04  0.00000000000E+00 0. -1.
         -2   -1    0    0    0  501 -0.00000000000E+00 -0.00000000000E+00 -0.11967447416E+02  0.11967447416E+02  0.00000000000E+00 0.  1.
         25    2    1    2    0    0  0.22582274349E+02 -0.66727418337E+01  0.75166392995E+03  0.76236478612E+03  0.12508764502E+03 0.  0.
          5    1    3    3  502    0  0.71738324950E+02  0.83480943585E+01  0.34955677043E+03  0.35696426445E+03  0.41800000000E+01 0.  1.
         -5    1    3    3    0  502 -0.49156050601E+02 -0.15020836192E+02  0.40210715952E+03  0.40540052167E+03  0.41800000000E+01 0.  1.
        -11    1    1    2    0    0 -0.33811381719E+01  0.41327330973E+02  0.10136679000E+03  0.10951989087E+03  0.00000000000E+00 0.  1.
         11    1    1    2    0    0 -0.19201136177E+02 -0.34654589139E+02  0.15192158553E+03  0.15700252332E+03  0.00000000000E+00 0. -1.
</event>
<event>
 7    1  0.3769424E-009  0.1191920E+03  0.7561462E-02  0.1244436E+00
          2   -1    0    0  501    0  0.00000000000E+00  0.00000000000E+00  0.66827563747E+03  0.66827563747E+03  0.00000000000E+00 0. -1.
         -2   -1    0    0    0  501 -0.00000000000E+00 -0.00000000000E+00 -0.31132008323E+02  0.31132008323E+02  0.00000000000E+00 0.  1.
         25    2    1    2    0    0 -0.92208898116E+02 -0.90794379807E+01  0.30073409237E+03  0.33863600083E+03  0.12509368353E+03 0.  0.
          5    1    3    3  502    0 -0.73812444074E+02 -0.56075097340E+02  0.25122964274E+03  0.26781803381E+03  0.41800000000E+01 0. -1.
         -5    1    3    3    0  502 -0.18396454042E+02  0.46995659360E+02  0.49504449633E+02  0.70817967024E+02  0.41800000000E+01 0. -1.
        -11    1    1    2    0    0  0.39448767595E+02 -0.64081642049E+01  0.31345848612E+02  0.50792047197E+02  0.00000000000E+00 0.  1.
         11    1    1    2    0    0  0.52760130521E+02  0.15487602186E+02  0.30506368816E+03  0.30997959776E+03  0.00000000000E+00 0. -1.
</event>
<event>
 7    1  0.2855090E-009  0.2255497E+03  0.7561462E-02  0.1129812E+00
          1   -1    0    0  501    0  0.00000000000E+00  0.00000000000E+00  0.13966220660E+04  0.13966220660E+04  0.00000000000E+00 0. -1.
         -1   -1    0    0    0  501 -0.00000000000E+00 -0.00000000000E+00 -0.38856819714E+02  0.38856819714E+02  0.00000000000E+00 0.  1.
         25    2    1    2    0    0  0.13883009329E+03  0.15314584818E+03  0.70121975397E+03  0.74167697555E+03  0.12509255405E+03 0.  0.
          5    1    3    3  502    0 -0.99957629866E+01  0.67029352491E+02  0.16082105870E+03  0.17456727842E+03  0.41800000000E+01 0.  1.
         -5    1    3    3    0  502  0.14882585628E+03  0.86116495689E+02  0.54039869527E+03  0.56710969713E+03  0.41800000000E+01 0.  1.
        -11    1    1    2    0    0 -0.95031907434E+02 -0.72859142392E+02  0.25140747076E+03  0.27846944969E+03  0.00000000000E+00 0. -1.
         11    1    1    2    0    0 -0.43798185855E+02 -0.80286705788E+02  0.40513802158E+03  0.41533246049E+03  0.00000000000E+00 0.  1.
</event>
<event>
 7    1  0.2855090E-009  0.1051964E+03  0.7561462E-02  0.1269733E+00
         -1   -1    0    0    0  501 -0.00000000000E+00  0.00000000000E+00  0.23575358033E+02  0.23575358033E+02  0.00000000000E+00 0.  1.
          1   -1    0    0  501    0  0.00000000000E+00 -0.00000000000E+00 -0.61931026843E+03  0.61931026843E+03  0.00000000000E+00 0. -1.
         25    2    1    2    0    0 -0.24515294200E+02 -0.78761372790E+01 -0.44536863290E+03  0.46331574639E+03  0.12508088780E+03 0.  0.
          5    1    3    3  502    0  0.24423371547E+02  0.37862882594E+02 -0.29758660386E+03  0.30100723937E+03  0.41800000000E+01 0.  1.
         -5    1    3    3    0  502 -0.48938665747E+02 -0.45739019873E+02 -0.14778202904E+03  0.16230850702E+03  0.41800000000E+01 0.  1.
        -11    1    1    2    0    0 -0.18649107781E+02  0.40057846083E+02 -0.72443258553E+02  0.84855441567E+02  0.00000000000E+00 0.  1.
         11    1    1    2    0    0  0.43164401981E+02 -0.32181708804E+02 -0.77923018944E+02  0.94714438504E+02  0.00000000000E+00 0. -1.
</event>
<event>
 7    1  0.2855090E-009  0.1311319E+03  0.7561462E-02  0.1225786E+00
         -2   -1    0    0    0  501 -0.00000000000E+00  0.00000000000E+00  0.22948366385E+03  0.22948366385E+03  0.00000000000E+00 0. -1.
          2   -1    0    0  501    0  0.00000000000E+00 -0.00000000000E+00 -0.76809789846E+02  0.76809789846E+02  0.00000000000E+00 0.  1.
         25    2    1    2    0    0 -0.60243269096E+02  0.47978409843E+02  0.84924803546E+02  0.16967830789E+03  0.12508927464E+03 0.  0.
          5    1    3    3  502    0 -0.40206855927E+02 -0.38580223493E+02  0.19206458140E+02  0.59087945832E+02  0.41800000000E+01 0.  1.
         -5    1    3    3    0  502 -0.20036413169E+02  0.86558633336E+02  0.65718345406E+02  0.11059036206E+03  0.41800000000E+01 0.  1.
        -11    1    1    2    0    0 -0.17465782439E+02 -0.34361618966E+02  0.31560685248E+02  0.49818182097E+02  0.00000000000E+00 0. -1.
         11    1    1    2    0    0  0.77709051535E+02 -0.13616790877E+02  0.36188385205E+02  0.86796963702E+02  0.00000000000E+00 0.  1.
</event>
<event>
 7    1  0.2855090E-009  0.1114948E+03  0.7561462E-02  0.1257827E+00
         -1   -1    0    0    0  501 -0.00000000000E+00  0.00000000000E+00  0.50347025624E+02  0.50347025624E+02  0.00000000000E+00 0.  1.
          1   -1    0    0  501    0  0.00000000000E+00 -0.00000000000E+00 -0.26242478082E+03  0.26242478082E+03  0.00000000000E+00 0. -1.
         25    2    1    2    0    0 -0.20964986141E+02  0.35953677650E+02 -0.14684161034E+03  0.19733587564E+03  0.12508713646E+03 0.  0.
          5    1    3    3  502    0  0.49327207789E+02  0.30078016766E+02 -0.44853119183E+02  0.73260734513E+02  0.41800000000E+01 0. -1.
         -5    1    3    3    0  502 -0.70292193930E+02  0.58756608840E+01 -0.10198849116E+03  0.12407514113E+03  0.41800000000E+01 0. -1.
        -11    1    1    2    0    0  0.52208354699E+02 -0.35540416720E+02 -0.50623353704E+02  0.80941691737E+02  0.00000000000E+00 0. -1.
         11    1    1    2    0    0 -0.31243368558E+02 -0.41326093029E+00 -0.14612791157E+02  0.34494239068E+02  0.00000000000E+00 0.  1.
</event>
<event>
 7    1  0.2855090E-009  0.1063975E+03  0.7561462E-02  0.1267390E+00
         -2   -1    0    0    0  501 -0.00000000000E+00  0.00000000000E+00  0.34114898343E+03  0.34114898343E+03  0.00000000000E+00 0. -1.
          2   -1    0    0  501    0  0.00000000000E+00 -0.00000000000E+00 -0.37410936259E+02  0.37410936259E+02  0.00000000000E+00 0.  1.
         25    2    1    2    0    0  0.18647628387E+02  0.21926675741E+02  0.13615921616E+03  0.18712396089E+03  0.12509009330E+03 0.  0.
          5    1    3    3  502    0 -0.14986899411E+02 -0.44078671280E+02  0.84976007919E+02  0.96984177770E+02  0.41800000000E+01 0.  1.
         -5    1    3    3    0  502  0.33634527797E+02  0.66005347021E+02  0.51183208242E+02  0.90139783123E+02  0.41800000000E+01 0.  1.
        -11    1    1    2    0    0  0.35220140588E+02 -0.64582041244E+01  0.54175281725E+02  0.64939416793E+02  0.00000000000E+00 0.  1.
         11    1    1    2    0    0 -0.53867768975E+02 -0.15468471617E+02  0.11340354929E+03  0.12649654201E+03  0.00000000000E+00 0. -1.
</event>
<event>
 7    1  0.2855090E-009  0.1052761E+03  0.7561462E-02  0.1269577E+00
         -2   -1    0    0    0  501 -0.00000000000E+00  0.00000000000E+00  0.35491129162E+02  0.35491129162E+02  0.00000000000E+00 0.  1.
          2   -1    0    0  501    0  0.00000000000E+00 -0.00000000000E+00 -0.46431896053E+03  0.46431896053E+03  0.00000000000E+00 0. -1.
         25    2    1    2    0    0 -0.63036998294E+02  0.22563685934E+02 -0.24571353223E+03  0.28373539569E+03  0.12509137368E+03 0.  0.
          5    1    3    3  502    0  0.29697549154E+02 -0.23561476704E+02 -0.70568677199E+02  0.80215324046E+02  0.41800000000E+01 0.  1.
         -5    1    3    3    0  502 -0.92734547447E+02  0.46125162638E+02 -0.17514485504E+03  0.20352007165E+03  0.41800000000E+01 0.  1.
        -11    1    1    2    0    0  0.32701220945E+02 -0.34056386129E+01 -0.17656872420E+03  0.17960368201E+03  0.00000000000E+00 0. -1.
         11    1    1    2    0    0  0.30335777348E+02 -0.19158047321E+02 -0.65455749381E+01  0.36471011993E+02  0.00000000000E+00 0.  1.
</event>
<event>
 7    1  0.2855090E-009  0.1315657E+03  0.7561462E-02  0.1225151E+00
         -2   -1    0    0    0  501 -0.00000000000E+00  0.00000000000E+00  0.51070441788E+02  0.51070441788E+02  0.00000000000E+00 0.  1.
          2   -1    0    0  501    0  0.00000000000E+00 -0.00000000000E+00 -0.40521848126E+03  0.40521848126E+03  0.00000000000E+00 0. -1.
         25    2    1    2    0    0 -0.60998259561E+02 -0.69452126354E+02 -0.16838670764E+03  0.22923105140E+03  0.12509358932E+03 0.  0.
          5    1    3    3  502    0 -0.55709087788E+02  0.18624010732E+02 -0.10541844568E+03  0.12075130362E+03  0.41800000000E+01 0.  1.
         -5    1    3    3    0  502 -0.52891717735E+01 -0.88076137086E+02 -0.62968261965E+02  0.10847974777E+03  0.41800000000E+01 0.  1.
        -11    1    1    2    0    0  0.24830791845E+02 -0.11410428318E+02 -0.80425145018E+01  0.28485928764E+02  0.00000000000E+00 0.  1.
         11    1    1    2    0    0  0.36167467717E+02  0.80862554672E+02 -0.17771881733E+03  0.19857194288E+03  0.00000000000E+00 0. -1.
</event>
<event>
 7    1  0.2855090E-009  0.1360805E+03  0.7561462E-02  0.1218702E+00
          1   -1    0    0  501    0  0.00000000000E+00  0.00000000000E+00  0.49991182301E+03  0.49991182301E+03  0.00000000000E+00 0. -1.
         -1   -1    0    0    0  501 -0.00000000000E+00 -0.00000000000E+00 -0.55133497430E+02  0.55133497430E+02  0.00000000000E+00 0.  1.
         25    2    1    2    0    0  0.29182155191E+02 -0.94349848293E+02  0.10804368750E+03  0.19254404878E+03  0.12508509208E+03 0.  0.
          5    1    3    3  502    0  0.59824827825E+02 -0.10856265651E+03  0.74101569781E+02  0.14447621069E+03  0.41800000000E+01 0.  1.
         -5    1    3    3    0  502 -0.30642672635E+02  0.14212808215E+02  0.33942117718E+02  0.48067838091E+02  0.41800000000E+01 0.  1.
        -11    1    1    2    0    0 -0.19076737196E+02 -0.13352509928E+00  0.86746141138E+01  0.20956828506E+02  0.00000000000E+00 0.  1.
         11    1    1    2    0    0 -0.10105417994E+02  0.94483373392E+02  0.32806002396E+03  0.34154444315E+03  0.00000000000E+00 0. -1.
</event>
<event>
 7    1  0.2855090E-009  0.1207103E+03  0.7561462E-02  0.1241930E+00
          1   -1    0    0  501    0  0.00000000000E+00  0.00000000000E+00  0.32241658161E+03  0.32241658161E+03  0.00000000000E+00 0. -1.
         -1   -1    0    0    0  501 -0.00000000000E+00 -0.00000000000E+00 -0.63319830820E+02  0.63319830820E+02  0.00000000000E+00 0.  1.
         25    2    1    2    0    0  0.44625895268E+02  0.61664443636E+02  0.21106082407E+03  0.25688038633E+03  0.12508751850E+03 0.  0.
          5    1    3    3  502    0  0.70748023641E+02  0.67874612338E+02  0.20742265512E+03  0.22946432426E+03  0.41800000000E+01 0.  1.
         -5    1    3    3    0  502 -0.26122128374E+02 -0.62101687014E+01  0.36381689512E+01  0.27416062070E+02  0.41800000000E+01 0.  1.
        -11    1    1    2    0    0 -0.14823734424E+02  0.22436142708E+02  0.24973600312E+02  0.36698832603E+02  0.00000000000E+00 0.  1.
         11    1    1    2    0    0 -0.29802160844E+02 -0.84100586344E+02  0.23062326403E+02  0.92157193498E+02  0.00000000000E+00 0. -1.
</event>
<event>
 7    1  0.2855090E-009  0.2684422E+03  0.7561462E-02  0.1102174E+00
          2   -1    0    0  501    0  0.00000000000E+00  0.00000000000E+00  0.98482363256E+02  0.98482363256E+02  0.00000000000E+00 0. -1.
         -2   -1    0    0    0  501 -0.00000000000E+00 -0.00000000000E+00 -0.80006489523E+03  0.80006489523E+03  0.00000000000E+00 0.  1.
         25    2    1    2    0    0  0.23513323843E+03  0.10479363016E+03 -0.31661102575E+03  0.42680093606E+03  0.12508857922E+03 0.  0.
          5    1    3    3  502    0  0.49784583489E+02 -0.18390414604E+02 -0.22114036221E+02  0.57647333854E+02  0.41800000000E+01 0. -1.
         -5    1    3    3    0  502  0.18534865494E+03  0.12318404477E+03 -0.29449698953E+03  0.36915360220E+03  0.41800000000E+01 0. -1.
        -11    1    1    2    0    0 -0.96307678265E+02 -0.19928215332E+02 -0.82841271221E+02  0.12858840880E+03  0.00000000000E+00 0.  1.
         11    1    1    2    0    0 -0.13882556017E+03 -0.84865414830E+02 -0.30213023500E+03  0.34315791364E+03  0.00000000000E+00 0. -1.
</event>
<event>
 7    1  0.2855090E-009  0.2038634E+03  0.7561462E-02  0.1146520E+00
          1   -1    0    0  501    0  0.00000000000E+00  0.00000000000E+00  0.16132941153E+04  0.16132941153E+04  0.00000000000E+00 0. -1.
         -1   -1    0    0    0  501 -0.00000000000E+00 -0.00000000000E+00 -0.30879018416E+02  0.30879018416E+02  0.00000000000E+00 0.  1.
         25    2    1    2    0    0 -0.17009568986E+03 -0.91605234655E+02  0.87755487570E+03  0.90723405786E+03  0.12508802161E+03 0.  0.
          5    1    3    3  502    0 -0.12971778318E+03 -0.68654477594E+02  0.37810440990E+03  0.40561133829E+03  0.41800000000E+01 0. -1.
         -5    1    3    3    0  502 -0.40377906686E+02 -0.22950757061E+02  0.49945046580E+03  0.50162271956E+03  0.41800000000E+01 0. -1.
        -11    1    1    2    0    0  0.15894391783E+03  0.10962177318E+03  0.65206546355E+03  0.68005107964E+03  0.00000000000E+00 0.  1.
         11    1    1    2    0    0  0.11151772027E+02 -0.18016538525E+02  0.52794757685E+02  0.56887996263E+02  0.00000000000E+00 0. -1.
</event>
<event>
 7    1  0.2855090E-009  0.1479887E+03  0.7561462E-02  0.1202966E+00
          3   -1    0    0  501    0  0.00000000000E+00  0.00000000000E+00  0.44500672312E+02  0.44500672312E+02  0.00000000000E+00 0. -1.
         -3   -1    0    0    0  501 -0.00000000000E+00 -0.00000000000E+00 -0.82855841666E+03  0.82855841666E+03  0.00000000000E+00 0.  1.
         25    2    1    2    0    0 -0.86858841429E+02  0.60348805783E+02 -0.67998893353E+03  0.69944213670E+03  0.12509163109E+03 0.  0.
          5    1    3    3  502    0  0.47103682844E+01 -0.28676758030E+02 -0.22300700549E+03  0.22493141381E+03  0.41800000000E+01 0.  1.
         -5    1    3    3    0  502 -0.91569209714E+02  0.89025563814E+02 -0.45698192803E+03  0.47451072288E+03  0.41800000000E+01 0.  1.
        -11    1    1    2    0    0  0.52105628523E+02 -0.82534130162E+02 -0.76593821123E+02  0.12407051463E+03  0.00000000000E+00 0.  1.
         11    1    1    2    0    0  0.34753212906E+02  0.22185324379E+02 -0.27474989699E+02  0.49546437652E+02  0.00000000000E+00 0. -1.
</event>
<event>
 7    1  0.2855090E-009  0.1454590E+03  0.7561462E-02  0.1206167E+00
          2   -1    0    0  501    0  0.00000000000E+00  0.00000000000E+00  0.81168429186E+03  0.81168429186E+03  0.00000000000E+00 0. -1.
         -2   -1    0    0    0  501 -0.00000000000E+00 -0.00000000000E+00 -0.37668322444E+02  0.37668322444E+02  0.00000000000E+00 0.  1.
         25    2    1    2    0    0 -0.90117531728E+02  0.10131496287E+03  0.46710814570E+03  0.50221737580E+03  0.12508549695E+03 0.  0.
          5    1    3    3  502    0 -0.55849014716E+02  0.28914003124E+02  0.37421857430E+03  0.37948932234E+03  0.41800000000E+01 0.  1.
         -5    1    3    3    0  502 -0.34268517012E+02  0.72400959741E+02  0.92889571408E+02  0.12272805346E+03  0.41800000000E+01 0.  1.
        -11    1    1    2    0    0  0.23189269646E+01 -0.41216072007E+02  0.31614041442E+02  0.51996053988E+02  0.00000000000E+00 0.  1.
         11    1    1    2    0    0  0.87798604764E+02 -0.60098890858E+02  0.27529378227E+03  0.29513918451E+03  0.00000000000E+00 0. -1.
</event>
<event>
 7    1  0.2855090E-009  0.1090230E+03  0.7561462E-02  0.1262390E+00
          2   -1    0    0  501    0  0.00000000000E+00  0.00000000000E+00  0.89291165466E+02  0.89291165466E+02  0.00000000000E+00 0. -1.
         -2   -1    0    0    0  501 -0.00000000000E+00 -0.00000000000E+00 -0.37541831138E+03  0.37541831138E+03  0.00000000000E+00 0.  1.
         25    2    1    2    0    0 -0.47606714186E+02 -0.48309551879E+02 -0.31971335265E+03  0.34994975701E+03  0.12509193631E+03 0.  0.
          5    1    3    3  502    0 -0.33013682199E+02 -0.90046418471E+02 -0.19058027956E+03  0.21339300844E+03  0.41800000000E+01 0.  1.
         -5    1    3    3    0  502 -0.14593031987E+02  0.41736866592E+02 -0.12913307309E+03  0.13655674857E+03  0.41800000000E+01 0.  1.
        -11    1    1    2    0    0  0.27683948430E+02  0.26397772215E+01  0.54136877138E+02  0.60861900157E+02  0.00000000000E+00 0. -1.
         11    1    1    2    0    0  0.19922765756E+02  0.45669774657E+02 -0.20550670408E+02  0.53897819685E+02  0.00000000000E+00 0.  1.
</event>
<event>
 7    1  0.3266760E-009  0.1735925E+03  0.7561462E-02  0.1174152E+00
         -2   -1    0    0    0  501 -0.00000000000E+00  0.00000000000E+00  0.18795855049E+02  0.18795855049E+02  0.00000000000E+00 0.  1.
          2   -1    0    0  501    0  0.00000000000E+00 -0.00000000000E+00 -0.20122725138E+04  0.20122725138E+04  0.00000000000E+00 0. -1.
         25    2    1    2    0    0 -0.46988559344E+02 -0.15320919525E+03 -0.11089405495E+04  0.11274208329E+04  0.12509040663E+03 0.  0.
          5    1    3    3  502    0 -0.57758971971E+01 -0.76593571579E+02 -0.19946354000E+03  0.21378286271E+03  0.41800000000E+01 0. -1.
         -5    1    3    3    0  502 -0.41212662147E+02 -0.76615623672E+02 -0.90947700954E+03  0.91363797020E+03  0.41800000000E+01 0. -1.
        -11    1    1    2    0    0  0.47454170096E+02  0.22613865166E+02 -0.20187176718E+03  0.20860368056E+03  0.00000000000E+00 0.  1.
         11    1    1    2    0    0 -0.46561075130E+00  0.13059533009E+03 -0.68266434197E+03  0.69504385533E+03  0.00000000000E+00 0. -1.
</event>
<event>
 7    1  0.2855090E-009  0.1077852E+03  0.7561462E-02  0.1264727E+00
         -1   -1    0    0    0  501 -0.00000000000E+00  0.00000000000E+00  0.58863208337E+02  0.58863208337E+02  0.00000000000E+00 0.  1.
          1   -1    0    0  501    0  0.00000000000E+00 -0.00000000000E+00 -0.34753593850E+03  0.34753593850E+03  0.00000000000E+00 0. -1.
         25    2    1    2    0    0 -0.40389341011E+02 -0.84242089062E+02 -0.15268064915E+03  0.21837473349E+03  0.12509242650E+03 0.  0.
          5    1    3    3  502    0  0.11052693586E+02 -0.64327747065E+02 -0.14924584989E+03  0.16294789715E+03  0.41800000000E+01 0.  1.
         -5    1    3    3    0  502 -0.51442034597E+02 -0.19914341998E+02 -0.34347992617E+01  0.55426836340E+02  0.41800000000E+01 0.  1.
        -11    1    1    2    0    0  0.19556523614E+02  0.58777042979E+02 -0.16527445512E+02  0.64112049198E+02  0.00000000000E+00 0.  1.
         11    1    1    2    0    0  0.20832817398E+02  0.25465046083E+02 -0.11946463551E+03  0.12391236415E+03  0.00000000000E+00 0. -1.
</event>
<event>
 7    1  0.2855090E-009  0.8878409E+02  0.7561462E-02  0.1305823E+00
         -1   -1    0    0    0  501 -0.00000000000E+00  0.00000000000E+00  0.16529391206E+03  0.16529391206E+03  0.00000000000E+00 0.  1.
          1   -1    0    0  501    0  0.00000000000E+00 -0.00000000000E+00 -0.78814391845E+02  0.78814391845E+02  0.00000000000E+00 0. -1.
         25    2    1    2    0    0 -0.25447826459E+02 -0.22450121701E+02  0.48978070991E+02  0.13856069232E+03  0.12509442107E+03 0.  0.
          5    1    3    3  502    0  0.12915122108E+02 -0.51910356005E+02 -0.17324339787E+02  0.56383424769E+02  0.41800000000E+01 0. -1.
         -5    1    3    3    0  502 -0.38362948568E+02  0.29460234303E+02  0.66302410778E+02  0.82177267556E+02  0.41800000000E+01 0. -1.
        -11    1    1    2    0    0  0.43912224884E+02  0.32227328444E+02  0.55651683429E+02  0.77871651205E+02  0.00000000000E+00 0.  1.
         11    1    1    2    0    0 -0.18464398425E+02 -0.97772067429E+01 -0.18150234207E+02  0.27675960374E+02  0.00000000000E+00 0. -1.
</event>
<event>
 7    1  0.2855090E-009  0.1070377E+03  0.7561462E-02  0.1266156E+00
         -4   -1    0    0    0  501 -0.00000000000E+00  0.00000000000E+00  0.14879729151E+03  0.14879729151E+03  0.00000000000E+00 0.  1.
          4   -1    0    0  501    0  0.00000000000E+00 -0.00000000000E+00 -0.11601407768E+03  0.11601407768E+03  0.00000000000E+00 0. -1.
         25    2    1    2    0    0  0.20595438021E+01  0.71626061636E+02  0.20842183462E+02  0.14565766988E+03  0.12508887143E+03 0.  0.
          5    1    3    3  502    0 -0.47232696101E+02 -0.70923736896E+01 -0.73508653330E+01  0.48505020015E+02  0.41800000000E+01 0.  1.
         -5    1    3    3    0  502  0.49292239903E+02  0.78718435325E+02  0.28193048795E+02  0.97152649861E+02  0.41800000000E+01 0.  1.
        -11    1    1    2    0    0  0.51992098682E+01 -0.51531892526E+02 -0.38393903005E+02  0.64472160802E+02  0.00000000000E+00 0. -1.
         11    1    1    2    0    0 -0.72587536703E+01 -0.20094169109E+02  0.50334933373E+02  0.54681538518E+02  0.00000000000E+00 0.  1.
</event>
<event>
 7    1  0.2855090E-009  0.1160166E+03  0.7561462E-02  0.1249817E+00
         -2   -1    0    0    0  501 -0.00000000000E+00  0.00000000000E+00  0.30929882516E+02  0.30929882516E+02  0.00000000000E+00 0.  1.
          2   -1    0    0  501    0  0.00000000000E+00 -0.00000000000E+00 -0.58636054467E+03  0.58636054467E+03  0.00000000000E+00 0. -1.
         25    2    1    2    0    0  0.71255463428E+02 -0.32620934863E+02 -0.27208413153E+03  0.30954847411E+03  0.12509603004E+03 0.  0.
          5    1    3    3  502    0 -0.32201522587E+02  0.99624664349E+01 -0.45138661799E+02  0.56490353012E+02  0.41800000000E+01 0. -1.
         -5    1    3    3    0  502  0.10345698602E+03 -0.42583401298E+02 -0.22694546973E+03  0.25305812110E+03  0.41800000000E+01 0. -1.
        -11    1    1    2    0    0 -0.17415715343E+02  0.26795137406E+02 -0.17499176490E+02  0.36434979173E+02  0.00000000000E+00 0.  1.
         11    1    1    2    0    0 -0.53839748085E+02  0.58257974570E+01 -0.26584735413E+03  0.27130697390E+03  0.00000000000E+00 0. -1.
</event>
<event>
 7    1  0.2855090E-009  0.1625681E+03  0.7561462E-02  0.1185828E+00
          1   -1    0    0  501    0  0.00000000000E+00  0.00000000000E+00  0.79036794720E+03  0.79036794720E+03  0.00000000000E+00 0. -1.
         -1   -1    0    0    0  501 -0.00000000000E+00 -0.00000000000E+00 -0.36823264589E+02  0.36823264589E+02  0.00000000000E+00 0.  1.
         25    2    1    2    0    0 -0.92901268523E+01  0.12665461917E+03  0.48974784922E+03  0.52118029444E+03  0.12509294334E+03 0.  0.
          5    1    3    3  502    0  0.50524885703E+02  0.32403541301E+02  0.24276310458E+03  0.25010827837E+03  0.41800000000E+01 0.  1.
         -5    1    3    3    0  502 -0.59815012556E+02  0.94251077874E+02  0.24698474464E+03  0.27107201606E+03  0.41800000000E+01 0.  1.
        -11    1    1    2    0    0  0.19147167386E+02  0.61344401870E+01  0.52949904015E+02  0.56638659152E+02  0.00000000000E+00 0. -1.
         11    1    1    2    0    0 -0.98570405342E+01 -0.13278905936E+03  0.21084692937E+03  0.24937225820E+03  0.00000000000E+00 0.  1.
</event>
<event>
 7    1  0.2855090E-009  0.7656902E+02  0.7561462E-02  0.1339080E+00
         -2   -1    0    0    0  501 -0.00000000000E+00  0.00000000000E+00  0.16441211514E+02  0.16441211514E+02  0.00000000000E+00 0.  1.
          2   -1    0    0  501    0  0.00000000000E+00 -0.00000000000E+00 -0.86844775747E+03  0.86844775747E+03  0.00000000000E+00 0. -1.
         25    2    1    2    0    0  0.29391126192E+02 -0.25145884703E+02 -0.57374993172E+03  0.58849634690E+03  0.12507122908E+03 0.  0.
          5    1    3    3  502    0  0.30687369795E+02 -0.33875414159E+02 -0.64562003317E+02  0.79214790422E+02  0.41800000000E+01 0. -1.
         -5    1    3    3    0  502 -0.12962436030E+01  0.87295294560E+01 -0.50918792841E+03  0.50928155648E+03  0.41800000000E+01 0. -1.
        -11    1    1    2    0    0  0.30486717544E+02 -0.42290494231E+01 -0.13362392914E+03  0.13712286186E+03  0.00000000000E+00 0.  1.
         11    1    1    2    0    0 -0.59877843736E+02  0.29374934126E+02 -0.14463268509E+03  0.15926976023E+03  0.00000000000E+00 0. -1.
</event>
<event>
 7    1  0.2855090E-009  0.1002626E+03  0.7561462E-02  0.1279745E+00
          3   -1    0    0  501    0  0.00000000000E+00  0.00000000000E+00  0.33025353060E+02  0.33025353060E+02  0.00000000000E+00 0. -1.
         -3   -1    0    0    0  501 -0.00000000000E+00 -0.00000000000E+00 -0.41450872896E+03  0.41450872896E+03  0.00000000000E+00 0.  1.
         25    2    1    2    0    0  0.15339449420E+02 -0.37955752036E+02 -0.18360915610E+03  0.22590983947E+03  0.12508795123E+03 0.  0.
          5    1    3    3  502    0 -0.25762637310E+02  0.29421856637E+02 -0.11399109036E+03  0.12058524043E+03  0.41800000000E+01 0. -1.
         -5    1    3    3    0  502  0.41102086730E+02 -0.67377608673E+02 -0.69618065743E+02  0.10532459904E+03  0.41800000000E+01 0. -1.
        -11    1    1    2    0    0  0.28057704811E+02  0.71915146656E+01 -0.18123622165E+02  0.34167504486E+02  0.00000000000E+00 0. -1.
         11    1    1    2    0    0 -0.43397154231E+02  0.30764237371E+02 -0.17975059763E+03  0.18745673806E+03  0.00000000000E+00 0.  1.
</event>
<event>
 7    1  0.2855090E-009  0.1641637E+03  0.7561462E-02  0.1184075E+00
          2   -1    0    0  501    0  0.00000000000E+00  0.00000000000E+00  0.47749981869E+02  0.47749981869E+02  0.00000000000E+00 0. -1.
         -2   -1    0    0    0  501 -0.00000000000E+00 -0.00000000000E+00 -0.62330736599E+03  0.62330736599E+03  0.00000000000E+00 0.  1.
         25    2    1    2    0    0  0.79637095501E+02  0.10062729075E+03 -0.38276879855E+03  0.42264358260E+03  0.12509087154E+03 0.  0.
          5    1    3    3  502    0 -0.17289811050E+02 -0.15315449244E+02 -0.25249795241E+02  0.34474992551E+02  0.41800000000E+01 0.  1.
         -5    1    3    3    0  502  0.96926906551E+02  0.11594274000E+03 -0.35751900331E+03  0.38816859005E+03  0.41800000000E+01 0.  1.
        -11    1    1    2    0    0 -0.94902298048E+02 -0.65317987375E+02 -0.16374475297E+03  0.20021296105E+03  0.00000000000E+00 0.  1.
         11    1    1    2    0    0  0.15265202547E+02 -0.35309303379E+02 -0.29043832598E+02  0.48200804204E+02  0.00000000000E+00 0. -1.
</event>
<event>
 7    1  0.2855090E-009  0.1763051E+03  0.7561462E-02  0.1171428E+00
          1   -1    0    0  501    0  0.00000000000E+00  0.00000000000E+00  0.47744904620E+03  0.47744904620E+03  0.00000000000E+00 0.  1.
         -1   -1    0    0    0  501 -0.00000000000E+00 -0.00000000000E+00 -0.94195374111E+02  0.94195374111E+02  0.00000000000E+00 0. -1.
         25    2    1    2    0    0 -0.77235355708E+02  0.14415137877E+03  0.30703716128E+03  0.36968116737E+03  0.12508967554E+03 0.  0.
          5    1    3    3  502    0 -0.35871707175E+01 -0.83848706525E+01  0.10725701249E+03  0.10772517337E+03  0.41800000000E+01 0.  1.
         -5    1    3    3    0  502 -0.73648184990E+02  0.15253624942E+03  0.19978014879E+03  0.26195599399E+03  0.41800000000E+01 0.  1.
        -11    1    1    2    0    0  0.71081639469E+02 -0.73596698840E+02  0.64071410642E+01  0.10251890073E+03  0.00000000000E+00 0. -1.
         11    1    1    2    0    0  0.61537162389E+01 -0.70554679929E+02  0.69809369750E+02  0.99444352220E+02  0.00000000000E+00 0.  1.
</event>
<event>
 7    1  0.2855090E-009  0.1563693E+03  0.7561462E-02  0.1192858E+00
          1   -1    0    0  501    0  0.00000000000E+00  0.00000000000E+00  0.13358097657E+04  0.13358097657E+04  0.00000000000E+00 0. -1.
         -1   -1    0    0    0  501 -0.00000000000E+00 -0.00000000000E+00 -0.20562779200E+02  0.20562779200E+02  0.00000000000E+00 0.  1.
         25    2    1    2    0    0  0.10396291492E+03  0.47277740354E+02  0.90015724009E+03  0.91595540428E+03  0.12509106011E+03 0.  0.
          5    1    3    3  502    0  0.11764591596E+01 -0.34444818978E+02  0.27192910407E+03  0.27413635230E+03  0.41800000000E+01 0.  1.
         -5    1    3    3    0  502  0.10278645576E+03  0.81722559332E+02  0.62822813602E+03  0.64181905197E+03  0.41800000000E+01 0.  1.
        -11    1    1    2    0    0 -0.97979736337E+02 -0.71753074952E+02  0.35725455382E+03  0.37733188141E+03  0.00000000000E+00 0.  1.
         11    1    1    2    0    0 -0.59831785818E+01  0.24475334598E+02  0.57835192589E+02  0.63085259225E+02  0.00000000000E+00 0. -1.
</event>
<event>
 7    1  0.2855090E-009  0.1717393E+03  0.7561462E-02  0.1176046E+00
         -1   -1    0    0    0  501 -0.00000000000E+00  0.00000000000E+00  0.10580174068E+03  0.10580174068E+03  0.00000000000E+00 0.  1.
          1   -1    0    0  501    0  0.00000000000E+00 -0.00000000000E+00 -0.35269072218E+03  0.35269072218E+03  0.00000000000E+00 0. -1.
         25    2    1    2    0    0 -0.12355583289E+02  0.14042627295E+03 -0.15605189298E+03  0.24468677580E+03  0.12508887391E+03 0.  0.
          5    1    3    3  502    0 -0.74734116518E+01 -0.11118440989E+01  0.18175031693E+02  0.20121934700E+02  0.41800000000E+01 0. -1.
         -5    1    3    3    0  502 -0.48821716377E+01  0.14153811705E+03 -0.17422692467E+03  0.22456484110E+03  0.41800000000E+01 0. -1.
        -11    1    1    2    0    0  0.62112029293E+02 -0.24072432154E+02 -0.37831835693E+02  0.76607009892E+02  0.00000000000E+00 0.  1.
         11    1    1    2    0    0 -0.49756446004E+02 -0.11635384080E+03 -0.53005252825E+02  0.13719867716E+03  0.00000000000E+00 0. -1.
</event>
<event>
 7    1  0.2855090E-009  0.2581763E+03  0.7561462E-02  0.1108244E+00
          1   -1    0    0  501    0  0.00000000000E+00  0.00000000000E+00  0.36661671725E+03  0.36661671725E+03  0.00000000000E+00 0. -1.
         -1   -1    0    0    0  501 -0.00000000000E+00 -0.00000000000E+00 -0.28175170501E+03  0.28175170501E+03  0.00000000000E+00 0.  1.
         25    2    1    2    0    0  0.21719337807E+03 -0.13099864594E+03  0.20768118419E+03  0.35087567945E+03  0.12509460201E+03 0.  0.
          5    1    3    3  502    0  0.88919235483E+02 -0.51307802438E+02  0.16415768443E+03  0.19366036969E+03  0.41800000000E+01 0. -1.
         -5    1    3    3    0  502  0.12827414259E+03 -0.79690843498E+02  0.43523499760E+02  0.15721530977E+03  0.41800000000E+01 0. -1.
        -11    1    1    2    0    0 -0.18097976721E+03  0.13544512330E+03 -0.76743376648E+02  0.23872285903E+03  0.00000000000E+00 0.  1.
         11    1    1    2    0    0 -0.36213610862E+02 -0.44464773621E+01 -0.46072795299E+02  0.58769883778E+02  0.00000000000E+00 0. -1.
</event>
<event>
 7    1  0.3238899E-009  0.7014569E+02  0.7561462E-02  0.1359598E+00
         -2   -1    0    0    0  501 -0.00000000000E+00  0.00000000000E+00  0.22994170626E+02  0.22994170626E+02  0.00000000000E+00 0.  1.
          2   -1    0    0  501    0  0.00000000000E+00 -0.00000000000E+00 -0.64598466074E+03  0.64598466074E+03  0.00000000000E+00 0. -1.
         25    2    1    2    0    0  0.53483187370E+01  0.53822206256E+02 -0.38835632921E+03  0.41157473848E+03  0.12509073715E+03 0.  0.
          5    1    3    3  502    0  0.11707814094E+02  0.22497157676E+02 -0.41713969524E+01  0.26039738227E+02  0.41800000000E+01 0.  1.
         -5    1    3    3    0  502 -0.63594953569E+01  0.31325048580E+02 -0.38418493225E+03  0.38553500025E+03  0.41800000000E+01 0.  1.
        -11    1    1    2    0    0  0.95995276495E+01 -0.63710203342E+02 -0.23005393076E+03  0.23890573874E+03  0.00000000000E+00 0. -1.
         11    1    1    2    0    0 -0.14947846386E+02  0.98879970857E+01 -0.45802301387E+01  0.18498354145E+02  0.00000000000E+00 0.  1.
</event>
<event>
 7    1  0.2855090E-009  0.9423137E+02  0.7561462E-02  0.1292917E+00
         -3   -1    0    0    0  501 -0.00000000000E+00  0.00000000000E+00  0.22565308352E+03  0.22565308352E+03  0.00000000000E+00 0.  1.
          3   -1    0    0  501    0  0.00000000000E+00 -0.00000000000E+00 -0.67168386005E+02  0.67168386005E+02  0.00000000000E+00 0. -1.
         25    2    1    2    0    0 -0.36846105064E+02  0.44495577482E+02  0.67796745807E+02  0.15356221596E+03  0.12508982195E+03 0.  0.
          5    1    3    3  502    0 -0.54327895066E+02  0.44069341531E+02 -0.12579703155E+02  0.71199356576E+02  0.41800000000E+01 0.  1.
         -5    1    3    3    0  502  0.17481790002E+02  0.42623595054E+00  0.80376448962E+02  0.82362859388E+02  0.41800000000E+01 0.  1.
        -11    1    1    2    0    0 -0.26564405078E+02 -0.14347067277E+02  0.89174283490E+01  0.31480573135E+02  0.00000000000E+00 0. -1.
         11    1    1    2    0    0  0.63410510142E+02 -0.30148510205E+02  0.81770523361E+02  0.10777868043E+03  0.00000000000E+00 0.  1.
</event>
<event>
 7    1  0.2855090E-009  0.1331475E+03  0.7561462E-02  0.1222859E+00
          2   -1    0    0  501    0  0.00000000000E+00  0.00000000000E+00  0.85577234578E+03  0.85577234578E+03  0.00000000000E+00 0. -1.
         -2   -1    0    0    0  501 -0.00000000000E+00 -0.00000000000E+00 -0.26591373084E+02  0.26591373084E+02  0.00000000000E+00 0.  1.
         25    2    1    2    0    0  0.13973306024E+01  0.10248890817E+03  0.40781602478E+03  0.43871142544E+03  0.12509147022E+03 0.  0.
          5    1    3    3  502    0  0.40120066323E+02  0.18328768131E+02  0.26328962127E+03  0.26699149898E+03  0.41800000000E+01 0. -1.
         -5    1    3    3    0  502 -0.38722735721E+02  0.84160140034E+02  0.14452640351E+03  0.17171992646E+03  0.41800000000E+01 0. -1.
        -11    1    1    2    0    0 -0.39276707066E+02 -0.65093336927E+02  0.16295207027E+03  0.17981429152E+03  0.00000000000E+00 0. -1.
         11    1    1    2    0    0  0.37879376463E+02 -0.37395571238E+02  0.25841287765E+03  0.26383800190E+03  0.00000000000E+00 0.  1.
</event>
<event>
 7    1  0.2855090E-009  0.1620305E+03  0.7561462E-02  0.1186423E+00
          1   -1    0    0  501    0  0.00000000000E+00  0.00000000000E+00  0.32578326183E+03  0.32578326183E+03  0.00000000000E+00 0. -1.
         -1   -1    0    0    0  501 -0.00000000000E+00 -0.00000000000E+00 -0.10245586636E+03  0.10245586636E+03  0.00000000000E+00 0.  1.
         25    2    1    2    0    0  0.11853533892E+03  0.74216658696E+02  0.68127657013E+02  0.19961749961E+03  0.12508808697E+03 0.  0.
          5    1    3    3  502    0  0.12627437229E+02  0.65687628826E+02  0.64811834921E+02  0.93232843449E+02  0.41800000000E+01 0. -1.
         -5    1    3    3    0  502  0.10590790169E+03  0.85290298705E+01  0.33158220924E+01  0.10638465617E+03  0.41800000000E+01 0. -1.
        -11    1    1    2    0    0 -0.60359060856E+02 -0.69925328481E+02  0.14103344072E+03  0.16859181235E+03  0.00000000000E+00 0. -1.
         11    1    1    2    0    0 -0.58176278066E+02 -0.42913302157E+01  0.14166297730E+02  0.60029816225E+02  0.00000000000E+00 0.  1.
</event>
<event>
 7    1  0.2855090E-009  0.8772945E+02  0.7561462E-02  0.1308445E+00
          1   -1    0    0  501    0  0.00000000000E+00  0.00000000000E+00  0.31138960062E+02  0.31138960062E+02  0.00000000000E+00 0. -1.
         -1   -1    0    0    0  501 -0.00000000000E+00 -0.00000000000E+00 -0.46645106446E+03  0.46645106446E+03  0.00000000000E+00 0.  1.
         25    2    1    2    0    0 -0.68731218721E+01  0.51890236300E+02 -0.24331380733E+03  0.27854787399E+03  0.12508985906E+03 0.  0.
          5    1    3    3  502    0  0.30828705068E+02  0.13878024441E+01 -0.19892623992E+03  0.20134909084E+03  0.41800000000E+01 0.  1.
         -5    1    3    3    0  502 -0.37701826940E+02  0.50502433856E+02 -0.44387567407E+02  0.77198783153E+02  0.41800000000E+01 0.  1.
        -11    1    1    2    0    0  0.34630300390E+02 -0.29572968479E+02 -0.17255761171E+03  0.17846553596E+03  0.00000000000E+00 0.  1.
         11    1    1    2    0    0 -0.27757178518E+02 -0.22317267821E+02 -0.19440685364E+02  0.40576614567E+02  0.00000000000E+00 0. -1.
</event>
<event>
 7    1  0.2855090E-009  0.1330092E+03  0.7561462E-02  0.1223058E+00
         -2   -1    0    0    0  501 -0.00000000000E+00  0.00000000000E+00  0.16569508439E+02  0.16569508439E+02  0.00000000000E+00 0. -1.
          2   -1    0    0  501    0  0.00000000000E+00 -0.00000000000E+00 -0.11087038685E+04  0.11087038685E+04  0.00000000000E+00 0.  1.
         25    2    1    2    0    0  0.55902210788E+02 -0.56709942385E+02 -0.54834293922E+03  0.56803652507E+03  0.12507773617E+03 0.  0.
          5    1    3    3  502    0  0.61940919438E+02  0.22939735352E+02 -0.29647013255E+03  0.30376787331E+03  0.41800000000E+01 0.  1.
         -5    1    3    3    0  502 -0.60387086498E+01 -0.79649677737E+02 -0.25187280666E+03  0.26426865176E+03  0.41800000000E+01 0.  1.
        -11    1    1    2    0    0 -0.80498865129E+02  0.38434846275E+02 -0.35866388724E+03  0.36959043373E+03  0.00000000000E+00 0. -1.
         11    1    1    2    0    0  0.24596654341E+02  0.18275096110E+02 -0.18512753359E+03  0.18764641812E+03  0.00000000000E+00 0.  1.
</event>
<event>
 7    1  0.2855090E-009  0.1681450E+03  0.7561462E-02  0.1179796E+00
         -2   -1    0    0    0  501 -0.00000000000E+00  0.00000000000E+00  0.30744083187E+02  0.30744083187E+02  0.00000000000E+00 0.  1.
          2   -1    0    0  501    0  0.00000000000E+00 -0.00000000000E+00 -0.11300894623E+04  0.11300894623E+04  0.00000000000E+00 0. -1.
         25    2    1    2    0    0 -0.11860891232E+03  0.89636922701E+02 -0.43759221378E+03  0.47878777698E+03  0.12509171771E+03 0.  0.
          5    1    3    3  502    0 -0.13968362345E+02 -0.19834476284E+02 -0.16586686719E+03  0.16768366535E+03  0.41800000000E+01 0.  1.
         -5    1    3    3    0  502 -0.10464054997E+03  0.10947139898E+03 -0.27172534659E+03  0.31110411163E+03  0.41800000000E+01 0.  1.
        -11    1    1    2    0    0  0.50571383436E+02 -0.38966522865E+01 -0.29423102659E+03  0.29857083872E+03  0.00000000000E+00 0.  1.
         11    1    1    2    0    0  0.68037528883E+02 -0.85740270414E+02 -0.36752213874E+03  0.38347492978E+03  0.00000000000E+00 0. -1.
</event>
<event>
 7    1  0.2855090E-009  0.1262139E+03  0.7561462E-02  0.1233184E+00
         -1   -1    0    0    0  501 -0.00000000000E+00  0.00000000000E+00  0.84316256827E+02  0.84316256827E+02  0.00000000000E+00 0.  1.
          1   -1    0    0  501    0  0.00000000000E+00 -0.00000000000E+00 -0.29031189404E+03  0.29031189404E+03  0.00000000000E+00 0. -1.
         25    2    1    2    0    0  0.70883722621E+01  0.75016477802E+02 -0.10968804942E+02  0.14644388826E+03  0.12509108987E+03 0.  0.
          5    1    3    3  502    0  0.41410566836E+02  0.88948450869E+02  0.17227286681E+02  0.99704131128E+02  0.41800000000E+01 0. -1.
         -5    1    3    3    0  502 -0.34322194574E+02 -0.13931973067E+02 -0.28196091623E+02  0.46739757132E+02  0.41800000000E+01 0. -1.
        -11    1    1    2    0    0 -0.24115763474E+02 -0.90666651838E+02 -0.16954849183E+03  0.19377487682E+03  0.00000000000E+00 0. -1.
         11    1    1    2    0    0  0.17027391212E+02  0.15650174037E+02 -0.25478340444E+02  0.34409385793E+02  0.00000000000E+00 0.  1.
</event>
<event>
 7    1  0.2855090E-009  0.2432180E+03  0.7561462E-02  0.1117667E+00
          2   -1    0    0  501    0  0.00000000000E+00  0.00000000000E+00  0.27237426139E+03  0.27237426139E+03  0.00000000000E+00 0. -1.
         -2   -1    0    0    0  501 -0.00000000000E+00 -0.00000000000E+00 -0.27778763843E+03  0.27778763843E+03  0.00000000000E+00 0.  1.
         25    2    1    2    0    0 -0.14603204624E+03 -0.17460574418E+03 -0.11280502014E+03  0.28317021589E+03  0.12509146321E+03 0.  0.
          5    1    3    3  502    0 -0.10694206108E+03 -0.60210880379E+02 -0.10565921893E+03  0.16199783174E+03  0.41800000000E+01 0. -1.
         -5    1    3    3    0  502 -0.39089985157E+02 -0.11439486380E+03 -0.71458012026E+01  0.12117238414E+03  0.41800000000E+01 0.  1.
        -11    1    1    2    0    0  0.73175399566E+02  0.14802118332E+03  0.57840913404E+02  0.17495851244E+03  0.00000000000E+00 0.  1.
         11    1    1    2    0    0  0.72856646670E+02  0.26584560865E+02  0.49550729700E+02  0.92033171489E+02  0.00000000000E+00 0. -1.
</event>
<event>
 7    1  0.2855090E-009  0.1062010E+03  0.7561462E-02  0.1267771E+00
         -1   -1    0    0    0  501 -0.00000000000E+00  0.00000000000E+00  0.25879817631E+02  0.25879817631E+02  0.00000000000E+00 0. -1.
          1   -1    0    0  501    0  0.00000000000E+00 -0.00000000000E+00 -0.47055344355E+03  0.47055344355E+03  0.00000000000E+00 0.  1.
         25    2    1    2    0    0  0.68392219347E+01 -0.11465162457E+02 -0.29477256980E+03  0.32049967159E+03  0.12510374366E+03 0.  0.
          5    1    3    3  502    0  0.29340670833E+02 -0.60809172818E+02 -0.12370839487E+03  0.14099599223E+03  0.41800000000E+01 0. -1.
         -5    1    3    3    0  502 -0.22501448898E+02  0.49344010360E+02 -0.17106417492E+03  0.17950367936E+03  0.41800000000E+01 0. -1.
        -11    1    1    2    0    0 -0.36225139886E+02  0.36744631169E+02 -0.10203941032E+03  0.11434364844E+03  0.00000000000E+00 0. -1.
         11    1    1    2    0    0  0.29385917951E+02 -0.25279468712E+02 -0.47861645805E+02  0.61589941154E+02  0.00000000000E+00 0.  1.
</event>
<event>
 7    1  0.2855090E-009  0.1439826E+03  0.7561462E-02  0.1208068E+00
          2   -1    0    0  501    0  0.00000000000E+00  0.00000000000E+00  0.66541912157E+03  0.66541912157E+03  0.00000000000E+00 0. -1.
         -2   -1    0    0    0  501 -0.00000000000E+00 -0.00000000000E+00 -0.39371151320E+02  0.39371151320E+02  0.00000000000E+00 0.  1.
         25    2    1    2    0    0 -0.42766777396E+02  0.11018080021E+03  0.29543810574E+03  0.34190649795E+03  0.12509025954E+03 0.  0.
          5    1    3    3  502    0 -0.32914952994E+02 -0.16953644933E+02  0.11524609691E+03  0.12111959156E+03  0.41800000000E+01 0. -1.
         -5    1    3    3    0  502 -0.98518244013E+01  0.12713444514E+03  0.18019200883E+03  0.22078690639E+03  0.41800000000E+01 0. -1.
        -11    1    1    2    0    0  0.32520329541E+01 -0.55828425561E+02  0.25783231742E+03  0.26382739192E+03  0.00000000000E+00 0. -1.
         11    1    1    2    0    0  0.39514744442E+02 -0.54352374645E+02  0.72777547084E+02  0.99056383022E+02  0.00000000000E+00 0.  1.
</event>
<event>
 7    1  0.2855090E-009  0.1776348E+03  0.7561462E-02  0.1170112E+00
          2   -1    0    0  501    0  0.00000000000E+00  0.00000000000E+00  0.17538471747E+03  0.17538471747E+03  0.00000000000E+00 0.  1.
         -2   -1    0    0    0  501 -0.00000000000E+00 -0.00000000000E+00 -0.18461076112E+03  0.18461076112E+03  0.00000000000E+00 0. -1.
         25    2    1    2    0    0 -0.14191352597E+03  0.11861544827E+02 -0.20000669958E+02  0.19059690353E+03  0.12508799998E+03 0.  0.
          5    1    3    3  502    0 -0.12107036943E+03 -0.44675814508E+02 -0.12187500972E+02  0.12969182833E+03  0.41800000000E+01 0.  1.
         -5    1    3    3    0  502 -0.20843156532E+02  0.56537359335E+02 -0.78131689859E+01  0.60905075194E+02  0.41800000000E+01 0.  1.
        -11    1    1    2    0    0  0.12309257203E+03 -0.42133764840E+02 -0.54846683204E+01  0.13021949553E+03  0.00000000000E+00 0. -1.
         11    1    1    2    0    0  0.18820953933E+02  0.30272220013E+02  0.16259294624E+02  0.39179079534E+02  0.00000000000E+00 0.  1.
</event>
<event>
 7    1  0.2855090E-009  0.7979033E+02  0.7561462E-02  0.1329648E+00
          1   -1    0    0  501    0  0.00000000000E+00  0.00000000000E+00  0.78900923232E+03  0.78900923232E+03  0.00000000000E+00 0. -1.
         -1   -1    0    0    0  501 -0.00000000000E+00 -0.00000000000E+00 -0.18073196466E+02  0.18073196466E+02  0.00000000000E+00 0.  1.
         25    2    1    2    0    0 -0.24903743712E+02  0.24672522823E+02  0.55500261289E+03  0.57000403404E+03  0.12509104154E+03 0.  0.
          5    1    3    3  502    0 -0.28640139376E+02  0.38924979105E+02  0.55233144163E+03  0.55445730710E+03  0.41800000000E+01 0.  1.
         -5    1    3    3    0  502  0.37363956645E+01 -0.14252456282E+02  0.26711712583E+01  0.15546726939E+02  0.41800000000E+01 0.  1.
        -11    1    1    2    0    0 -0.24893538386E+02 -0.36872163058E+02  0.12508954566E+03  0.13276535352E+03  0.00000000000E+00 0. -1.
         11    1    1    2    0    0  0.49797282097E+02  0.12199640236E+02  0.90843877301E+02  0.10431304122E+03  0.00000000000E+00 0.  1.
</event>
<event>
 7    1  0.2855090E-009  0.1374087E+03  0.7561462E-02  0.1216859E+00
          1   -1    0    0  501    0  0.00000000000E+00  0.00000000000E+00  0.13592198081E+04  0.13592198081E+04  0.00000000000E+00 0. -1.
         -1   -1    0    0    0  501 -0.00000000000E+00 -0.00000000000E+00 -0.38860056438E+02  0.38860056438E+02  0.00000000000E+00 0.  1.
         25    2    1    2    0    0 -0.29474921250E+02  0.12300678212E+03  0.11640331480E+04  0.11775478910E+04  0.12508567627E+03 0.  0.
          5    1    3    3  502    0  0.10462592672E+02  0.40051538183E+02  0.85517471734E+02  0.95101534835E+02  0.41800000000E+01 0. -1.
         -5    1    3    3    0  502 -0.39937513922E+02  0.82955243937E+02  0.10785156763E+04  0.10824463561E+04  0.41800000000E+01 0. -1.
        -11    1    1    2    0    0 -0.11506792317E+02 -0.82940691496E+02  0.13601973996E+03  0.15972768775E+03  0.00000000000E+00 0. -1.
         11    1    1    2    0    0  0.40981713567E+02 -0.40066090624E+02  0.20306863724E+02  0.60804285861E+02  0.00000000000E+00 0.  1.
</event>
<event>
 7    1  0.2855090E-009  0.1176998E+03  0.7561462E-02  0.1246941E+00
         -1   -1    0    0    0  501 -0.00000000000E+00  0.00000000000E+00  0.10888882088E+03  0.10888882088E+03  0.00000000000E+00 0.  1.
          1   -1    0    0  501    0  0.00000000000E+00 -0.00000000000E+00 -0.13126990353E+03  0.13126990353E+03  0.00000000000E+00 0. -1.
         25    2    1    2    0    0 -0.12180155544E+02 -0.49055512630E+02 -0.15708207574E+02  0.13582409077E+03  0.12508651542E+03 0.  0.
          5    1    3    3  502    0 -0.12911578264E+02 -0.90321549315E+02  0.36295503757E+00  0.91336166223E+02  0.41800000000E+01 0. -1.
         -5    1    3    3    0  502  0.73142272025E+00  0.41266036685E+02 -0.16071162611E+02  0.44487924548E+02  0.41800000000E+01 0. -1.
        -11    1    1    2    0    0 -0.36949100792E+02  0.63621617646E+01 -0.11086112721E+02  0.39097506914E+02  0.00000000000E+00 0. -1.
         11    1    1    2    0    0  0.49129256336E+02  0.42693350865E+02  0.44132376407E+01  0.65237126720E+02  0.00000000000E+00 0.  1.
</event>
<event>
 7    1  0.2855090E-009  0.1079191E+03  0.7561462E-02  0.1264473E+00
          2   -1    0    0  501    0  0.00000000000E+00  0.00000000000E+00  0.14092113898E+03  0.14092113898E+03  0.00000000000E+00 0.  1.
         -2   -1    0    0    0  501 -0.00000000000E+00 -0.00000000000E+00 -0.12201853785E+03  0.12201853785E+03  0.00000000000E+00 0. -1.
         25    2    1    2    0    0 -0.48274048083E+01 -0.44512167979E+02  0.68857712375E+02  0.14969130624E+03  0.12514577769E+03 0.  0.
          5    1    3    3  502    0  0.48707273689E+02 -0.58083136643E+02  0.28207797510E+02  0.80988897466E+02  0.41800000000E+01 0.  1.
         -5    1    3    3    0  502 -0.53534678497E+02  0.13570968664E+02  0.40649914865E+02  0.68702408770E+02  0.41800000000E+01 0.  1.
        -11    1    1    2    0    0 -0.18128410648E+02 -0.13199521603E+02  0.12074356801E+02  0.25468740356E+02  0.00000000000E+00 0.  1.
         11    1    1    2    0    0  0.22955815457E+02  0.57711689582E+02 -0.62029468050E+02  0.87779630235E+02  0.00000000000E+00 0. -1.
</event>
<event>
 7    1  0.2855090E-009  0.1202799E+03  0.7561462E-02  0.1242636E+00
          2   -1    0    0  501    0  0.00000000000E+00  0.00000000000E+00  0.12583865328E+03  0.12583865328E+03  0.00000000000E+00 0. -1.
         -2   -1    0    0    0  501 -0.00000000000E+00 -0.00000000000E+00 -0.16273744620E+03  0.16273744620E+03  0.00000000000E+00 0.  1.
         25    2    1    2    0    0 -0.39074721142E+02  0.46100796286E+02 -0.91548991292E+02  0.16636954534E+03  0.12508193538E+03 0.  0.
          5    1    3    3  502    0  0.42835255592E+02 -0.12135765010E+01 -0.18885189361E+02  0.47015472632E+02  0.41800000000E+01 0. -1.
         -5    1    3    3    0  502 -0.81909976734E+02  0.47314372787E+02 -0.72663801930E+02  0.11935407271E+03  0.41800000000E+01 0. -1.
        -11    1    1    2    0    0 -0.23847567730E+02 -0.29132123125E+02  0.40922794770E+02  0.55606314535E+02  0.00000000000E+00 0. -1.
         11    1    1    2    0    0  0.62922288872E+02 -0.16968673161E+02  0.13727403598E+02  0.66600239603E+02  0.00000000000E+00 0.  1.
</event>
<event>
 7    1  0.2855090E-009  0.6709400E+02  0.7561462E-02  0.1370263E+00
         -2   -1    0    0    0  501 -0.00000000000E+00  0.00000000000E+00  0.80269145514E+02  0.80269145514E+02  0.00000000000E+00 0.  1.
          2   -1    0    0  501    0  0.00000000000E+00 -0.00000000000E+00 -0.34321690938E+03  0.34321690938E+03  0.00000000000E+00 0. -1.
         25    2    1    2    0    0  0.17554542372E+02 -0.55138049529E+02 -0.28292914218E+03  0.31472460017E+03  0.12511717705E+03 0.  0.
          5    1    3    3  502    0 -0.45386911122E+01 -0.36727566418E+02 -0.77814919062E+01  0.38046522421E+02  0.41800000000E+01 0.  1.
         -5    1    3    3    0  502  0.22093233484E+02 -0.18410483111E+02 -0.27514765028E+03  0.27667807775E+03  0.41800000000E+01 0.  1.
        -11    1    1    2    0    0  0.11012031234E+02  0.14354086804E+02  0.48231152782E+02  0.51512607569E+02  0.00000000000E+00 0.  1.
         11    1    1    2    0    0 -0.28566573606E+02  0.40783962725E+02 -0.28249774463E+02  0.57248847154E+02  0.00000000000E+00 0. -1.
</event>
<event>
 7    1  0.2855090E-009  0.1054649E+03  0.7561462E-02  0.1269206E+00
         -2   -1    0    0    0  501 -0.00000000000E+00  0.00000000000E+00  0.14552512364E+02  0.14552512364E+02  0.00000000000E+00 0.  1.
          2   -1    0    0  501    0  0.00000000000E+00 -0.00000000000E+00 -0.13176546083E+04  0.13176546083E+04  0.00000000000E+00 0. -1.
         25    2    1    2    0    0 -0.49651565543E+02  0.24485492631E+02 -0.10323668626E+04  0.10413901883E+04  0.12508943992E+03 0.  0.
          5    1    3    3  502    0  0.36018992023E+02  0.26617641278E+02 -0.22321490671E+03  0.22770207199E+03  0.41800000000E+01 0. -1.
         -5    1    3    3    0  502 -0.85670557565E+02 -0.21321486465E+01 -0.80915195586E+03  0.81368811628E+03  0.41800000000E+01 0. -1.
        -11    1    1    2    0    0  0.37794586994E+02  0.13672365392E+02 -0.40203427103E+02  0.56847866559E+02  0.00000000000E+00 0.  1.
         11    1    1    2    0    0  0.11856978549E+02 -0.38157858023E+02 -0.23053180624E+03  0.23396906581E+03  0.00000000000E+00 0. -1.
</event>
<event>
 7    1  0.5119943E-009  0.1185809E+03  0.7561462E-02  0.1245457E+00
          2   -1    0    0  501    0  0.00000000000E+00  0.00000000000E+00  0.13424221449E+04  0.13424221449E+04  0.00000000000E+00 0. -1.
         -2   -1    0    0    0  501 -0.00000000000E+00 -0.00000000000E+00 -0.39157147537E+02  0.39157147537E+02  0.00000000000E+00 0.  1.
         25    2    1    2    0    0  0.93923758885E+02 -0.24845138110E+02  0.12066393434E+04  0.12169891450E+04  0.12508045643E+03 0.  0.
          5    1    3    3  502    0  0.20320654307E+00  0.30691703078E+02  0.92928409295E+02  0.97955007962E+02  0.41800000000E+01 0.  1.
         -5    1    3    3    0  502  0.93720552342E+02 -0.55536841188E+02  0.11137109341E+04  0.11190341370E+04  0.41800000000E+01 0.  1.
        -11    1    1    2    0    0 -0.47332184375E+02  0.11737358724E+02 -0.79008797381E+01  0.49401671715E+02  0.00000000000E+00 0.  1.
         11    1    1    2    0    0 -0.46591574510E+02  0.13107779386E+02  0.10452653365E+03  0.11518847570E+03  0.00000000000E+00 0. -1.
</event>
<event>
 7    1  0.2855090E-009  0.7796349E+02  0.7561462E-02  0.1334932E+00
          1   -1    0    0  501    0  0.00000000000E+00  0.00000000000E+00  0.13286776486E+03  0.13286776486E+03  0.00000000000E+00 0. -1.
         -1   -1    0    0    0  501 -0.00000000000E+00 -0.00000000000E+00 -0.11422578110E+03  0.11422578110E+03  0.00000000000E+00 0.  1.
         25    2    1    2    0    0 -0.45390910557E+02 -0.15920433422E+01  0.63612220754E+02  0.14750565251E+03  0.12509409871E+03 0.  0.
          5    1    3    3  502    0 -0.74048604242E+02  0.11130428569E+02  0.81833053151E+02  0.11100091539E+03  0.41800000000E+01 0. -1.
         -5    1    3    3    0  502  0.28657693685E+02 -0.12722471911E+02 -0.18220832397E+02  0.36504737119E+02  0.41800000000E+01 0. -1.
        -11    1    1    2    0    0  0.11132015493E+02  0.89187492080E+01 -0.59849261417E+02  0.61525604008E+02  0.00000000000E+00 0.  1.
         11    1    1    2    0    0  0.34258895064E+02 -0.73267058658E+01  0.14879024413E+02  0.38062289439E+02  0.00000000000E+00 0. -1.
</event>
<event>
 7    1  0.2855090E-009  0.1586402E+03  0.7561462E-02  0.1190241E+00
          1   -1    0    0  501    0  0.00000000000E+00  0.00000000000E+00  0.43538855183E+03  0.43538855183E+03  0.00000000000E+00 0. -1.
         -1   -1    0    0    0  501 -0.00000000000E+00 -0.00000000000E+00 -0.81681817866E+02  0.81681817866E+02  0.00000000000E+00 0.  1.
         25    2    1    2    0    0 -0.14502926348E+03 -0.41792482155E+02  0.22999610360E+03  0.30220021032E+03  0.12508661245E+03 0.  0.
          5    1    3    3  502    0 -0.41954553213E+02 -0.22658975091E+02  0.17948104473E+03  0.18575395421E+03  0.41800000000E+01 0.  1.
         -5    1    3    3    0  502 -0.10307471026E+03 -0.19133507065E+02  0.50515058876E+02  0.11644625611E+03  0.41800000000E+01 0.  1.
        -11    1    1    2    0    0  0.54836260103E+02  0.49633942776E+02  0.18835222376E+02  0.76323713874E+02  0.00000000000E+00 0.  1.
         11    1    1    2    0    0  0.90193003373E+02 -0.78414606210E+01  0.10487540798E+03  0.13854644550E+03  0.00000000000E+00 0. -1.
</event>
<event>
 7    1  0.2855090E-009  0.1099460E+03  0.7561462E-02  0.1260670E+00
         -1   -1    0    0    0  501 -0.00000000000E+00  0.00000000000E+00  0.10691025444E+02  0.10691025444E+02  0.00000000000E+00 0.  1.
          1   -1    0    0  501    0  0.00000000000E+00 -0.00000000000E+00 -0.11743336289E+04  0.11743336289E+04  0.00000000000E+00 0. -1.
         25    2    1    2    0    0 -0.16362082470E+02  0.20841343654E+02 -0.76068653314E+03  0.77135790210E+03  0.12508769755E+03 0.  0.
          5    1    3    3  502    0  0.53999918142E+02  0.18751214595E+02 -0.34948574468E+03  0.35415442584E+03  0.41800000000E+01 0. -1.
         -5    1    3    3    0  502 -0.70362000611E+02  0.20901290593E+01 -0.41120078846E+03  0.41720347625E+03  0.41800000000E+01 0. -1.
        -11    1    1    2    0    0 -0.34000644440E+02 -0.23968568447E+02 -0.21897615973E+03  0.22289256297E+03  0.00000000000E+00 0.  1.
         11    1    1    2    0    0  0.50362726909E+02  0.31272247925E+01 -0.18397991057E+03  0.19077418927E+03  0.00000000000E+00 0. -1.
</event>
<event>
 7    1  0.2855090E-009  0.1593383E+03  0.7561462E-02  0.1189446E+00
         -1   -1    0    0    0  501 -0.00000000000E+00  0.00000000000E+00  0.85514879472E+02  0.85514879472E+02  0.00000000000E+00 0.  1.
          1   -1    0    0  501    0  0.00000000000E+00 -0.00000000000E+00 -0.30031230572E+03  0.30031230572E+03  0.00000000000E+00 0. -1.
         25    2    1    2    0    0  0.64688322897E+02  0.97400549780E+02 -0.11983934659E+03  0.20900013118E+03  0.12509252427E+03 0.  0.
          5    1    3    3  502    0  0.81226340879E+01 -0.29799894313E+02 -0.14500232476E+02  0.34376445823E+02  0.41800000000E+01 0.  1.
         -5    1    3    3    0  502  0.56565688809E+02  0.12720044409E+03 -0.10533911411E+03  0.17462368536E+03  0.41800000000E+01 0.  1.
        -11    1    1    2    0    0 -0.25071961885E+02 -0.10495177620E+03 -0.77652451976E+02  0.13294127237E+03  0.00000000000E+00 0.  1.
         11    1    1    2    0    0 -0.39616361013E+02  0.75512264243E+01 -0.17305627685E+02  0.43885781638E+02  0.00000000000E+00 0. -1.
</event>
<event>
 7    1  0.2855090E-009  0.3564065E+03  0.7561462E-02  0.1060016E+00
          1   -1    0    0  501    0  0.00000000000E+00  0.00000000000E+00  0.20657120868E+04  0.20657120868E+04  0.00000000000E+00 0. -1.
         -1   -1    0    0    0  501 -0.00000000000E+00 -0.00000000000E+00 -0.75063204676E+02  0.75063204676E+02  0.00000000000E+00 0.  1.
         25    2    1    2    0    0 -0.17821031794E+03 -0.30329336820E+03  0.63049546983E+03  0.73274554462E+03  0.12508281685E+03 0.  0.
          5    1    3    3  502    0 -0.29288897402E+02 -0.11990032936E+03  0.31680373721E+03  0.34002354154E+03  0.41800000000E+01 0.  1.
         -5    1    3    3    0  502 -0.14892142054E+03 -0.18339303884E+03  0.31369173263E+03  0.39272200309E+03  0.41800000000E+01 0.  1.
        -11    1    1    2    0    0  0.73317751614E+02  0.96826655736E+02  0.31678079063E+03  0.33926532873E+03  0.00000000000E+00 0. -1.
         11    1    1    2    0    0  0.10489256632E+03  0.20646671246E+03  0.10433726217E+04  0.10687644182E+04  0.00000000000E+00 0.  1.
</event>
<event>
 7    1  0.2855090E-009  0.9360978E+02  0.7561462E-02  0.1294338E+00
          3   -1    0    0  501    0  0.00000000000E+00  0.00000000000E+00  0.34782478920E+03  0.34782478920E+03  0.00000000000E+00 0. -1.
         -3   -1    0    0    0  501 -0.00000000000E+00 -0.00000000000E+00 -0.36851503062E+02  0.36851503062E+02  0.00000000000E+00 0.  1.
         25    2    1    2    0    0  0.12228647063E+02  0.22921188747E+02  0.22265595717E+03  0.25670750313E+03  0.12509255052E+03 0.  0.
          5    1    3    3  502    0 -0.24598562466E+02  0.61893853639E+02  0.79583863994E+02  0.10386049394E+03  0.41800000000E+01 0. -1.
         -5    1    3    3    0  502  0.36827209529E+02 -0.38972664892E+02  0.14307209318E+03  0.15284700918E+03  0.41800000000E+01 0. -1.
        -11    1    1    2    0    0  0.34926607340E+01 -0.41907386306E+02  0.65414263883E+01  0.42558406516E+02  0.00000000000E+00 0.  1.
         11    1    1    2    0    0 -0.15721307797E+02  0.18986197559E+02  0.81775902578E+02  0.85410382618E+02  0.00000000000E+00 0. -1.
</event>
<event>
 7    1  0.2855090E-009  0.1019372E+03  0.7561462E-02  0.1276274E+00
         -1   -1    0    0    0  501 -0.00000000000E+00  0.00000000000E+00  0.14078820537E+02  0.14078820537E+02  0.00000000000E+00 0.  1.
          1   -1    0    0  501    0  0.00000000000E+00 -0.00000000000E+00 -0.96002906273E+03  0.96002906273E+03  0.00000000000E+00 0. -1.
         25    2    1    2    0    0 -0.35982631142E+02 -0.13407841192E+02 -0.65020874981E+03  0.66324447684E+03  0.12508915931E+03 0.  0.
          5    1    3    3  502    0  0.10273326250E+02  0.37572201757E+02 -0.44574959440E+03  0.44746774731E+03  0.41800000000E+01 0.  1.
         -5    1    3    3    0  502 -0.46255957393E+02 -0.50980042949E+02 -0.20445915541E+03  0.21577672953E+03  0.41800000000E+01 0.  1.
        -11    1    1    2    0    0  0.38176197017E+02 -0.32280322466E+02 -0.14990788034E+03  0.15802472536E+03  0.00000000000E+00 0.  1.
         11    1    1    2    0    0 -0.21935658753E+01  0.45688163658E+02 -0.14583361204E+03  0.15283868106E+03  0.00000000000E+00 0. -1.
</event>
<event>
 7    1  0.2855090E-009  0.1488329E+03  0.7561462E-02  0.1201915E+00
          2   -1    0    0  501    0  0.00000000000E+00  0.00000000000E+00  0.77747375597E+02  0.77747375597E+02  0.00000000000E+00 0. -1.
         -2   -1    0    0    0  501 -0.00000000000E+00 -0.00000000000E+00 -0.39508903169E+03  0.39508903169E+03  0.00000000000E+00 0.  1.
         25    2    1    2    0    0 -0.12401177189E+03 -0.52231263355E+02 -0.13195452008E+03  0.22619954668E+03  0.12508882887E+03 0.  0.
          5    1    3    3  502    0 -0.52974589782E+02 -0.36419676999E+02  0.11355951497E+02  0.65415059961E+02  0.41800000000E+01 0.  1.
         -5    1    3    3    0  502 -0.71037182110E+02 -0.15811586357E+02 -0.14331047157E+03  0.16078448671E+03  0.41800000000E+01 0.  1.
        -11    1    1    2    0    0  0.36629061705E+02  0.62420013653E+02 -0.10459261743E+03  0.12719104484E+03  0.00000000000E+00 0. -1.
         11    1    1    2    0    0  0.87382710187E+02 -0.10188750298E+02 -0.80794518583E+02  0.11944581577E+03  0.00000000000E+00 0.  1.
</event>
<event>
 7    1  0.2855090E-009  0.8157462E+02  0.7561462E-02  0.1324641E+00
         -2   -1    0    0    0  501 -0.00000000000E+00  0.00000000000E+00  0.14687538931E+03  0.14687538931E+03  0.00000000000E+00 0.  1.
          2   -1    0    0  501    0  0.00000000000E+00 -0.00000000000E+00 -0.11859489463E+03  0.11859489463E+03  0.00000000000E+00 0. -1.
         25    2    1    2    0    0  0.54663394869E+02 -0.36167988409E+02  0.65360157339E+02  0.15561109919E+03  0.12508658560E+03 0.  0.
          5    1    3    3  502    0  0.52592583251E+01  0.18712541553E+02 -0.29346198352E+02  0.35447013516E+02  0.41800000000E+01 0.  1.
         -5    1    3    3    0  502  0.49404136544E+02 -0.54880529961E+02  0.94706355691E+02  0.12016408567E+03  0.41800000000E+01 0.  1.
        -11    1    1    2    0    0 -0.27441908890E+02  0.49450516666E+01 -0.57329762781E+02  0.63751185087E+02  0.00000000000E+00 0. -1.
         11    1    1    2    0    0 -0.27221485979E+02  0.31222936742E+02  0.20250100120E+02  0.46107999660E+02  0.00000000000E+00 0.  1.
</event>
<event>
 7    1  0.2855090E-009  0.8626426E+02  0.7561462E-02  0.1312159E+00
         -1   -1    0    0    0  501 -0.00000000000E+00  0.00000000000E+00  0.19558683356E+02  0.19558683356E+02  0.00000000000E+00 0.  1.
          1   -1    0    0  501    0  0.00000000000E+00 -0.00000000000E+00 -0.11722290428E+04  0.11722290428E+04  0.00000000000E+00 0. -1.
         25    2    1    2    0    0  0.22302775059E+02  0.58655731086E+01 -0.10271727806E+04  0.10350187217E+04  0.12509202390E+03 0.  0.
          5    1    3    3  502    0 -0.20352618515E+02  0.31328142332E+02 -0.10547643458E+03  0.11197514115E+03  0.41800000000E+01 0.  1.
         -5    1    3    3    0  502  0.42655393573E+02 -0.25462569223E+02 -0.92169634597E+03  0.92304358055E+03  0.41800000000E+01 0.  1.
        -11    1    1    2    0    0 -0.11347383014E+02  0.38110348454E+02 -0.92572966015E+02  0.10075175332E+03  0.00000000000E+00 0. -1.
         11    1    1    2    0    0 -0.10955392044E+02 -0.43975921563E+02 -0.32924612892E+02  0.56017251149E+02  0.00000000000E+00 0.  1.
</event>
<event>
 7    1  0.2855090E-009  0.1853464E+03  0.7561462E-02  0.1162727E+00
         -2   -1    0    0    0  501 -0.00000000000E+00  0.00000000000E+00  0.10252381955E+03  0.10252381955E+03  0.00000000000E+00 0. -1.
          2   -1    0    0  501    0  0.00000000000E+00 -0.00000000000E+00 -0.35906404681E+03  0.35906404681E+03  0.00000000000E+00 0.  1.
         25    2    1    2    0    0  0.77092222398E+01  0.15560567272E+03 -0.11047016656E+03  0.22830577777E+03  0.12508922004E+03 0.  0.
          5    1    3    3  502    0  0.56137038022E+02  0.10486732991E+03 -0.32566752194E+02  0.12339606829E+03  0.41800000000E+01 0.  1.
         -5    1    3    3    0  502 -0.48427815783E+02  0.50738342815E+02 -0.77903414370E+02  0.10490970948E+03  0.41800000000E+01 0.  1.
        -11    1    1    2    0    0 -0.50456324218E+02 -0.81395204802E+02 -0.85571474357E+02  0.12842701134E+03  0.00000000000E+00 0. -1.
         11    1    1    2    0    0  0.42747101978E+02 -0.74210467922E+02 -0.60498586342E+02  0.10485507725E+03  0.00000000000E+00 0.  1.
</event>
<event>
 7    1  0.2855090E-009  0.1707132E+03  0.7561462E-02  0.1177106E+00
          1   -1    0    0  501    0  0.00000000000E+00  0.00000000000E+00  0.80115277625E+03  0.80115277625E+03  0.00000000000E+00 0. -1.
         -1   -1    0    0    0  501 -0.00000000000E+00 -0.00000000000E+00 -0.47905887302E+02  0.47905887302E+02  0.00000000000E+00 0.  1.
         25    2    1    2    0    0  0.13460765346E+01 -0.15150285202E+03  0.22618184736E+03  0.29960008029E+03  0.12508818466E+03 0.  0.
          5    1    3    3  502    0  0.57779952317E+02 -0.77017929290E+02  0.15304181048E+03  0.18085782393E+03  0.41800000000E+01 0.  1.
         -5    1    3    3    0  502 -0.56433875782E+02 -0.74484922730E+02  0.73140036880E+02  0.11874225636E+03  0.41800000000E+01 0.  1.
        -11    1    1    2    0    0 -0.90535633634E+00  0.12991158065E+03  0.39991534798E+03  0.42048795941E+03  0.00000000000E+00 0.  1.
         11    1    1    2    0    0 -0.44072019824E+00  0.21591271374E+02  0.12714969361E+03  0.12897062386E+03  0.00000000000E+00 0. -1.
</event>
<event>
 7    1  0.2855090E-009  0.1022425E+03  0.7561462E-02  0.1275650E+00
         -2   -1    0    0    0  501 -0.00000000000E+00  0.00000000000E+00  0.36234505078E+02  0.36234505078E+02  0.00000000000E+00 0.  1.
          2   -1    0    0  501    0  0.00000000000E+00 -0.00000000000E+00 -0.40980203430E+03  0.40980203430E+03  0.00000000000E+00 0. -1.
         25    2    1    2    0    0 -0.29200017398E+02  0.16340859132E+02 -0.28964960684E+03  0.31727727371E+03  0.12509320114E+03 0.  0.
          5    1    3    3  502    0 -0.68233363987E+02 -0.23737702554E+02 -0.18262869282E+03  0.19644333108E+03  0.41800000000E+01 0.  1.
         -5    1    3    3    0  502  0.39033346589E+02  0.40078561686E+02 -0.10702091402E+03  0.12083394263E+03  0.41800000000E+01 0.  1.
        -11    1    1    2    0    0 -0.11839197063E+02  0.18647706472E+02  0.68953850507E+01  0.23139789946E+02  0.00000000000E+00 0.  1.
         11    1    1    2    0    0  0.41039214460E+02 -0.34988565605E+02 -0.90813307433E+02  0.10561947573E+03  0.00000000000E+00 0. -1.
</event>
<event>
 7    1  0.2855090E-009  0.9543779E+02  0.7561462E-02  0.1290193E+00
          2   -1    0    0  501    0  0.00000000000E+00  0.00000000000E+00  0.38992838099E+02  0.38992838099E+02  0.00000000000E+00 0. -1.
         -2   -1    0    0    0  501 -0.00000000000E+00 -0.00000000000E+00 -0.47272624239E+03  0.47272624239E+03  0.00000000000E+00 0.  1.
         25    2    1    2    0    0 -0.10245203004E+02  0.64770606896E+02 -0.14799630742E+03  0.20457473669E+03  0.12509084771E+03 0.  0.
          5    1    3    3  502    0 -0.17333295074E+02  0.58575737899E+01 -0.14371572333E+03  0.14493597146E+03  0.41800000000E+01 0. -1.
         -5    1    3    3    0  502  0.70880920703E+01  0.58913033106E+02 -0.42805840889E+01  0.59638765238E+02  0.41800000000E+01 0. -1.
        -11    1    1    2    0    0 -0.27115656029E+02 -0.69840497678E+02 -0.19369667889E+03  0.20768090266E+03  0.00000000000E+00 0.  1.
         11    1    1    2    0    0  0.37360859033E+02  0.50698907827E+01 -0.92040417976E+02  0.99463441130E+02  0.00000000000E+00 0. -1.
</event>
<event>
 7    1  0.2855090E-009  0.6301600E+02  0.7561462E-02  0.1385594E+00
          1   -1    0    0  501    0  0.00000000000E+00  0.00000000000E+00  0.24417140641E+03  0.24417140641E+03  0.00000000000E+00 0. -1.
         -1   -1    0    0    0  501 -0.00000000000E+00 -0.00000000000E+00 -0.54397461417E+02  0.54397461417E+02  0.00000000000E+00 0.  1.
         25    2    1    2    0    0 -0.92209216310E+01  0.34936997842E+02  0.11763096512E+03  0.17547075269E+03  0.12508925565E+03 0.  0.
          5    1    3    3  502    0 -0.12002811781E+02  0.28786813825E+02 -0.20211687529E+02  0.37399637078E+02  0.41800000000E+01 0. -1.
         -5    1    3    3    0  502  0.27818901501E+01  0.61501840171E+01  0.13784265265E+03  0.13807111561E+03  0.41800000000E+01 0. -1.
        -11    1    1    2    0    0  0.41354877277E+02 -0.35475683097E+02  0.13355422718E+02  0.56099173629E+02  0.00000000000E+00 0.  1.
         11    1    1    2    0    0 -0.32133955646E+02  0.53868525508E+00  0.58787557157E+02  0.66998941513E+02  0.00000000000E+00 0. -1.
</event>
<event>
 7    1  0.2855090E-009  0.2168223E+03  0.7561462E-02  0.1136275E+00
          1   -1    0    0  501    0  0.00000000000E+00  0.00000000000E+00  0.10876215829E+03  0.10876215829E+03  0.00000000000E+00 0. -1.
         -1   -1    0    0    0  501 -0.00000000000E+00 -0.00000000000E+00 -0.50669933233E+03  0.50669933233E+03  0.00000000000E+00 0.  1.
         25    2    1    2    0    0  0.30834857473E+02 -0.19655050862E+03 -0.29206316990E+03  0.37487618597E+03  0.12509343996E+03 0.  0.
          5    1    3    3  502    0 -0.25209351939E+02 -0.17025591928E+03 -0.22790147306E+03  0.28562062828E+03  0.41800000000E+01 0. -1.
         -5    1    3    3    0  502  0.56044209413E+02 -0.26294589338E+02 -0.64161696839E+02  0.89255557689E+02  0.41800000000E+01 0. -1.
        -11    1    1    2    0    0 -0.27388860175E+02  0.13299615128E+03 -0.25664759818E+02  0.13819119297E+03  0.00000000000E+00 0. -1.
         11    1    1    2    0    0 -0.34459972985E+01  0.63554357336E+02 -0.80209244328E+02  0.10239411169E+03  0.00000000000E+00 0.  1.
</event>
<event>
 7    1  0.2855090E-009  0.1155470E+03  0.7561462E-02  0.1250629E+00
         -2   -1    0    0    0  501 -0.00000000000E+00  0.00000000000E+00  0.12176400848E+03  0.12176400848E+03  0.00000000000E+00 0.  1.
          2   -1    0    0  501    0  0.00000000000E+00 -0.00000000000E+00 -0.15016646398E+03  0.15016646398E+03  0.00000000000E+00 0. -1.
         25    2    1    2    0    0 -0.67767433363E+02  0.28517448567E+02  0.16411326579E+02  0.14602145829E+03  0.12508902727E+03 0.  0.
          5    1    3    3  502    0 -0.90591579590E+02 -0.66311945573E+00 -0.21123506257E+02  0.93117930264E+02  0.41800000000E+01 0.  1.
         -5    1    3    3    0  502  0.22824146228E+02  0.29180568023E+02  0.37534832836E+02  0.52903528022E+02  0.41800000000E+01 0.  1.
        -11    1    1    2    0    0  0.38371675207E+02  0.22324700194E+02 -0.50105268687E+02  0.66942629521E+02  0.00000000000E+00 0. -1.
         11    1    1    2    0    0  0.29395758155E+02 -0.50842148761E+02  0.52914866082E+01  0.58966384650E+02  0.00000000000E+00 0.  1.
</event>
<event>
 7    1  0.2855090E-009  0.1103064E+03  0.7561462E-02  0.1260003E+00
          1   -1    0    0  501    0  0.00000000000E+00  0.00000000000E+00  0.21252861190E+03  0.21252861190E+03  0.00000000000E+00 0. -1.
         -1   -1    0    0    0  501 -0.00000000000E+00 -0.00000000000E+00 -0.62733771140E+02  0.62733771140E+02  0.00000000000E+00 0.  1.
         25    2    1    2    0    0 -0.20546788683E+02  0.20125917381E+02  0.50380654640E+02  0.13787191667E+03  0.12507290661E+03 0.  0.
          5    1    3    3  502    0 -0.64672436030E+02 -0.19226039478E+02  0.37176170608E+02  0.77147291833E+02  0.41800000000E+01 0.  1.
         -5    1    3    3    0  502  0.44125647348E+02  0.39351956859E+02  0.13204484032E+02  0.60724624832E+02  0.41800000000E+01 0.  1.
        -11    1    1    2    0    0  0.23872180063E+02 -0.54347539197E+02  0.72662936575E+02  0.93826639870E+02  0.00000000000E+00 0. -1.
         11    1    1    2    0    0 -0.33253913799E+01  0.34221621816E+02  0.26751249549E+02  0.43563826507E+02  0.00000000000E+00 0.  1.
</event>
<event>
 7    1  0.2855090E-009  0.8336512E+02  0.7561462E-02  0.1319764E+00
          2   -1    0    0  501    0  0.00000000000E+00  0.00000000000E+00  0.34232732180E+03  0.34232732180E+03  0.00000000000E+00 0. -1.
         -2   -1    0    0    0  501 -0.00000000000E+00 -0.00000000000E+00 -0.63619988743E+02  0.63619988743E+02  0.00000000000E+00 0.  1.
         25    2    1    2    0    0  0.37116122420E+01  0.55586806058E-01  0.28819723426E+03  0.31420778740E+03  0.12512037673E+03 0.  0.
          5    1    3    3  502    0 -0.14981503012E+02 -0.51576652037E+02  0.65526127239E+02  0.84827720816E+02  0.41800000000E+01 0.  1.
         -5    1    3    3    0  502  0.18693115254E+02  0.51632238843E+02  0.22267110702E+03  0.22938006659E+03  0.41800000000E+01 0.  1.
        -11    1    1    2    0    0  0.25555883185E+02  0.90917105837E+01  0.30843116198E+02  0.41073838188E+02  0.00000000000E+00 0. -1.
         11    1    1    2    0    0 -0.29267495427E+02 -0.91472973898E+01 -0.40333017406E+02  0.50665684947E+02  0.00000000000E+00 0.  1.
</event>
<event>
 7    1  0.2855090E-009  0.9695481E+02  0.7561462E-02  0.1286833E+00
         -1   -1    0    0    0  501 -0.00000000000E+00  0.00000000000E+00  0.23263877167E+03  0.23263877167E+03  0.00000000000E+00 0.  1.
          1   -1    0    0  501    0  0.00000000000E+00 -0.00000000000E+00 -0.79952025236E+02  0.79952025236E+02  0.00000000000E+00 0. -1.
         25    2    1    2    0    0 -0.55987484021E+02  0.58857476136E+02  0.49291170073E+02  0.15708596782E+03  0.12509029129E+03 0.  0.
          5    1    3    3  502    0 -0.22907700068E+02  0.38984569884E+02  0.90018950201E+02  0.10082382262E+03  0.41800000000E+01 0.  1.
         -5    1    3    3    0  502 -0.33079783954E+02  0.19872906252E+02 -0.40727780129E+02  0.56262145209E+02  0.41800000000E+01 0.  1.
        -11    1    1    2    0    0  0.11489946604E+02 -0.63878976149E+02  0.34960562676E+02  0.73720983509E+02  0.00000000000E+00 0. -1.
         11    1    1    2    0    0  0.44497537417E+02  0.50215000132E+01  0.68435013684E+02  0.81783845572E+02  0.00000000000E+00 0.  1.
</event>
<event>
 7    1  0.2855090E-009  0.1396282E+03  0.7561462E-02  0.1213830E+00
         -1   -1    0    0    0  501 -0.00000000000E+00  0.00000000000E+00  0.53230169998E+02  0.53230169998E+02  0.00000000000E+00 0.  1.
          1   -1    0    0  501    0  0.00000000000E+00 -0.00000000000E+00 -0.48785713060E+03  0.48785713060E+03  0.00000000000E+00 0. -1.
         25    2    1    2    0    0 -0.79547828193E+02  0.49134285518E+02 -0.11874608690E+03  0.19618910114E+03  0.12508994872E+03 0.  0.
          5    1    3    3  502    0 -0.80028950086E+02 -0.17571207582E+02 -0.35400108748E+02  0.89353345137E+02  0.41800000000E+01 0. -1.
         -5    1    3    3    0  502  0.48112189340E+00  0.66705493100E+02 -0.83345978149E+02  0.10683575601E+03  0.41800000000E+01 0. -1.
        -11    1    1    2    0    0  0.11604638266E+02 -0.60400845822E+02 -0.20804255040E+03  0.21694384661E+03  0.00000000000E+00 0. -1.
         11    1    1    2    0    0  0.67943189927E+02  0.11266560304E+02 -0.10783832331E+03  0.12795435284E+03  0.00000000000E+00 0.  1.
</event>
<event>
 7    1  0.2855090E-009  0.1400862E+03  0.7561462E-02  0.1213213E+00
         -1   -1    0    0    0  501 -0.00000000000E+00  0.00000000000E+00  0.20005864866E+02  0.20005864866E+02  0.00000000000E+00 0.  1.
          1   -1    0    0  501    0  0.00000000000E+00 -0.00000000000E+00 -0.31757931268E+04  0.31757931268E+04  0.00000000000E+00 0. -1.
         25    2    1    2    0    0  0.79976199406E+02 -0.77701361422E+02 -0.28786627694E+04  0.28835361768E+04  0.12509136043E+03 0.  0.
          5    1    3    3  502    0  0.21396395830E+02 -0.86699892824E+02 -0.23202297185E+04  0.23219513552E+04  0.41800000000E+01 0.  1.
         -5    1    3    3    0  502  0.58579803576E+02  0.89985314013E+01 -0.55843305099E+03  0.56158482155E+03  0.41800000000E+01 0.  1.
        -11    1    1    2    0    0 -0.79891554380E+02  0.32646363015E+02 -0.11372176356E+03  0.14276233743E+03  0.00000000000E+00 0.  1.
         11    1    1    2    0    0 -0.84645026244E-01  0.45054998408E+02 -0.16340272894E+03  0.16950047749E+03  0.00000000000E+00 0. -1.
</event>
<event>
 7    1  0.2855090E-009  0.1195746E+03  0.7561462E-02  0.1243801E+00
          1   -1    0    0  501    0  0.00000000000E+00  0.00000000000E+00  0.27125534522E+04  0.27125534522E+04  0.00000000000E+00 0. -1.
         -1   -1    0    0    0  501 -0.00000000000E+00 -0.00000000000E+00 -0.10354956402E+02  0.10354956402E+02  0.00000000000E+00 0.  1.
         25    2    1    2    0    0 -0.40651973934E+02 -0.40084846299E+02  0.23694750024E+04  0.23734613311E+04  0.12509006879E+03 0.  0.
          5    1    3    3  502    0  0.12745634054E+02 -0.73172069180E+02  0.13391684866E+04  0.13412331307E+04  0.41800000000E+01 0. -1.
         -5    1    3    3    0  502 -0.53397607989E+02  0.33087222880E+02  0.10303065158E+04  0.10322282004E+04  0.41800000000E+01 0. -1.
        -11    1    1    2    0    0 -0.43618341253E+01  0.54393315761E+02  0.12449755433E+03  0.13593123052E+03  0.00000000000E+00 0.  1.
         11    1    1    2    0    0  0.45013808060E+02 -0.14308469461E+02  0.20822593907E+03  0.21351584699E+03  0.00000000000E+00 0. -1.
</event>
<event>
 7    1  0.3307362E-009  0.1042066E+03  0.7561462E-02  0.1271691E+00
         -2   -1    0    0    0  501 -0.00000000000E+00  0.00000000000E+00  0.47005036799E+02  0.47005036799E+02  0.00000000000E+00 0.  1.
          2   -1    0    0  501    0  0.00000000000E+00 -0.00000000000E+00 -0.48564212551E+03  0.48564212551E+03  0.00000000000E+00 0. -1.
         25    2    1    2    0    0 -0.74356945894E+02 -0.65390066627E+02 -0.29663104994E+03  0.33681191162E+03  0.12508983895E+03 0.  0.
          5    1    3    3  502    0 -0.51231269045E+02 -0.33758732391E+02 -0.32115046556E+02  0.69376822902E+02  0.41800000000E+01 0.  1.
         -5    1    3    3    0  502 -0.23125676849E+02 -0.31631334236E+02 -0.26451600338E+03  0.26743508872E+03  0.41800000000E+01 0.  1.
        -11    1    1    2    0    0  0.64959886440E+01  0.30543068376E+02  0.36229198851E+01  0.31435687407E+02  0.00000000000E+00 0.  1.
         11    1    1    2    0    0  0.67860957250E+02  0.34846998251E+02 -0.14562895866E+03  0.16439956328E+03  0.00000000000E+00 0. -1.
</event>
<event>
 7    1  0.2855090E-009  0.1065214E+03  0.7561462E-02  0.1267151E+00
          2   -1    0    0  501    0  0.00000000000E+00  0.00000000000E+00  0.13001180086E+03  0.13001180086E+03  0.00000000000E+00 0.  1.
         -2   -1    0    0    0  501 -0.00000000000E+00 -0.00000000000E+00 -0.13426541320E+03  0.13426541320E+03  0.00000000000E+00 0. -1.
         25    2    1    2    0    0  0.29979137383E+01 -0.43977839730E+02 -0.66463145016E+02  0.14835050969E+03  0.12508991249E+03 0.  0.
          5    1    3    3  502    0 -0.27525703256E+02  0.26708738457E+02 -0.59519205347E+02  0.70929748730E+02  0.41800000000E+01 0.  1.
         -5    1    3    3    0  502  0.30523616994E+02 -0.70686578187E+02 -0.69439396684E+01  0.77420760965E+02  0.41800000000E+01 0.  1.
        -11    1    1    2    0    0 -0.28016464609E+02  0.60977363387E+02  0.48014589794E+02  0.82514010737E+02  0.00000000000E+00 0. -1.
         11    1    1    2    0    0  0.25018550871E+02 -0.16999523657E+02  0.14194942883E+02  0.33412693631E+02  0.00000000000E+00 0.  1.
</event>
<event>
 7    1  0.2855090E-009  0.1005100E+03  0.7561462E-02  0.1279227E+00
          1   -1    0    0  501    0  0.00000000000E+00  0.00000000000E+00  0.13080305414E+03  0.13080305414E+03  0.00000000000E+00 0. -1.
         -1   -1    0    0    0  501 -0.00000000000E+00 -0.00000000000E+00 -0.10247823329E+03  0.10247823329E+03  0.00000000000E+00 0.  1.
         25    2    1    2    0    0 -0.44640629408E+01  0.34305966755E+02 -0.91587468070E+01  0.13011054298E+03  0.12509214019E+03 0.  0.
          5    1    3    3  502    0 -0.32809163472E+02 -0.38781698419E+02 -0.80357916945E+01  0.51599493100E+02  0.41800000000E+01 0. -1.
         -5    1    3    3    0  502  0.28345100531E+02  0.73087665174E+02 -0.11229551125E+01  0.78511049877E+02  0.41800000000E+01 0. -1.
        -11    1    1    2    0    0 -0.27545516603E+02 -0.46970602407E+01 -0.17519244966E+02  0.32980930915E+02  0.00000000000E+00 0.  1.
         11    1    1    2    0    0  0.32009579543E+02 -0.29608906514E+02  0.55002812622E+02  0.70189813533E+02  0.00000000000E+00 0. -1.
</event>
<event>
 7    1  0.2855090E-009  0.1055417E+03  0.7561462E-02  0.1269056E+00
         -1   -1    0    0    0  501 -0.00000000000E+00  0.00000000000E+00  0.25086236295E+03  0.25086236295E+03  0.00000000000E+00 0.  1.
          1   -1    0    0  501    0  0.00000000000E+00 -0.00000000000E+00 -0.76595736149E+02  0.76595736149E+02  0.00000000000E+00 0. -1.
         25    2    1    2    0    0  0.10737618647E+02 -0.70648558910E+02  0.43867450306E+02  0.15058301273E+03  0.12507747678E+03 0.  0.
          5    1    3    3  502    0 -0.52312733340E+02 -0.50289309736E+02  0.42464778930E+02  0.84180559471E+02  0.41800000000E+01 0. -1.
         -5    1    3    3    0  502  0.63050351986E+02 -0.20359249174E+02  0.14026713761E+01  0.66402453264E+02  0.41800000000E+01 0. -1.
        -11    1    1    2    0    0 -0.10295934108E+02  0.38318297328E+02  0.13805853282E+03  0.14364698623E+03  0.00000000000E+00 0.  1.
         11    1    1    2    0    0 -0.44168453818E+00  0.32330261583E+02 -0.76593563230E+01  0.33228100134E+02  0.00000000000E+00 0. -1.
</event>
<event>
 7    1  0.2855090E-009  0.9356470E+02  0.7561462E-02  0.1294442E+00
          4   -1    0    0  501    0  0.00000000000E+00  0.00000000000E+00  0.14079321401E+03  0.14079321401E+03  0.00000000000E+00 0. -1.
         -4   -1    0    0    0  501 -0.00000000000E+00 -0.00000000000E+00 -0.10374662966E+03  0.10374662966E+03  0.00000000000E+00 0.  1.
         25    2    1    2    0    0  0.23973621159E+02 -0.42214634693E+02  0.47972818759E+02  0.14247300698E+03  0.12506141085E+03 0.  0.
          5    1    3    3  502    0 -0.48496838583E+02 -0.20484526204E+01  0.31136395933E+02  0.57819434989E+02  0.41800000000E+01 0.  1.
         -5    1    3    3    0  502  0.72470459743E+02 -0.40166182072E+02  0.16836422826E+02  0.84653571993E+02  0.41800000000E+01 0.  1.
        -11    1    1    2    0    0 -0.25884713926E+02  0.18890105946E+02  0.36869677156E+02  0.48849028765E+02  0.00000000000E+00 0. -1.
         11    1    1    2    0    0  0.19110927668E+01  0.23324528747E+02 -0.47795911566E+02  0.53217807915E+02  0.00000000000E+00 0.  1.
</event>
<event>
 7    1  0.2855090E-009  0.7607473E+02  0.7561462E-02  0.1340575E+00
         -3   -1    0    0    0  501 -0.00000000000E+00  0.00000000000E+00  0.52599289049E+03  0.52599289049E+03  0.00000000000E+00 0. -1.
          3   -1    0    0  501    0  0.00000000000E+00 -0.00000000000E+00 -0.35709754090E+02  0.35709754090E+02  0.00000000000E+00 0.  1.
         25    2    1    2    0    0  0.68973768523E+01  0.26075524880E+02  0.43502601554E+03  0.45345632963E+03  0.12508997514E+03 0.  0.
          5    1    3    3  502    0  0.20667388321E+02  0.38236071883E+02  0.43220585248E+03  0.43440592704E+03  0.41800000000E+01 0. -1.
         -5    1    3    3    0  502 -0.13770011468E+02 -0.12160547003E+02  0.28201630651E+01  0.19050402593E+02  0.41800000000E+01 0. -1.
        -11    1    1    2    0    0  0.11013881910E+01 -0.57351260034E+02  0.48828753898E+02  0.75330122068E+02  0.00000000000E+00 0. -1.
         11    1    1    2    0    0 -0.79987650433E+01  0.31275735154E+02  0.64283669554E+01  0.32916192875E+02  0.00000000000E+00 0.  1.
</event>
<event>
 7    1  0.2855090E-009  0.1116539E+03  0.7561462E-02  0.1257537E+00
          1   -1    0    0  501    0  0.00000000000E+00  0.00000000000E+00  0.74547639881E+03  0.74547639881E+03  0.00000000000E+00 0. -1.
         -1   -1    0    0    0  501 -0.00000000000E+00 -0.00000000000E+00 -0.29716067551E+02  0.29716067551E+02  0.00000000000E+00 0.  1.
         25    2    1    2    0    0 -0.48562112523E+02 -0.78318740986E+02  0.36517754048E+03  0.39685588352E+03  0.12509137561E+03 0.  0.
          5    1    3    3  502    0 -0.44949380737E+02 -0.80634520867E+02  0.11929845653E+03  0.15090383333E+03  0.41800000000E+01 0. -1.
         -5    1    3    3    0  502 -0.36127317864E+01  0.23157798811E+01  0.24587908395E+03  0.24595205019E+03  0.41800000000E+01 0. -1.
        -11    1    1    2    0    0  0.64248518538E+02  0.24357142804E+02  0.98701475185E+02  0.12026272799E+03  0.00000000000E+00 0.  1.
         11    1    1    2    0    0 -0.15686406015E+02  0.53961598181E+02  0.25188131559E+03  0.25807385485E+03  0.00000000000E+00 0. -1.
</event>
<event>
 7    1  0.2855090E-009  0.1157396E+03  0.7561462E-02  0.1250296E+00
          1   -1    0    0  501    0  0.00000000000E+00  0.00000000000E+00  0.67583721581E+03  0.67583721581E+03  0.00000000000E+00 0. -1.
         -1   -1    0    0    0  501 -0.00000000000E+00 -0.00000000000E+00 -0.27184202975E+02  0.27184202975E+02  0.00000000000E+00 0.  1.
         25    2    1    2    0    0 -0.31387310862E+02  0.37511726694E+02  0.52417233178E+03  0.54110653786E+03  0.12508940397E+03 0.  0.
          5    1    3    3  502    0  0.46120071697E+02  0.19861868070E+02  0.27336581510E+03  0.27797103461E+03  0.41800000000E+01 0.  1.
         -5    1    3    3    0  502 -0.77507382559E+02  0.17649858624E+02  0.25080651668E+03  0.26313550325E+03  0.41800000000E+01 0.  1.
        -11    1    1    2    0    0 -0.25355477884E+01 -0.60472777125E+02  0.89520151626E+02  0.10806129429E+03  0.00000000000E+00 0.  1.
         11    1    1    2    0    0  0.33922858650E+02  0.22961050431E+02  0.34960529424E+02  0.53853586636E+02  0.00000000000E+00 0. -1.
</event>
<event>
 7    1  0.2855090E-009  0.7767705E+02  0.7561462E-02  0.1335776E+00
         -1   -1    0    0    0  501 -0.00000000000E+00  0.00000000000E+00  0.25778864498E+02  0.25778864498E+02  0.00000000000E+00 0.  1.
          1   -1    0    0  501    0  0.00000000000E+00 -0.00000000000E+00 -0.91774604036E+03  0.91774604036E+03  0.00000000000E+00 0. -1.
         25    2    1    2    0    0  0.30909985745E+00 -0.39344081280E+01 -0.81307381628E+03  0.82264567418E+03  0.12506518065E+03 0.  0.
          5    1    3    3  502    0  0.26746099825E+02 -0.45407276728E+02 -0.17872515822E+03  0.18637953003E+03  0.41800000000E+01 0. -1.
         -5    1    3    3    0  502 -0.26436999968E+02  0.41472868600E+02 -0.63434865807E+03  0.63626614415E+03  0.41800000000E+01 0. -1.
        -11    1    1    2    0    0 -0.26405158451E+02 -0.15994837176E+01 -0.88620702014E+02  0.92484699094E+02  0.00000000000E+00 0. -1.
         11    1    1    2    0    0  0.26096058594E+02  0.55338918456E+01  0.97273424342E+01  0.28394531585E+02  0.00000000000E+00 0.  1.
</event>
<event>
 7    1  0.2855090E-009  0.1146897E+03  0.7561462E-02  0.1252124E+00
          2   -1    0    0  501    0  0.00000000000E+00  0.00000000000E+00  0.28612954759E+03  0.28612954759E+03  0.00000000000E+00 0.  1.
         -2   -1    0    0    0  501 -0.00000000000E+00 -0.00000000000E+00 -0.48791962450E+02  0.48791962450E+02  0.00000000000E+00 0. -1.
         25    2    1    2    0    0  0.38574435018E+02  0.15848759870E+02  0.15831185278E+03  0.20604407853E+03  0.12510934952E+03 0.  0.
          5    1    3    3  502    0 -0.37035674729E+02 -0.25035407397E+02  0.43077288001E+02  0.62221684063E+02  0.41800000000E+01 0.  1.
         -5    1    3    3    0  502  0.75610109747E+02  0.40884167267E+02  0.11523456478E+03  0.14382239446E+03  0.41800000000E+01 0.  1.
        -11    1    1    2    0    0 -0.35598733047E+02 -0.51523134189E+02  0.65468069288E+02  0.90597854541E+02  0.00000000000E+00 0.  1.
         11    1    1    2    0    0 -0.29757019713E+01  0.35674374319E+02  0.13557663071E+02  0.38279576973E+02  0.00000000000E+00 0. -1.
</event>
<event>
 7    1  0.2855090E-009  0.5497711E+02  0.7561462E-02  0.1420207E+00
          1   -1    0    0  501    0  0.00000000000E+00  0.00000000000E+00  0.43945773300E+03  0.43945773300E+03  0.00000000000E+00 0. -1.
         -1   -1    0    0    0  501 -0.00000000000E+00 -0.00000000000E+00 -0.34537240605E+02  0.34537240605E+02  0.00000000000E+00 0.  1.
         25    2    1    2    0    0  0.12111228929E+01 -0.41591441493E+02  0.31308642167E+03  0.33970851021E+03  0.12508976636E+03 0.  0.
          5    1    3    3  502    0 -0.13403744401E+02 -0.64760029394E+00 -0.76567000851E+01  0.16005536739E+02  0.41800000000E+01 0.  1.
         -5    1    3    3    0  502  0.14614867294E+02 -0.40943841199E+02  0.32074312176E+03  0.32370297347E+03  0.41800000000E+01 0.  1.
        -11    1    1    2    0    0  0.13229425361E+02  0.32678170209E+02 -0.53268918646E+01  0.35654681046E+02  0.00000000000E+00 0.  1.
         11    1    1    2    0    0 -0.14440548253E+02  0.89132712844E+01  0.97160962587E+02  0.98631782351E+02  0.00000000000E+00 0. -1.
</event>
<event>
 7    1  0.2855090E-009  0.1194935E+03  0.7561462E-02  0.1243935E+00
         -2   -1    0    0    0  501 -0.00000000000E+00  0.00000000000E+00  0.15727555263E+03  0.15727555263E+03  0.00000000000E+00 0.  1.
          2   -1    0    0  501    0  0.00000000000E+00 -0.00000000000E+00 -0.12317735155E+03  0.12317735155E+03  0.00000000000E+00 0. -1.
         25    2    1    2    0    0  0.72575939101E+02 -0.46792384648E+02  0.33509405849E+02  0.15564842808E+03  0.12508700446E+03 0.  0.
          5    1    3    3  502    0 -0.16555573757E+02 -0.67842620448E+01 -0.32732046710E+02  0.37536282657E+02  0.41800000000E+01 0.  1.
         -5    1    3    3    0  502  0.89131512858E+02 -0.40008122603E+02  0.66241452559E+02  0.11811214542E+03  0.41800000000E+01 0.  1.
        -11    1    1    2    0    0  0.39315491311E+01  0.46147854891E+02  0.10961088211E+02  0.47594401397E+02  0.00000000000E+00 0.  1.
         11    1    1    2    0    0 -0.76507488232E+02  0.64452975719E+00 -0.10372292979E+02  0.77210074704E+02  0.00000000000E+00 0. -1.
</event>
<event>
 7    1  0.2855090E-009  0.9700913E+02  0.7561462E-02  0.1286714E+00
          2   -1    0    0  501    0  0.00000000000E+00  0.00000000000E+00  0.57342230047E+02  0.57342230047E+02  0.00000000000E+00 0.  1.
         -2   -1    0    0    0  501 -0.00000000000E+00 -0.00000000000E+00 -0.22483785769E+03  0.22483785769E+03  0.00000000000E+00 0. -1.
         25    2    1    2    0    0 -0.13102748276E+02  0.72039292826E+01 -0.13446954135E+03  0.18426053228E+03  0.12508520135E+03 0.  0.
          5    1    3    3  502    0  0.40793652964E+02 -0.15140431434E+02 -0.11432135373E+03  0.12239362363E+03  0.41800000000E+01 0. -1.
         -5    1    3    3    0  502 -0.53896401240E+02  0.22344360717E+02 -0.20148187622E+02  0.61866908658E+02  0.41800000000E+01 0. -1.
        -11    1    1    2    0    0 -0.47416847356E+01 -0.47502435789E+02 -0.21551053164E+02  0.52377598957E+02  0.00000000000E+00 0. -1.
         11    1    1    2    0    0  0.17844433012E+02  0.40298506506E+02 -0.11475033128E+02  0.45541956496E+02  0.00000000000E+00 0.  1.
</event>
<event>
 7    1  0.2855090E-009  0.1430001E+03  0.7561462E-02  0.1209348E+00
          2   -1    0    0  501    0  0.00000000000E+00  0.00000000000E+00  0.70317953448E+02  0.70317953448E+02  0.00000000000E+00 0. -1.
         -2   -1    0    0    0  501 -0.00000000000E+00 -0.00000000000E+00 -0.41591001750E+03  0.41591001750E+03  0.00000000000E+00 0.  1.
         25    2    1    2    0    0 -0.70339588496E+02 -0.95926688861E+02 -0.26085328923E+03  0.31278249464E+03  0.12505544013E+03 0.  0.
          5    1    3    3  502    0 -0.58443009796E+02 -0.19261846344E+02 -0.21250041433E+03  0.22127020271E+03  0.41800000000E+01 0.  1.
         -5    1    3    3    0  502 -0.11896578700E+02 -0.76664842518E+02 -0.48352874905E+02  0.91512291932E+02  0.41800000000E+01 0.  1.
        -11    1    1    2    0    0 -0.12653275602E+02  0.50408426846E+02 -0.51383173871E+02  0.73084508876E+02  0.00000000000E+00 0.  1.
         11    1    1    2    0    0  0.82992864098E+02  0.45518262015E+02 -0.33355600943E+02  0.10036096742E+03  0.00000000000E+00 0. -1.
</event>
<event>
 7    1  0.2855090E-009  0.1151639E+03  0.7561462E-02  0.1251295E+00
          1   -1    0    0  501    0  0.00000000000E+00  0.00000000000E+00  0.58548997124E+03  0.58548997124E+03  0.00000000000E+00 0. -1.
         -1   -1    0    0    0  501 -0.00000000000E+00 -0.00000000000E+00 -0.33577415899E+02  0.33577415899E+02  0.00000000000E+00 0.  1.
         25    2    1    2    0    0 -0.67723174696E+02  0.32659450744E+02  0.40685366748E+03  0.43223910062E+03  0.12509062814E+03 0.  0.
          5    1    3    3  502    0  0.28417702945E+02  0.17219653333E+02  0.20918623669E+03  0.21185003262E+03  0.41800000000E+01 0. -1.
         -5    1    3    3    0  502 -0.96140877640E+02  0.15439797411E+02  0.19766743079E+03  0.22038906799E+03  0.41800000000E+01 0. -1.
        -11    1    1    2    0    0  0.22519921647E+02 -0.46863383607E+02  0.12498654011E+03  0.13536971154E+03  0.00000000000E+00 0.  1.
         11    1    1    2    0    0  0.45203253048E+02  0.14203932864E+02  0.20072347759E+02  0.51458574985E+02  0.00000000000E+00 0. -1.
</event>
<event>
 6    1  0.2855090E-009  0.1035761E+03  0.7561462E-02  0.1272951E+00
          2   -1    0    0  501    0  0.00000000000E+00  0.00000000000E+00  0.42226466954E+03  0.42226466954E+03  0.00000000000E+00 0.  1.
         -2   -1    0    0    0  501 -0.00000000000E+00 -0.00000000000E+00 -0.39929846161E+02  0.39929846161E+02  0.00000000000E+00 0. -1.
          5    1    1    2  502    0  0.16119650070E+02 -0.94738064643E+01  0.19038717871E+03  0.19134875580E+03  0.41800000000E+01 0. -1.
         -5    1    1    2    0  502  0.15147036933E+02  0.72672528599E+02  0.53536591741E+02  0.91620784738E+02  0.41800000000E+01 0. -1.
        -11    1    1    2    0    0 -0.34127146143E+02  0.13638049179E+02  0.39666879742E+02  0.54075131416E+02  0.00000000000E+00 0.  1.
         11    1    1    2    0    0  0.28604591394E+01 -0.76836771314E+02  0.98744173181E+02  0.12514984375E+03  0.00000000000E+00 0. -1.
</event>
<event>
 7    1  0.2855090E-009  0.1242396E+03  0.7561462E-02  0.1236262E+00
          2   -1    0    0  501    0  0.00000000000E+00  0.00000000000E+00  0.55041990286E+03  0.55041990286E+03  0.00000000000E+00 0.  1.
         -2   -1    0    0    0  501 -0.00000000000E+00 -0.00000000000E+00 -0.42072199359E+02  0.42072199359E+02  0.00000000000E+00 0. -1.
         25    2    1    2    0    0  0.60207936264E+02  0.88901756513E+02  0.29078082511E+03  0.33425899108E+03  0.12508823671E+03 0.  0.
          5    1    3    3  502    0  0.43281074975E+02  0.78690465342E+02  0.29916568334E+03  0.31238280887E+03  0.41800000000E+01 0.  1.
         -5    1    3    3    0  502  0.16926861289E+02  0.10211291171E+02 -0.83848582312E+01  0.21876182208E+02  0.41800000000E+01 0.  1.
        -11    1    1    2    0    0 -0.83105153464E+02 -0.68380943045E+02  0.17961064973E+03  0.20938578128E+03  0.00000000000E+00 0.  1.
         11    1    1    2    0    0  0.22897217200E+02 -0.20520813468E+02  0.37956228654E+02  0.48847329861E+02  0.00000000000E+00 0. -1.
</event>
<event>
 7    1  0.2855090E-009  0.1014024E+03  0.7561462E-02  0.1277374E+00
         -1   -1    0    0    0  501 -0.00000000000E+00  0.00000000000E+00  0.33117153160E+02  0.33117153160E+02  0.00000000000E+00 0.  1.
          1   -1    0    0  501    0  0.00000000000E+00 -0.00000000000E+00 -0.55534616860E+03  0.55534616860E+03  0.00000000000E+00 0. -1.
         25    2    1    2    0    0  0.36936132948E+02  0.49406177121E+02 -0.39739954527E+03  0.42116390275E+03  0.12508951254E+03 0.  0.
          5    1    3    3  502    0 -0.86190185207E+01 -0.11838516689E+02  0.12230848880E+01  0.15277640338E+02  0.41800000000E+01 0.  1.
         -5    1    3    3    0  502  0.45555151469E+02  0.61244693810E+02 -0.39862263015E+03  0.40588626241E+03  0.41800000000E+01 0.  1.
        -11    1    1    2    0    0 -0.44223963455E+02 -0.73600151401E+02 -0.91565925370E+02  0.12552712822E+03  0.00000000000E+00 0. -1.
         11    1    1    2    0    0  0.72878305067E+01  0.24193974280E+02 -0.33263544802E+02  0.41772290789E+02  0.00000000000E+00 0.  1.
</event>
<event>
 7    1  0.2855090E-009  0.2008246E+03  0.7561462E-02  0.1149045E+00
          1   -1    0    0  501    0  0.00000000000E+00  0.00000000000E+00  0.49096370652E+02  0.49096370652E+02  0.00000000000E+00 0. -1.
         -1   -1    0    0    0  501 -0.00000000000E+00 -0.00000000000E+00 -0.10865626846E+04  0.10865626846E+04  0.00000000000E+00 0.  1.
         25    2    1    2    0    0  0.11638321444E+03 -0.14244269585E+03 -0.75351509114E+03  0.78566329700E+03  0.12508736736E+03 0.  0.
          5    1    3    3  502    0  0.76561001128E+02 -0.22349458935E+02 -0.16033434635E+03  0.17912470580E+03  0.41800000000E+01 0.  1.
         -5    1    3    3    0  502  0.39822213308E+02 -0.12009323692E+03 -0.59318074479E+03  0.60653859120E+03  0.41800000000E+01 0.  1.
        -11    1    1    2    0    0 -0.92144526066E+02  0.61714219425E+02 -0.10752956922E+03  0.15447286758E+03  0.00000000000E+00 0.  1.
         11    1    1    2    0    0 -0.24238688370E+02  0.80728476428E+02 -0.17642165361E+03  0.19552289069E+03  0.00000000000E+00 0. -1.
</event>
<event>
 7    1  0.2855090E-009  0.1410371E+03  0.7561462E-02  0.1211940E+00
         -1   -1    0    0    0  501 -0.00000000000E+00  0.00000000000E+00  0.24195764135E+03  0.24195764135E+03  0.00000000000E+00 0.  1.
          1   -1    0    0  501    0  0.00000000000E+00 -0.00000000000E+00 -0.10195818497E+03  0.10195818497E+03  0.00000000000E+00 0. -1.
         25    2    1    2    0    0  0.87433256310E+02 -0.59036422050E+02  0.12130513682E+03  0.20369543863E+03  0.12508805724E+03 0.  0.
          5    1    3    3  502    0 -0.24247994981E+02 -0.14071870138E+02  0.64611860633E+02  0.70555989996E+02  0.41800000000E+01 0.  1.
         -5    1    3    3    0  502  0.11168125129E+03 -0.44964551912E+02  0.56693276183E+02  0.13313944864E+03  0.41800000000E+01 0.  1.
        -11    1    1    2    0    0 -0.82533296147E+02  0.90396253717E+01  0.30783539577E+02  0.88549907446E+02  0.00000000000E+00 0.  1.
         11    1    1    2    0    0 -0.48999601635E+01  0.49996796678E+02 -0.12089220010E+02  0.51670480239E+02  0.00000000000E+00 0. -1.
</event>
<event>
 7    1  0.2855090E-009  0.1871965E+03  0.7561462E-02  0.1161015E+00
          2   -1    0    0  501    0  0.00000000000E+00  0.00000000000E+00  0.57438447676E+03  0.57438447676E+03  0.00000000000E+00 0. -1.
         -2   -1    0    0    0  501 -0.00000000000E+00 -0.00000000000E+00 -0.74234128920E+02  0.74234128920E+02  0.00000000000E+00 0.  1.
         25    2    1    2    0    0  0.77362637277E+02 -0.15639205621E+03  0.27318913951E+03  0.34745179537E+03  0.12508793413E+03 0.  0.
          5    1    3    3  502    0  0.96305796448E+02 -0.95427994346E+02  0.23926181517E+03  0.27503635602E+03  0.41800000000E+01 0.  1.
         -5    1    3    3    0  502 -0.18943159171E+02 -0.60964061867E+02  0.33927324339E+02  0.72415439345E+02  0.41800000000E+01 0.  1.
        -11    1    1    2    0    0 -0.21859931057E+02  0.34520497507E+02  0.12880659024E+03  0.13513200592E+03  0.00000000000E+00 0. -1.
         11    1    1    2    0    0 -0.55502706220E+02  0.12187155871E+03  0.98154618093E+02  0.16603480440E+03  0.00000000000E+00 0.  1.
</event>
<event>
 7    1  0.2855090E-009  0.2124697E+03  0.7561462E-02  0.1139625E+00
          1   -1    0    0  501    0  0.00000000000E+00  0.00000000000E+00  0.33968898346E+03  0.33968898346E+03  0.00000000000E+00 0. -1.
         -1   -1    0    0    0  501 -0.00000000000E+00 -0.00000000000E+00 -0.14673679584E+03  0.14673679584E+03  0.00000000000E+00 0.  1.
         25    2    1    2    0    0 -0.21728951971E+02 -0.17774007012E+03  0.35750759836E+02  0.22133700494E+03  0.12509305754E+03 0.  0.
          5    1    3    3  502    0 -0.28026793338E+02  0.94622559263E+01 -0.29720399719E+01  0.30022339243E+02  0.41800000000E+01 0.  1.
         -5    1    3    3    0  502  0.62978413676E+01 -0.18720232605E+03  0.38722799808E+02  0.19131466569E+03  0.41800000000E+01 0.  1.
        -11    1    1    2    0    0 -0.37855186575E+02  0.29658187686E+02  0.64661234070E+02  0.80583487384E+02  0.00000000000E+00 0. -1.
         11    1    1    2    0    0  0.59584138546E+02  0.14808188244E+03  0.92540193708E+02  0.18450528698E+03  0.00000000000E+00 0.  1.
</event>
<event>
 7    1  0.2855090E-009  0.8746642E+02  0.7561462E-02  0.1309106E+00
         -1   -1    0    0    0  501 -0.00000000000E+00  0.00000000000E+00  0.19785520581E+02  0.19785520581E+02  0.00000000000E+00 0.  1.
          1   -1    0    0  501    0  0.00000000000E+00 -0.00000000000E+00 -0.66862388811E+03  0.66862388811E+03  0.00000000000E+00 0. -1.
         25    2    1    2    0    0  0.11143378071E+02  0.35015781802E+02 -0.33141686085E+03  0.35613856931E+03  0.12508902848E+03 0.  0.
          5    1    3    3  502    0 -0.14265752989E+01 -0.19860089882E+02 -0.40695435206E+00  0.20349356231E+02  0.41800000000E+01 0. -1.
         -5    1    3    3    0  502  0.12569953370E+02  0.54875871683E+02 -0.33100990650E+03  0.33578921308E+03  0.41800000000E+01 0. -1.
        -11    1    1    2    0    0 -0.45165848814E+02  0.51937699296E+01 -0.14013269144E+03  0.14732311548E+03  0.00000000000E+00 0.  1.
         11    1    1    2    0    0  0.34022470743E+02 -0.40209551731E+02 -0.17728881524E+03  0.18494772390E+03  0.00000000000E+00 0. -1.
</event>
<event>
 7    1  0.2855090E-009  0.1600698E+03  0.7561462E-02  0.1188618E+00
         -2   -1    0    0    0  501 -0.00000000000E+00  0.00000000000E+00  0.10488099891E+03  0.10488099891E+03  0.00000000000E+00 0.  1.
          2   -1    0    0  501    0  0.00000000000E+00 -0.00000000000E+00 -0.29420412155E+03  0.29420412155E+03  0.00000000000E+00 0. -1.
         25    2    1    2    0    0 -0.18753468210E+02 -0.13684034556E+03 -0.11431778952E+03  0.21860840639E+03  0.12507639906E+03 0.  0.
          5    1    3    3  502    0  0.10895362584E+02  0.19244049714E+02  0.55038101208E+00  0.22512611899E+02  0.41800000000E+01 0.  1.
         -5    1    3    3    0  502 -0.29648830794E+02 -0.15608439528E+03 -0.11486817053E+03  0.19609579449E+03  0.41800000000E+01 0.  1.
        -11    1    1    2    0    0  0.26586992405E+01  0.66171497348E+02 -0.84521645505E+02  0.10737618126E+03  0.00000000000E+00 0. -1.
         11    1    1    2    0    0  0.16094768970E+02  0.70668848213E+02  0.95163123886E+01  0.73100532812E+02  0.00000000000E+00 0.  1.
</event>
<event>
 7    1  0.2855090E-009  0.1950621E+03  0.7561462E-02  0.1153973E+00
         -2   -1    0    0    0  501 -0.00000000000E+00  0.00000000000E+00  0.13054068075E+03  0.13054068075E+03  0.00000000000E+00 0.  1.
          2   -1    0    0  501    0  0.00000000000E+00 -0.00000000000E+00 -0.89779819123E+03  0.89779819123E+03  0.00000000000E+00 0. -1.
         25    2    1    2    0    0  0.12284949648E+03 -0.12659638727E+03 -0.79807088413E+03  0.82685205596E+03  0.12509413373E+03 0.  0.
          5    1    3    3  502    0  0.12513403809E+03 -0.50929313963E+02 -0.41860697739E+03  0.43988816355E+03  0.41800000000E+01 0. -1.
         -5    1    3    3    0  502 -0.22845416093E+01 -0.75667073304E+02 -0.37946390673E+03  0.38696389241E+03  0.41800000000E+01 0. -1.
        -11    1    1    2    0    0 -0.75127421275E+02  0.98085969602E+02 -0.21200673959E+02  0.12535731106E+03  0.00000000000E+00 0.  1.
         11    1    1    2    0    0 -0.47722075208E+02  0.28510417665E+02  0.52014047610E+02  0.76129504965E+02  0.00000000000E+00 0. -1.
</event>
<event>
 7    1  0.2855090E-009  0.9411165E+02  0.7561462E-02  0.1293190E+00
          1   -1    0    0  501    0  0.00000000000E+00  0.00000000000E+00  0.51215745754E+03  0.51215745754E+03  0.00000000000E+00 0. -1.
         -1   -1    0    0    0  501 -0.00000000000E+00 -0.00000000000E+00 -0.36040609707E+02  0.36040609707E+02  0.00000000000E+00 0.  1.
         25    2    1    2    0    0 -0.51783764694E+02  0.74510948021E+01  0.39666158865E+03  0.41919630874E+03  0.12509217500E+03 0.  0.
          5    1    3    3  502    0 -0.73761551100E+02  0.69394383609E+01  0.38826949040E+03  0.39529684011E+03  0.41800000000E+01 0.  1.
         -5    1    3    3    0  502  0.21977786406E+02  0.51165644121E+00  0.83920982577E+01  0.23899468630E+02  0.41800000000E+01 0.  1.
        -11    1    1    2    0    0  0.33772873423E+02  0.33088210039E+02  0.12883860443E+02  0.49004392484E+02  0.00000000000E+00 0. -1.
         11    1    1    2    0    0  0.18010891271E+02 -0.40539304841E+02  0.66571398739E+02  0.79997366028E+02  0.00000000000E+00 0.  1.
</event>
<event>
 7    1  0.2855090E-009  0.1372308E+03  0.7561462E-02  0.1217104E+00
         -2   -1    0    0    0  501 -0.00000000000E+00  0.00000000000E+00  0.32155757247E+03  0.32155757247E+03  0.00000000000E+00 0.  1.
          2   -1    0    0  501    0  0.00000000000E+00 -0.00000000000E+00 -0.10257606641E+03  0.10257606641E+03  0.00000000000E+00 0. -1.
         25    2    1    2    0    0  0.19342241252E+02  0.99620302674E+02  0.23315208445E+03  0.28338234094E+03  0.12508928680E+03 0.  0.
          5    1    3    3  502    0  0.28352595268E+02  0.12298735412E+03  0.22251889830E+03  0.25585521576E+03  0.41800000000E+01 0.  1.
         -5    1    3    3    0  502 -0.90103540161E+01 -0.23367051450E+02  0.10633186153E+02  0.27527125181E+02  0.41800000000E+01 0.  1.
        -11    1    1    2    0    0  0.14480220594E+02  0.29571893250E+01 -0.28196239613E+02  0.31834724523E+02  0.00000000000E+00 0. -1.
         11    1    1    2    0    0 -0.33822461846E+02 -0.10257749200E+03  0.14025661220E+02  0.10891657341E+03  0.00000000000E+00 0.  1.
</event>
<event>
 7    1  0.2855090E-009  0.1707264E+03  0.7561462E-02  0.1177092E+00
          2   -1    0    0  501    0  0.00000000000E+00  0.00000000000E+00  0.52909954164E+03  0.52909954164E+03  0.00000000000E+00 0. -1.
         -2   -1    0    0    0  501 -0.00000000000E+00 -0.00000000000E+00 -0.60245161332E+02  0.60245161332E+02  0.00000000000E+00 0.  1.
         25    2    1    2    0    0 -0.10794362775E+03  0.81331089197E+02  0.32034836723E+03  0.36950904852E+03  0.12508911908E+03 0.  0.
          5    1    3    3  502    0 -0.79407616448E+02  0.11208783930E+03  0.20599377227E+03  0.24762907722E+03  0.41800000000E+01 0.  1.
         -5    1    3    3    0  502 -0.28536011300E+02 -0.30756750101E+02  0.11435459496E+03  0.12187997131E+03  0.41800000000E+01 0.  1.
        -11    1    1    2    0    0  0.66058206959E+02 -0.96815389777E+02  0.11268652369E+03  0.16258892651E+03  0.00000000000E+00 0.  1.
         11    1    1    2    0    0  0.41885420788E+02  0.15484300580E+02  0.35819489393E+02  0.57246727937E+02  0.00000000000E+00 0. -1.
</event>
<event>
 7    1  0.2855090E-009  0.8786692E+02  0.7561462E-02  0.1308101E+00
          1   -1    0    0  501    0  0.00000000000E+00  0.00000000000E+00  0.15221984873E+03  0.15221984873E+03  0.00000000000E+00 0. -1.
         -1   -1    0    0    0  501 -0.00000000000E+00 -0.00000000000E+00 -0.15000932717E+03  0.15000932717E+03  0.00000000000E+00 0.  1.
         25    2    1    2    0    0  0.18983243144E+01 -0.33864173054E+02 -0.97205756808E+02  0.16200723024E+03  0.12508795962E+03 0.  0.
          5    1    3    3  502    0  0.36352880128E+02  0.33182628358E+02 -0.17975092369E+02  0.52566101853E+02  0.41800000000E+01 0. -1.
         -5    1    3    3    0  502 -0.34454555813E+02 -0.67046801413E+02 -0.79230664438E+02  0.10944112839E+03  0.41800000000E+01 0. -1.
        -11    1    1    2    0    0  0.11151336072E+02 -0.31534839587E+01 -0.15175567876E+02  0.19094360886E+02  0.00000000000E+00 0.  1.
         11    1    1    2    0    0 -0.13049660387E+02  0.37017657013E+02  0.11459184624E+03  0.12112758477E+03  0.00000000000E+00 0. -1.
</event>
<event>
 7    1  0.2855090E-009  0.8928485E+02  0.7561462E-02  0.1304593E+00
         -1   -1    0    0    0  501 -0.00000000000E+00  0.00000000000E+00  0.18279776071E+03  0.18279776071E+03  0.00000000000E+00 0. -1.
          1   -1    0    0  501    0  0.00000000000E+00 -0.00000000000E+00 -0.92285676065E+02  0.92285676065E+02  0.00000000000E+00 0.  1.
         25    2    1    2    0    0  0.48266172685E+02 -0.11837877619E+01  0.10380221978E+03  0.16957151493E+03  0.12509425673E+03 0.  0.
          5    1    3    3  502    0  0.10840235819E+02  0.56884940713E+02  0.21205041448E+02  0.61810463316E+02  0.41800000000E+01 0.  1.
         -5    1    3    3    0  502  0.37425936866E+02 -0.58068728475E+02  0.82597178328E+02  0.10776105161E+03  0.41800000000E+01 0.  1.
        -11    1    1    2    0    0 -0.15659463632E+02 -0.77764994504E+01 -0.51559349210E+02  0.54443174374E+02  0.00000000000E+00 0.  1.
         11    1    1    2    0    0 -0.32606709053E+02  0.89602872123E+01  0.38269214078E+02  0.51068747472E+02  0.00000000000E+00 0. -1.
</event>
<event>
 7    1  0.2855090E-009  0.1027591E+03  0.7561462E-02  0.1274599E+00
          2   -1    0    0  501    0  0.00000000000E+00  0.00000000000E+00  0.25344827331E+03  0.25344827331E+03  0.00000000000E+00 0. -1.
         -2   -1    0    0    0  501 -0.00000000000E+00 -0.00000000000E+00 -0.67700305237E+02  0.67700305237E+02  0.00000000000E+00 0.  1.
         25    2    1    2    0    0  0.64896747380E+02  0.18034830568E+02  0.91504805816E+02  0.16898878818E+03  0.12508892081E+03 0.  0.
          5    1    3    3  502    0 -0.60686719304E+01  0.56647102857E+02  0.18569912713E+02  0.60066938488E+02  0.41800000000E+01 0. -1.
         -5    1    3    3    0  502  0.70965419311E+02 -0.38612272290E+02  0.72934893103E+02  0.10892184970E+03  0.41800000000E+01 0. -1.
        -11    1    1    2    0    0 -0.23021947057E+02 -0.85653009557E+01  0.10505389489E+03  0.10788741937E+03  0.00000000000E+00 0. -1.
         11    1    1    2    0    0 -0.41874800323E+02 -0.94695296122E+01 -0.10810732634E+02  0.44272370992E+02  0.00000000000E+00 0.  1.
</event>
<event>
 7    1  0.2855090E-009  0.9186870E+02  0.7561462E-02  0.1298388E+00
          1   -1    0    0  501    0  0.00000000000E+00  0.00000000000E+00  0.44974543515E+03  0.44974543515E+03  0.00000000000E+00 0. -1.
         -1   -1    0    0    0  501 -0.00000000000E+00 -0.00000000000E+00 -0.29385339624E+02  0.29385339624E+02  0.00000000000E+00 0.  1.
         25    2    1    2    0    0 -0.12168371781E+02 -0.10124777493E+02  0.17900950243E+03  0.21895172276E+03  0.12507947294E+03 0.  0.
          5    1    3    3  502    0 -0.23006039583E+02  0.41254598680E+02  0.15304698765E+03  0.16022506857E+03  0.41800000000E+01 0.  1.
         -5    1    3    3    0  502  0.10837667802E+02 -0.51379376173E+02  0.25962514785E+02  0.58726654198E+02  0.41800000000E+01 0.  1.
        -11    1    1    2    0    0  0.80707705486E+01  0.46419384480E+02  0.66164588586E+02  0.81225915664E+02  0.00000000000E+00 0.  1.
         11    1    1    2    0    0  0.40976012326E+01 -0.36294606988E+02  0.17518600451E+03  0.17895313634E+03  0.00000000000E+00 0. -1.
</event>
<event>
 7    1  0.2855090E-009  0.9577413E+02  0.7561462E-02  0.1289442E+00
          1   -1    0    0  501    0  0.00000000000E+00  0.00000000000E+00  0.38003112853E+02  0.38003112853E+02  0.00000000000E+00 0. -1.
         -1   -1    0    0    0  501 -0.00000000000E+00 -0.00000000000E+00 -0.33503242396E+03  0.33503242396E+03  0.00000000000E+00 0.  1.
         25    2    1    2    0    0 -0.24040886512E+02 -0.20314676396E+02 -0.14937364362E+03  0.19735797825E+03  0.12508811243E+03 0.  0.
          5    1    3    3  502    0  0.29977991074E+02 -0.28846093723E+02 -0.13403556472E+03  0.14040577653E+03  0.41800000000E+01 0. -1.
         -5    1    3    3    0  502 -0.54018877585E+02  0.85314173273E+01 -0.15338078899E+02  0.56952201726E+02  0.41800000000E+01 0. -1.
        -11    1    1    2    0    0  0.26188171562E+02 -0.32664072493E+02 -0.72098457890E+02  0.83372355081E+02  0.00000000000E+00 0.  1.
         11    1    1    2    0    0 -0.21472850509E+01  0.52978748889E+02 -0.75557209591E+02  0.92305203473E+02  0.00000000000E+00 0. -1.
</event>
<event>
 7    1  0.2855090E-009  0.1123053E+03  0.7561462E-02  0.1256359E+00
          2   -1    0    0  501    0  0.00000000000E+00  0.00000000000E+00  0.10501006391E+04  0.10501006391E+04  0.00000000000E+00 0. -1.
         -2   -1    0    0    0  501 -0.00000000000E+00 -0.00000000000E+00 -0.20117180476E+02  0.20117180476E+02  0.00000000000E+00 0.  1.
         25    2    1    2    0    0  0.74725030127E+02  0.19783989861E+01  0.78726767018E+03  0.80064020793E+03  0.12508642552E+03 0.  0.
          5    1    3    3  502    0  0.27901478831E+02  0.62125052029E+02  0.32177528655E+03  0.32892981325E+03  0.41800000000E+01 0.  1.
         -5    1    3    3    0  502  0.46823551296E+02 -0.60146653043E+02  0.46549238363E+03  0.47171039468E+03  0.41800000000E+01 0.  1.
        -11    1    1    2    0    0 -0.40858226292E+02 -0.15327169195E+02  0.28114847139E+02  0.51911091309E+02  0.00000000000E+00 0.  1.
         11    1    1    2    0    0 -0.33866803836E+02  0.13348770209E+02  0.21460094132E+03  0.21766652035E+03  0.00000000000E+00 0. -1.
</event>
<event>
 7    1  0.2855090E-009  0.1129255E+03  0.7561462E-02  0.1255246E+00
          1   -1    0    0  501    0  0.00000000000E+00  0.00000000000E+00  0.32064162750E+03  0.32064162750E+03  0.00000000000E+00 0. -1.
         -1   -1    0    0    0  501 -0.00000000000E+00 -0.00000000000E+00 -0.51674380533E+02  0.51674380533E+02  0.00000000000E+00 0.  1.
         25    2    1    2    0    0  0.15661025009E+01 -0.27480636231E+02  0.21839260270E+03  0.25318269554E+03  0.12509400609E+03 0.  0.
          5    1    3    3  502    0  0.62129139913E+02 -0.13253719184E+02  0.13296355039E+03  0.14741936518E+03  0.41800000000E+01 0.  1.
         -5    1    3    3    0  502 -0.60563037412E+02 -0.14226917047E+02  0.85429052312E+02  0.10576333036E+03  0.41800000000E+01 0.  1.
        -11    1    1    2    0    0 -0.36488130646E+02 -0.19440646038E+02 -0.70017858552E+00  0.41349880852E+02  0.00000000000E+00 0.  1.
         11    1    1    2    0    0  0.34922028145E+02  0.46921282269E+02  0.51274822846E+02  0.77783431638E+02  0.00000000000E+00 0. -1.
</event>
<event>
 7    1  0.2855090E-009  0.1986098E+03  0.7561462E-02  0.1150917E+00
          2   -1    0    0  501    0  0.00000000000E+00  0.00000000000E+00  0.28299515842E+03  0.28299515842E+03  0.00000000000E+00 0. -1.
         -2   -1    0    0    0  501 -0.00000000000E+00 -0.00000000000E+00 -0.32527694283E+03  0.32527694283E+03  0.00000000000E+00 0.  1.
         25    2    1    2    0    0 -0.16858192758E+03 -0.75334013071E+02 -0.23717092177E+03  0.32556686702E+03  0.12509459995E+03 0.  0.
          5    1    3    3  502    0 -0.12386554887E+03 -0.10170415339E+03 -0.12998384835E+03  0.20639690464E+03  0.41800000000E+01 0.  1.
         -5    1    3    3    0  502 -0.44716378710E+02  0.26370140319E+02 -0.10718707342E+03  0.11916996238E+03  0.41800000000E+01 0.  1.
        -11    1    1    2    0    0  0.11563920242E+03  0.47665738777E+02  0.18321559120E+03  0.22183868159E+03  0.00000000000E+00 0. -1.
         11    1    1    2    0    0  0.52942725162E+02  0.27668274294E+02  0.11673546167E+02  0.60866552638E+02  0.00000000000E+00 0.  1.
</event>
<event>
 7    1  0.2855090E-009  0.1180359E+03  0.7561462E-02  0.1246373E+00
         -1   -1    0    0    0  501 -0.00000000000E+00  0.00000000000E+00  0.11217163806E+03  0.11217163806E+03  0.00000000000E+00 0.  1.
          1   -1    0    0  501    0  0.00000000000E+00 -0.00000000000E+00 -0.21899537865E+03  0.21899537865E+03  0.00000000000E+00 0. -1.
         25    2    1    2    0    0 -0.52446876820E+02 -0.59809189334E+02 -0.14134743353E+03  0.20485370231E+03  0.12513244331E+03 0.  0.
          5    1    3    3  502    0  0.37668483365E+01 -0.58090158606E+02 -0.13625629804E+03  0.14822923743E+03  0.41800000000E+01 0. -1.
         -5    1    3    3    0  502 -0.56213725157E+02 -0.17190307283E+01 -0.50911354909E+01  0.56624464883E+02  0.41800000000E+01 0. -1.
        -11    1    1    2    0    0  0.91492319766E+01  0.74904432487E+02  0.18046020242E+02  0.77588925102E+02  0.00000000000E+00 0.  1.
         11    1    1    2    0    0  0.43297644844E+02 -0.15095243153E+02  0.16477672692E+02  0.48724389295E+02  0.00000000000E+00 0. -1.
</event>
<event>
 7    1  0.2855090E-009  0.1082721E+03  0.7561462E-02  0.1263804E+00
         -2   -1    0    0    0  501 -0.00000000000E+00  0.00000000000E+00  0.47670599885E+02  0.47670599885E+02  0.00000000000E+00 0.  1.
          2   -1    0    0  501    0  0.00000000000E+00 -0.00000000000E+00 -0.32881956476E+03  0.32881956476E+03  0.00000000000E+00 0. -1.
         25    2    1    2    0    0  0.29478847845E+02 -0.49954628479E+02 -0.19280503993E+03  0.23703333932E+03  0.12508618289E+03 0.  0.
          5    1    3    3  502    0  0.62008638337E+02  0.15855513568E+02 -0.83314254612E+02  0.10514373952E+03  0.41800000000E+01 0.  1.
         -5    1    3    3    0  502 -0.32529790492E+02 -0.65810142047E+02 -0.10949078532E+03  0.13188959980E+03  0.41800000000E+01 0.  1.
        -11    1    1    2    0    0 -0.26149587072E+01 -0.11505879407E+02 -0.68498801434E+02  0.69507618776E+02  0.00000000000E+00 0. -1.
         11    1    1    2    0    0 -0.26863889138E+02  0.61460507886E+02 -0.19845123506E+02  0.69949206544E+02  0.00000000000E+00 0.  1.
</event>
<event>
 7    1  0.2855090E-009  0.1291587E+03  0.7561462E-02  0.1228709E+00
          1   -1    0    0  501    0  0.00000000000E+00  0.00000000000E+00  0.38511304760E+03  0.38511304760E+03  0.00000000000E+00 0.  1.
         -1   -1    0    0    0  501 -0.00000000000E+00 -0.00000000000E+00 -0.57644816583E+02  0.57644816583E+02  0.00000000000E+00 0. -1.
         25    2    1    2    0    0 -0.54357805179E+02 -0.86664422835E+02  0.14416822228E+03  0.21655779322E+03  0.12508920145E+03 0.  0.
          5    1    3    3  502    0 -0.82001372445E+02 -0.96113242209E+02  0.13655022048E+03  0.18607905719E+03  0.41800000000E+01 0.  1.
         -5    1    3    3    0  502  0.27643567266E+02  0.94488193747E+01  0.76180018047E+01  0.30478736035E+02  0.41800000000E+01 0.  1.
        -11    1    1    2    0    0  0.17549852084E+02  0.24205068840E+02  0.13689559167E+03  0.14012239537E+03  0.00000000000E+00 0.  1.
         11    1    1    2    0    0  0.36807953095E+02  0.62459353995E+02  0.46404417067E+02  0.86077675595E+02  0.00000000000E+00 0. -1.
</event>
<event>
 7    1  0.2855090E-009  0.1089185E+03  0.7561462E-02  0.1262586E+00
          1   -1    0    0  501    0  0.00000000000E+00  0.00000000000E+00  0.17544639578E+03  0.17544639578E+03  0.00000000000E+00 0. -1.
         -1   -1    0    0    0  501 -0.00000000000E+00 -0.00000000000E+00 -0.96105968056E+02  0.96105968056E+02  0.00000000000E+00 0.  1.
         25    2    1    2    0    0  0.27934049696E+02  0.28059725162E+02  0.10679866971E+03  0.16921202725E+03  0.12513630571E+03 0.  0.
          5    1    3    3  502    0 -0.12014118701E+02  0.71066324346E+02  0.63564779944E+02  0.96191034684E+02  0.41800000000E+01 0. -1.
         -5    1    3    3    0  502  0.39948168397E+02 -0.43006599184E+02  0.43233889763E+02  0.73020992568E+02  0.41800000000E+01 0. -1.
        -11    1    1    2    0    0  0.24483000015E+02  0.47729081709E+01  0.13299514426E+02  0.28267915136E+02  0.00000000000E+00 0. -1.
         11    1    1    2    0    0 -0.52417049711E+02 -0.32832633333E+02 -0.40757756407E+02  0.74072421449E+02  0.00000000000E+00 0.  1.
</event>
<event>
 7    1  0.2855090E-009  0.1095847E+03  0.7561462E-02  0.1261341E+00
         -1   -1    0    0    0  501 -0.00000000000E+00  0.00000000000E+00  0.32163177377E+03  0.32163177377E+03  0.00000000000E+00 0.  1.
          1   -1    0    0  501    0  0.00000000000E+00 -0.00000000000E+00 -0.96190147443E+02  0.96190147443E+02  0.00000000000E+00 0. -1.
         25    2    1    2    0    0 -0.23213208602E+02 -0.62042011602E+02 -0.22921196922E+02  0.14340810061E+03  0.12510970304E+03 0.  0.
          5    1    3    3  502    0  0.48249120314E+02 -0.49235642170E+01  0.12381821112E+01  0.48695221435E+02  0.41800000000E+01 0.  1.
         -5    1    3    3    0  502 -0.71462328916E+02 -0.57118447385E+02 -0.24159379033E+02  0.94712879172E+02  0.41800000000E+01 0.  1.
        -11    1    1    2    0    0 -0.12276622067E+01  0.52747260642E+02  0.24175196150E+03  0.24744250150E+03  0.00000000000E+00 0.  1.
         11    1    1    2    0    0  0.24440870808E+02  0.92947509600E+01  0.66108617500E+01  0.26971319107E+02  0.00000000000E+00 0. -1.
</event>
<event>
 7    1  0.2855090E-009  0.1324577E+03  0.7561462E-02  0.1223854E+00
         -2   -1    0    0    0  501 -0.00000000000E+00  0.00000000000E+00  0.30530402385E+03  0.30530402385E+03  0.00000000000E+00 0.  1.
          2   -1    0    0  501    0  0.00000000000E+00 -0.00000000000E+00 -0.80494654032E+02  0.80494654032E+02  0.00000000000E+00 0. -1.
         25    2    1    2    0    0  0.10384859793E+03  0.15769799920E+02  0.69682894769E+02  0.17758581435E+03  0.12509115777E+03 0.  0.
          5    1    3    3  502    0 -0.11417051165E+02  0.32914549990E+02 -0.98405059942E+01  0.36442072068E+02  0.41800000000E+01 0.  1.
         -5    1    3    3    0  502  0.11526564910E+03 -0.17144750070E+02  0.79523400763E+02  0.14114374228E+03  0.41800000000E+01 0.  1.
        -11    1    1    2    0    0 -0.93850121889E+02  0.81408941809E+00  0.60587595008E+02  0.11171107729E+03  0.00000000000E+00 0. -1.
         11    1    1    2    0    0 -0.99984760417E+01 -0.16583889338E+02  0.94538880039E+02  0.96501786241E+02  0.00000000000E+00 0.  1.
</event>
<event>
 7    1  0.2855090E-009  0.1639129E+03  0.7561462E-02  0.1184349E+00
         -2   -1    0    0    0  501 -0.00000000000E+00  0.00000000000E+00  0.26769746606E+03  0.26769746606E+03  0.00000000000E+00 0.  1.
          2   -1    0    0  501    0  0.00000000000E+00 -0.00000000000E+00 -0.11958340293E+03  0.11958340293E+03  0.00000000000E+00 0. -1.
         25    2    1    2    0    0 -0.11899409326E+03  0.46958349317E+02  0.14416071560E+03  0.22978820395E+03  0.12512244384E+03 0.  0.
          5    1    3    3  502    0  0.14162354544E+01  0.51394010652E+02  0.16412749126E+02  0.54131329077E+02  0.41800000000E+01 0. -1.
         -5    1    3    3    0  502 -0.12041032871E+03 -0.44356613360E+01  0.12774796648E+03  0.17565687487E+03  0.41800000000E+01 0. -1.
        -11    1    1    2    0    0 -0.12138225657E+02 -0.17466970162E+02 -0.76045526777E+01  0.22588952835E+02  0.00000000000E+00 0. -1.
         11    1    1    2    0    0  0.13113231891E+03 -0.29491379154E+02  0.11557900209E+02  0.13490371220E+03  0.00000000000E+00 0.  1.
</event>
<event>
 7    1  0.3125746E-009  0.9893593E+02  0.7561462E-02  0.1282550E+00
         -2   -1    0    0    0  501 -0.00000000000E+00  0.00000000000E+00  0.17164108329E+03  0.17164108329E+03  0.00000000000E+00 0.  1.
          2   -1    0    0  501    0  0.00000000000E+00 -0.00000000000E+00 -0.90969302885E+02  0.90969302885E+02  0.00000000000E+00 0. -1.
         25    2    1    2    0    0 -0.29989976480E+02  0.21420741329E+02 -0.63938205679E+01  0.13056360819E+03  0.12509087894E+03 0.  0.
          5    1    3    3  502    0 -0.27843081281E+02 -0.35510905693E+02  0.37259422554E+02  0.58668548367E+02  0.41800000000E+01 0.  1.
         -5    1    3    3    0  502 -0.21468951986E+01  0.56931647022E+02 -0.43653243122E+02  0.71895059821E+02  0.41800000000E+01 0.  1.
        -11    1    1    2    0    0  0.29376281052E+02  0.31171555192E+02  0.57534221358E+02  0.71727389251E+02  0.00000000000E+00 0.  1.
         11    1    1    2    0    0  0.61369542855E+00 -0.52592296521E+02  0.29531379614E+02  0.60319388735E+02  0.00000000000E+00 0. -1.
</event>
<event>
 7    1  0.2855090E-009  0.7839303E+02  0.7561462E-02  0.1333675E+00
         -1   -1    0    0    0  501 -0.00000000000E+00  0.00000000000E+00  0.38329117991E+02  0.38329117991E+02  0.00000000000E+00 0.  1.
          1   -1    0    0  501    0  0.00000000000E+00 -0.00000000000E+00 -0.35189421872E+03  0.35189421872E+03  0.00000000000E+00 0. -1.
         25    2    1    2    0    0 -0.78470840710E+01 -0.36036431785E+02 -0.22155730409E+03  0.25708744759E+03  0.12508443376E+03 0.  0.
          5    1    3    3  502    0  0.96555537502E+01  0.24600749469E+02 -0.17868222382E+03  0.18067439249E+03  0.41800000000E+01 0. -1.
         -5    1    3    3    0  502 -0.17502637821E+02 -0.60637181254E+02 -0.42875080267E+02  0.76413055096E+02  0.41800000000E+01 0. -1.
        -11    1    1    2    0    0 -0.21216540063E+02  0.97675501088E+00 -0.84317449503E+02  0.86951296214E+02  0.00000000000E+00 0. -1.
         11    1    1    2    0    0  0.29063624134E+02  0.35059676774E+02 -0.76903471391E+01  0.46184592912E+02  0.00000000000E+00 0.  1.
</event>
<event>
 7    1  0.2855090E-009  0.1467912E+03  0.7561462E-02  0.1204472E+00
          1   -1    0    0  501    0  0.00000000000E+00  0.00000000000E+00  0.22241280283E+03  0.22241280283E+03  0.00000000000E+00 0. -1.
         -1   -1    0    0    0  501 -0.00000000000E+00 -0.00000000000E+00 -0.12547807922E+03  0.12547807922E+03  0.00000000000E+00 0.  1.
         25    2    1    2    0    0  0.86169228618E+02 -0.86758961954E+02  0.17958269845E+02  0.17584594880E+03  0.12508814817E+03 0.  0.
          5    1    3    3  502    0  0.17439326534E+02 -0.72902670489E+02  0.58113950804E+02  0.94940155637E+02  0.41800000000E+01 0. -1.
         -5    1    3    3    0  502  0.68729902085E+02 -0.13856291465E+02 -0.40155680959E+02  0.80905793161E+02  0.41800000000E+01 0. -1.
        -11    1    1    2    0    0  0.24515302370E+01 -0.13924890947E+02 -0.35267056353E+01  0.14572242141E+02  0.00000000000E+00 0.  1.
         11    1    1    2    0    0 -0.88620758855E+02  0.10068385290E+03  0.82503159403E+02  0.15747269111E+03  0.00000000000E+00 0. -1.
</event>
<event>
 7    1  0.2855090E-009  0.2736424E+03  0.7561462E-02  0.1099213E+00
         -2   -1    0    0    0  501 -0.00000000000E+00  0.00000000000E+00  0.91081628490E+02  0.91081628490E+02  0.00000000000E+00 0. -1.
          2   -1    0    0  501    0  0.00000000000E+00 -0.00000000000E+00 -0.10872199453E+04  0.10872199453E+04  0.00000000000E+00 0.  1.
         25    2    1    2    0    0 -0.13046859837E+03  0.23030755942E+03 -0.75173399381E+03  0.80673100743E+03  0.12508914347E+03 0.  0.
          5    1    3    3  502    0 -0.58695661985E+02  0.19229076236E+03 -0.62117178365E+03  0.65291100100E+03  0.41800000000E+01 0.  1.
         -5    1    3    3    0  502 -0.71772936389E+02  0.38016797052E+02 -0.13056221017E+03  0.15382000643E+03  0.41800000000E+01 0.  1.
        -11    1    1    2    0    0  0.72538953682E+02 -0.11845572163E+03 -0.67582980130E+02  0.15447044051E+03  0.00000000000E+00 0. -1.
         11    1    1    2    0    0  0.57929644692E+02 -0.11185183779E+03 -0.17682134287E+03  0.21710012586E+03  0.00000000000E+00 0.  1.
</event>
<event>
 6    1  0.2855090E-009  0.3311741E+03  0.7561462E-02  0.1070619E+00
         -2   -1    0    0    0  501 -0.00000000000E+00  0.00000000000E+00  0.15665221283E+03  0.15665221283E+03  0.00000000000E+00 0. -1.
          2   -1    0    0  501    0  0.00000000000E+00 -0.00000000000E+00 -0.78490934251E+03  0.78490934251E+03  0.00000000000E+00 0.  1.
          5    1    1    2  502    0  0.52668640956E+02 -0.24936088469E+02 -0.49710116695E+02  0.76709597509E+02  0.41800000000E+01 0. -1.
         -5    1    1    2    0  502  0.56907350066E+02 -0.27219162846E+03 -0.40832631152E+03  0.49403904519E+03  0.41800000000E+01 0. -1.
        -11    1    1    2    0    0 -0.83652889230E+02  0.11697608366E+03 -0.48133357812E+02  0.15165101437E+03  0.00000000000E+00 0. -1.
         11    1    1    2    0    0 -0.25923101791E+02  0.18015163327E+03 -0.12208734365E+03  0.21916189827E+03  0.00000000000E+00 0.  1.
</event>
<event>
 7    1  0.2855090E-009  0.8822791E+02  0.7561462E-02  0.1307201E+00
          2   -1    0    0  501    0  0.00000000000E+00  0.00000000000E+00  0.37999421304E+03  0.37999421304E+03  0.00000000000E+00 0. -1.
         -2   -1    0    0    0  501 -0.00000000000E+00 -0.00000000000E+00 -0.39906687788E+02  0.39906687788E+02  0.00000000000E+00 0.  1.
         25    2    1    2    0    0  0.23308615328E+02 -0.17556230580E+02  0.27892799833E+03  0.30708237382E+03  0.12508894147E+03 0.  0.
          5    1    3    3  502    0  0.55412286218E+02 -0.34182274090E+02  0.72758428295E+02  0.97725179017E+02  0.41800000000E+01 0. -1.
         -5    1    3    3    0  502 -0.32103670890E+02  0.16626043511E+02  0.20616957003E+03  0.20935719480E+03  0.41800000000E+01 0. -1.
        -11    1    1    2    0    0 -0.12742269299E+02 -0.26558874661E+02 -0.76197016253E+01  0.30426946988E+02  0.00000000000E+00 0.  1.
         11    1    1    2    0    0 -0.10566346029E+02  0.44115105241E+02  0.68779228552E+02  0.82391580025E+02  0.00000000000E+00 0. -1.
</event>
<event>
 7    1  0.2855090E-009  0.1180364E+03  0.7561462E-02  0.1246372E+00
          4   -1    0    0  501    0  0.00000000000E+00  0.00000000000E+00  0.55891975685E+02  0.55891975685E+02  0.00000000000E+00 0. -1.
         -4   -1    0    0    0  501 -0.00000000000E+00 -0.00000000000E+00 -0.35956351719E+03  0.35956351719E+03  0.00000000000E+00 0.  1.
         25    2    1    2    0    0 -0.10627120929E+02  0.83127175841E+02 -0.16553777950E+03  0.22377075991E+03  0.12509010146E+03 0.  0.
          5    1    3    3  502    0 -0.49107764775E+02 -0.88012499085E+01 -0.45015024047E+02  0.67326512988E+02  0.41800000000E+01 0. -1.
         -5    1    3    3    0  502  0.38480643845E+02  0.91928425749E+02 -0.12052275545E+03  0.15644424692E+03  0.41800000000E+01 0. -1.
        -11    1    1    2    0    0  0.15641127893E+02 -0.41764248519E+02 -0.14294669229E+03  0.14974195862E+03  0.00000000000E+00 0.  1.
         11    1    1    2    0    0 -0.50140069637E+01 -0.41362927322E+02  0.48129302782E+01  0.41942774352E+02  0.00000000000E+00 0. -1.
</event>
<event>
 7    1  0.2855090E-009  0.1174087E+03  0.7561462E-02  0.1247434E+00
          2   -1    0    0  501    0  0.00000000000E+00  0.00000000000E+00  0.11491097174E+04  0.11491097174E+04  0.00000000000E+00 0.  1.
         -2   -1    0    0    0  501 -0.00000000000E+00 -0.00000000000E+00 -0.18700857670E+02  0.18700857670E+02  0.00000000000E+00 0. -1.
         25    2    1    2    0    0  0.76918602602E+02  0.46679509726E+02  0.47005242881E+03  0.49466864523E+03  0.12510929098E+03 0.  0.
          5    1    3    3  502    0 -0.15059767854E+01  0.21261044805E+02  0.33959455866E+03  0.34028846096E+03  0.41800000000E+01 0.  1.
         -5    1    3    3    0  502  0.78424579388E+02  0.25418464921E+02  0.13045787015E+03  0.15438018427E+03  0.41800000000E+01 0.  1.
        -11    1    1    2    0    0  0.17925258417E+02  0.95299415228E+01  0.10738104577E+03  0.10928322683E+03  0.00000000000E+00 0. -1.
         11    1    1    2    0    0 -0.94843861019E+02 -0.56209451249E+02  0.55297538518E+03  0.56385870305E+03  0.00000000000E+00 0.  1.
</event>
<event>
 7    1  0.2855090E-009  0.9272406E+02  0.7561462E-02  0.1296386E+00
          1   -1    0    0  501    0  0.00000000000E+00  0.00000000000E+00  0.54850480370E+03  0.54850480370E+03  0.00000000000E+00 0. -1.
         -1   -1    0    0    0  501 -0.00000000000E+00 -0.00000000000E+00 -0.21219171544E+02  0.21219171544E+02  0.00000000000E+00 0.  1.
         25    2    1    2    0    0  0.11135733642E+02  0.16614954327E+02  0.30028132934E+03  0.32590293732E+03  0.12507512356E+03 0.  0.
          5    1    3    3  502    0  0.19288483837E+02 -0.42817224782E+02  0.50927547270E+02  0.69400632689E+02  0.41800000000E+01 0.  1.
         -5    1    3    3    0  502 -0.81527501955E+01  0.59432179109E+02  0.24935378207E+03  0.25650230463E+03  0.41800000000E+01 0.  1.
        -11    1    1    2    0    0 -0.42903386837E+02 -0.13563095404E+01  0.64077858615E+02  0.77126598151E+02  0.00000000000E+00 0.  1.
         11    1    1    2    0    0  0.31767653195E+02 -0.15258644787E+02  0.16292644420E+03  0.16669443977E+03  0.00000000000E+00 0. -1.
</event>
<event>
 7    1  0.2855090E-009  0.1017611E+03  0.7561462E-02  0.1276636E+00
         -2   -1    0    0    0  501 -0.00000000000E+00  0.00000000000E+00  0.63704283236E+01  0.63704283236E+01  0.00000000000E+00 0.  1.
          2   -1    0    0  501    0  0.00000000000E+00 -0.00000000000E+00 -0.29090441558E+04  0.29090441558E+04  0.00000000000E+00 0. -1.
         25    2    1    2    0    0 -0.50751608537E+02 -0.64169179879E+01 -0.22978241693E+04  0.23017949256E+04  0.12508822477E+03 0.  0.
          5    1    3    3  502    0 -0.22349745254E+02 -0.45971391842E+02 -0.19366422026E+04  0.19373211848E+04  0.41800000000E+01 0.  1.
         -5    1    3    3    0  502 -0.28401863282E+02  0.39554473854E+02 -0.36118196675E+03  0.36447374082E+03  0.41800000000E+01 0.  1.
        -11    1    1    2    0    0  0.81857805467E+01  0.45104125182E+02 -0.26348732468E+03  0.26744524557E+03  0.00000000000E+00 0.  1.
         11    1    1    2    0    0  0.42565827990E+02 -0.38687207194E+02 -0.34136223350E+03  0.34617441294E+03  0.00000000000E+00 0. -1.
</event>
<event>
 7    1  0.3952483E-009  0.2275232E+03  0.7561462E-02  0.1128395E+00
         -2   -1    0    0    0  501 -0.00000000000E+00  0.00000000000E+00  0.18112675766E+03  0.18112675766E+03  0.00000000000E+00 0.  1.
          2   -1    0    0  501    0  0.00000000000E+00 -0.00000000000E+00 -0.29551235484E+03  0.29551235484E+03  0.00000000000E+00 0. -1.
         25    2    1    2    0    0  0.17589054796E+03 -0.10070761863E+03 -0.81488167417E+02  0.25173017208E+03  0.12509296061E+03 0.  0.
          5    1    3    3  502    0  0.85362828399E+02 -0.11238785961E+03 -0.75621041388E+02  0.16016821707E+03  0.41800000000E+01 0.  1.
         -5    1    3    3    0  502  0.90527719557E+02  0.11680240971E+02 -0.58671260290E+01  0.91561955009E+02  0.41800000000E+01 0.  1.
        -11    1    1    2    0    0 -0.12634512309E+03  0.20201694083E+02 -0.17874561027E+02  0.12919248626E+03  0.00000000000E+00 0.  1.
         11    1    1    2    0    0 -0.49545424861E+02  0.80505924552E+02 -0.15022868737E+02  0.95716454164E+02  0.00000000000E+00 0. -1.
</event>
<event>
 7    1  0.2855090E-009  0.1334666E+03  0.7561462E-02  0.1222401E+00
          2   -1    0    0  501    0  0.00000000000E+00  0.00000000000E+00  0.13100648297E+04  0.13100648297E+04  0.00000000000E+00 0. -1.
         -2   -1    0    0    0  501 -0.00000000000E+00 -0.00000000000E+00 -0.20014100910E+02  0.20014100910E+02  0.00000000000E+00 0.  1.
         25    2    1    2    0    0 -0.73235452850E+02  0.68196663476E+02  0.97048955144E+03  0.98362133431E+03  0.12508694332E+03 0.  0.
          5    1    3    3  502    0 -0.47990230086E+02 -0.16483853680E+02  0.15060786449E+03  0.15898107076E+03  0.41800000000E+01 0.  1.
         -5    1    3    3    0  502 -0.25245222764E+02  0.84680517157E+02  0.81988168696E+03  0.82464026355E+03  0.41800000000E+01 0.  1.
        -11    1    1    2    0    0 -0.84588464712E+01  0.10932483551E+02  0.11200539330E+02  0.17791103436E+02  0.00000000000E+00 0.  1.
         11    1    1    2    0    0  0.81694299321E+02 -0.79129147027E+02  0.30836063799E+03  0.32866649283E+03  0.00000000000E+00 0. -1.
</event>
<event>
 7    1  0.2855090E-009  0.1322823E+03  0.7561462E-02  0.1224108E+00
          1   -1    0    0  501    0  0.00000000000E+00  0.00000000000E+00  0.13497058482E+03  0.13497058482E+03  0.00000000000E+00 0. -1.
         -1   -1    0    0    0  501 -0.00000000000E+00 -0.00000000000E+00 -0.16249439359E+03  0.16249439359E+03  0.00000000000E+00 0.  1.
         25    2    1    2    0    0 -0.97894494537E+02  0.82055688287E+01 -0.35374030404E+02  0.16294006595E+03  0.12508988625E+03 0.  0.
          5    1    3    3  502    0 -0.91856226860E+02 -0.36282377853E+02  0.95244565452E+01  0.99308433822E+02  0.41800000000E+01 0.  1.
         -5    1    3    3    0  502 -0.60382676766E+01  0.44487946682E+02 -0.44898486949E+02  0.63631632124E+02  0.41800000000E+01 0.  1.
        -11    1    1    2    0    0  0.10875764400E+03 -0.35787489179E+01 -0.13975260089E+02  0.10971025688E+03  0.00000000000E+00 0.  1.
         11    1    1    2    0    0 -0.10863149458E+02 -0.46268199109E+01  0.21825481726E+02  0.24814655573E+02  0.00000000000E+00 0. -1.
</event>
<event>
 7    1  0.2855090E-009  0.1095096E+03  0.7561462E-02  0.1261481E+00
         -2   -1    0    0    0  501 -0.00000000000E+00  0.00000000000E+00  0.26313764528E+02  0.26313764528E+02  0.00000000000E+00 0. -1.
          2   -1    0    0  501    0  0.00000000000E+00 -0.00000000000E+00 -0.69532529742E+03  0.69532529742E+03  0.00000000000E+00 0.  1.
         25    2    1    2    0    0 -0.37904195400E+02 -0.25351075305E+02 -0.19332181029E+03  0.23473628067E+03  0.12509354132E+03 0.  0.
          5    1    3    3  502    0  0.40603215333E+02 -0.15026058354E+02 -0.28982017383E+02  0.52266942292E+02  0.41800000000E+01 0.  1.
         -5    1    3    3    0  502 -0.78507410732E+02 -0.10325016951E+02 -0.16433979290E+03  0.18246933837E+03  0.41800000000E+01 0.  1.
        -11    1    1    2    0    0 -0.27384100931E+02  0.49464649724E+01 -0.67331290377E+02  0.72855055853E+02  0.00000000000E+00 0.  1.
         11    1    1    2    0    0  0.65288296330E+02  0.20404610333E+02 -0.40835843223E+03  0.41404772543E+03  0.00000000000E+00 0. -1.
</event>
<event>
 7    1  0.2855090E-009  0.9613317E+02  0.7561462E-02  0.1288644E+00
          2   -1    0    0  501    0  0.00000000000E+00  0.00000000000E+00  0.26858483667E+03  0.26858483667E+03  0.00000000000E+00 0. -1.
         -2   -1    0    0    0  501 -0.00000000000E+00 -0.00000000000E+00 -0.70765991648E+02  0.70765991648E+02  0.00000000000E+00 0.  1.
         25    2    1    2    0    0  0.45909553963E+01 -0.41280362649E+02  0.20036477838E+03  0.23983131710E+03  0.12509145069E+03 0.  0.
          5    1    3    3  502    0 -0.20650477234E+02  0.34869838061E+02  0.11774725838E+03  0.12459629638E+03  0.41800000000E+01 0. -1.
         -5    1    3    3    0  502  0.25241432630E+02 -0.76150200711E+02  0.82617519997E+02  0.11523502072E+03  0.41800000000E+01 0. -1.
        -11    1    1    2    0    0 -0.48053312404E+01 -0.14569645168E+02 -0.32648356871E+02  0.36073272309E+02  0.00000000000E+00 0.  1.
         11    1    1    2    0    0  0.21437584415E+00  0.55850007818E+02  0.30102423520E+02  0.63446238912E+02  0.00000000000E+00 0. -1.
</event>
<event>
 7    1  0.2855090E-009  0.8663712E+02  0.7561462E-02  0.1311206E+00
         -1   -1    0    0    0  501 -0.00000000000E+00  0.00000000000E+00  0.22244808417E+03  0.22244808417E+03  0.00000000000E+00 0.  1.
          1   -1    0    0  501    0  0.00000000000E+00 -0.00000000000E+00 -0.82891708751E+02  0.82891708751E+02  0.00000000000E+00 0. -1.
         25    2    1    2    0    0  0.36721105612E+02 -0.47621644427E+02  0.12962931939E+03  0.18991359074E+03  0.12508857217E+03 0.  0.
          5    1    3    3  502    0 -0.14083852115E+02 -0.58004579227E+02  0.11630864197E+02  0.60956012859E+02  0.41800000000E+01 0. -1.
         -5    1    3    3    0  502  0.50804957727E+02  0.10382934801E+02  0.11799845520E+03  0.12895757788E+03  0.41800000000E+01 0. -1.
        -11    1    1    2    0    0 -0.23587766551E+02  0.39397860549E+02 -0.41390428817E+02  0.61820237336E+02  0.00000000000E+00 0. -1.
         11    1    1    2    0    0 -0.13133339061E+02  0.82237838779E+01  0.51317484840E+02  0.53605964840E+02  0.00000000000E+00 0.  1.
</event>
<event>
 7    1  0.2855090E-009  0.9600673E+02  0.7561462E-02  0.1288925E+00
         -3   -1    0    0    0  501 -0.00000000000E+00  0.00000000000E+00  0.13988047192E+03  0.13988047192E+03  0.00000000000E+00 0.  1.
          3   -1    0    0  501    0  0.00000000000E+00 -0.00000000000E+00 -0.12166603735E+03  0.12166603735E+03  0.00000000000E+00 0. -1.
         25    2    1    2    0    0  0.35236231337E+02  0.22047013399E+02  0.70375574634E+02  0.14942714873E+03  0.12509231980E+03 0.  0.
          5    1    3    3  502    0 -0.40649524256E+02 -0.55237529081E+00  0.55226612284E+02  0.68703275359E+02  0.41800000000E+01 0.  1.
         -5    1    3    3    0  502  0.75885755593E+02  0.22599388689E+02  0.15148962350E+02  0.80723873366E+02  0.41800000000E+01 0.  1.
        -11    1    1    2    0    0  0.34687102887E+01 -0.31761809109E+02  0.13977674824E+02  0.34874343899E+02  0.00000000000E+00 0.  1.
         11    1    1    2    0    0 -0.38704941626E+02  0.97147957100E+01 -0.66138814883E+02  0.77245016642E+02  0.00000000000E+00 0. -1.
</event>
<event>
 7    1  0.2855090E-009  0.1672181E+03  0.7561462E-02  0.1180780E+00
         -1   -1    0    0    0  501 -0.00000000000E+00  0.00000000000E+00  0.65090052197E+03  0.65090052197E+03  0.00000000000E+00 0.  1.
          1   -1    0    0  501    0  0.00000000000E+00 -0.00000000000E+00 -0.82541860455E+02  0.82541860455E+02  0.00000000000E+00 0. -1.
         25    2    1    2    0    0 -0.55141242457E+02 -0.12199199598E+03  0.49196775728E+02  0.18971429634E+03  0.12509431558E+03 0.  0.
          5    1    3    3  502    0  0.37219886835E+02 -0.30367364072E+02  0.33260328656E+02  0.58576604878E+02  0.41800000000E+01 0.  1.
         -5    1    3    3    0  502 -0.92361129292E+02 -0.91624631903E+02  0.15936447072E+02  0.13113769146E+03  0.41800000000E+01 0.  1.
        -11    1    1    2    0    0  0.72881826868E+02  0.11661203831E+03  0.49190162057E+03  0.51076152213E+03  0.00000000000E+00 0.  1.
         11    1    1    2    0    0 -0.17740584411E+02  0.53799576654E+01  0.27260265209E+02  0.32966563954E+02  0.00000000000E+00 0. -1.
</event>
<event>
 7    1  0.2855090E-009  0.1488412E+03  0.7561462E-02  0.1201904E+00
          1   -1    0    0  501    0  0.00000000000E+00  0.00000000000E+00  0.13865537170E+03  0.13865537170E+03  0.00000000000E+00 0. -1.
         -1   -1    0    0    0  501 -0.00000000000E+00 -0.00000000000E+00 -0.34618894877E+03  0.34618894877E+03  0.00000000000E+00 0.  1.
         25    2    1    2    0    0 -0.13031226204E+03  0.49985369548E+02  0.34846891913E+02  0.19063641092E+03  0.12509241578E+03 0.  0.
          5    1    3    3  502    0 -0.10318747751E+03  0.42010345257E+02  0.79983104032E+02  0.13721258672E+03  0.41800000000E+01 0. -1.
         -5    1    3    3    0  502 -0.27124784535E+02  0.79750242915E+01 -0.45136212119E+02  0.53423824208E+02  0.41800000000E+01 0. -1.
        -11    1    1    2    0    0  0.65188667489E+02 -0.63607273381E+02 -0.18558598894E+03  0.20673075942E+03  0.00000000000E+00 0.  1.
         11    1    1    2    0    0  0.65123594552E+02  0.13621903833E+02 -0.56794480042E+02  0.87477150128E+02  0.00000000000E+00 0. -1.
</event>
<event>
 7    1  0.2855090E-009  0.9920860E+02  0.7561462E-02  0.1281969E+00
         -2   -1    0    0    0  501 -0.00000000000E+00  0.00000000000E+00  0.47905874797E+02  0.47905874797E+02  0.00000000000E+00 0.  1.
          2   -1    0    0  501    0  0.00000000000E+00 -0.00000000000E+00 -0.29009002697E+03  0.29009002697E+03  0.00000000000E+00 0. -1.
         25    2    1    2    0    0  0.79817267116E+01  0.44202416728E+02 -0.12914095136E+03  0.18531624942E+03  0.12508863008E+03 0.  0.
          5    1    3    3  502    0 -0.27127508914E+02 -0.35976238431E+02 -0.42148275017E+02  0.61839639055E+02  0.41800000000E+01 0. -1.
         -5    1    3    3    0  502  0.35109235626E+02  0.80178655159E+02 -0.86992676347E+02  0.12347661037E+03  0.41800000000E+01 0. -1.
        -11    1    1    2    0    0  0.14329962802E+02 -0.40449080657E+02 -0.12124398842E+03  0.12861407655E+03  0.00000000000E+00 0. -1.
         11    1    1    2    0    0 -0.22311689514E+02 -0.37533360716E+01  0.82007876134E+01  0.24065575790E+02  0.00000000000E+00 0.  1.
</event>
<event>
 7    1  0.2855090E-009  0.1272039E+03  0.7561462E-02  0.1231665E+00
         -2   -1    0    0    0  501 -0.00000000000E+00  0.00000000000E+00  0.11088978516E+03  0.11088978516E+03  0.00000000000E+00 0.  1.
          2   -1    0    0  501    0  0.00000000000E+00 -0.00000000000E+00 -0.14853945545E+03  0.14853945545E+03  0.00000000000E+00 0. -1.
         25    2    1    2    0    0  0.20448282898E+02 -0.63068042302E+02 -0.84721360936E+01  0.14182551499E+03  0.12508792659E+03 0.  0.
          5    1    3    3  502    0 -0.45114273310E+01  0.36874631660E+02 -0.10068496413E+02  0.38716126571E+02  0.41800000000E+01 0. -1.
         -5    1    3    3    0  502  0.24959710229E+02 -0.99942673962E+02  0.15963603196E+01  0.10310938842E+03  0.41800000000E+01 0. -1.
        -11    1    1    2    0    0 -0.34937127575E+02 -0.12406132891E+02 -0.95037217980E+01  0.38273172647E+02  0.00000000000E+00 0.  1.
         11    1    1    2    0    0  0.14488844677E+02  0.75474175192E+02 -0.19673812405E+02  0.79330552977E+02  0.00000000000E+00 0. -1.
</event>
<event>
 7    1  0.2855090E-009  0.1118154E+03  0.7561462E-02  0.1257244E+00
         -3   -1    0    0    0  501 -0.00000000000E+00  0.00000000000E+00  0.62572680983E+02  0.62572680983E+02  0.00000000000E+00 0.  1.
          3   -1    0    0  501    0  0.00000000000E+00 -0.00000000000E+00 -0.28368908628E+03  0.28368908628E+03  0.00000000000E+00 0. -1.
         25    2    1    2    0    0 -0.41503170081E+02 -0.98828277835E+01 -0.20347424996E+03  0.24262515364E+03  0.12508001987E+03 0.  0.
          5    1    3    3  502    0  0.30202894057E+02  0.34382314591E+02 -0.53325912906E+02  0.70395196947E+02  0.41800000000E+01 0.  1.
         -5    1    3    3    0  502 -0.71706064137E+02 -0.44265142374E+02 -0.15014833705E+03  0.17222995669E+03  0.41800000000E+01 0.  1.
        -11    1    1    2    0    0 -0.24490739009E+02  0.12007788367E+02 -0.25253153766E+02  0.37171293411E+02  0.00000000000E+00 0. -1.
         11    1    1    2    0    0  0.65993909090E+02 -0.21249605835E+01  0.76109984222E+01  0.66465320216E+02  0.00000000000E+00 0.  1.
</event>
<event>
 7    1  0.2855090E-009  0.2292310E+03  0.7561462E-02  0.1127182E+00
          2   -1    0    0  501    0  0.00000000000E+00  0.00000000000E+00  0.14404287430E+03  0.14404287430E+03  0.00000000000E+00 0. -1.
         -2   -1    0    0    0  501 -0.00000000000E+00 -0.00000000000E+00 -0.42741883530E+03  0.42741883530E+03  0.00000000000E+00 0.  1.
         25    2    1    2    0    0  0.12022190348E+03 -0.18310908952E+03 -0.19095216028E+03  0.31637285954E+03  0.12508722556E+03 0.  0.
          5    1    3    3  502    0  0.59598442093E+02 -0.12423843018E+03 -0.18613733782E+03  0.23162845846E+03  0.41800000000E+01 0. -1.
         -5    1    3    3    0  502  0.60623461382E+02 -0.58870659336E+02 -0.48148224608E+01  0.84744401089E+02  0.41800000000E+01 0. -1.
        -11    1    1    2    0    0 -0.49801039996E+02  0.12382447005E+02 -0.76612592844E+01  0.51886062409E+02  0.00000000000E+00 0. -1.
         11    1    1    2    0    0 -0.70420863480E+02  0.17072664252E+03 -0.84762541429E+02  0.20320278765E+03  0.00000000000E+00 0.  1.
</event>
<event>
 7    1  0.2855090E-009  0.1956317E+03  0.7561462E-02  0.1153478E+00
          1   -1    0    0  501    0  0.00000000000E+00  0.00000000000E+00  0.47832097796E+03  0.47832097796E+03  0.00000000000E+00 0. -1.
         -1   -1    0    0    0  501 -0.00000000000E+00 -0.00000000000E+00 -0.92020571901E+02  0.92020571901E+02  0.00000000000E+00 0.  1.
         25    2    1    2    0    0  0.17600153931E+03  0.28111401056E+02  0.22848900277E+03  0.31562805719E+03  0.12508818245E+03 0.  0.
          5    1    3    3  502    0  0.11380217954E+03  0.73795599147E+02  0.11260252504E+03  0.17633356903E+03  0.41800000000E+01 0. -1.
         -5    1    3    3    0  502  0.62199359770E+02 -0.45684198090E+02  0.11588647773E+03  0.13929448816E+03  0.41800000000E+01 0. -1.
        -11    1    1    2    0    0 -0.13024167202E+03 -0.19019549725E+02  0.56619273163E+02  0.14328425767E+03  0.00000000000E+00 0.  1.
         11    1    1    2    0    0 -0.45759867290E+02 -0.90918513313E+01  0.10119213012E+03  0.11142923501E+03  0.00000000000E+00 0. -1.
</event>
<event>
 7    1  0.2855090E-009  0.1182085E+03  0.7561462E-02  0.1246082E+00
         -1   -1    0    0    0  501 -0.00000000000E+00  0.00000000000E+00  0.83195282384E+03  0.83195282384E+03  0.00000000000E+00 0.  1.
          1   -1    0    0  501    0  0.00000000000E+00 -0.00000000000E+00 -0.30237058801E+02  0.30237058801E+02  0.00000000000E+00 0. -1.
         25    2    1    2    0    0 -0.30291663407E+02 -0.11026602929E+03  0.37302502292E+03  0.40972076119E+03  0.12508897768E+03 0.  0.
          5    1    3    3  502    0 -0.11221661969E+02 -0.44499977736E+02  0.31923669877E+03  0.32254568042E+03  0.41800000000E+01 0. -1.
         -5    1    3    3    0  502 -0.19070001439E+02 -0.65766051558E+02  0.53788324153E+02  0.87175080772E+02  0.41800000000E+01 0. -1.
        -11    1    1    2    0    0  0.38812451592E+02  0.65288524300E+02  0.37164388786E+03  0.37932595111E+03  0.00000000000E+00 0.  1.
         11    1    1    2    0    0 -0.85207881850E+01  0.44977504994E+02  0.57046854262E+02  0.73143170344E+02  0.00000000000E+00 0. -1.
</event>
<event>
 7    1  0.2855090E-009  0.1195215E+03  0.7561462E-02  0.1243888E+00
          2   -1    0    0  501    0  0.00000000000E+00  0.00000000000E+00  0.91824318224E+03  0.91824318224E+03  0.00000000000E+00 0. -1.
         -2   -1    0    0    0  501 -0.00000000000E+00 -0.00000000000E+00 -0.20675491039E+02  0.20675491039E+02  0.00000000000E+00 0.  1.
         25    2    1    2    0    0 -0.80833156972E+02 -0.73463787685E+01  0.58077554772E+03  0.59961279030E+03  0.12508913989E+03 0.  0.
          5    1    3    3  502    0 -0.78259221762E+02 -0.40077572479E+02  0.53984859086E+03  0.54697777932E+03  0.41800000000E+01 0.  1.
         -5    1    3    3    0  502 -0.25739352092E+01  0.32731193710E+02  0.40926956857E+02  0.52635010988E+02  0.41800000000E+01 0.  1.
        -11    1    1    2    0    0  0.91059602402E+02 -0.15981172236E+02  0.27736337978E+03  0.29236568454E+03  0.00000000000E+00 0. -1.
         11    1    1    2    0    0 -0.10226445430E+02  0.23327551005E+02  0.39428763703E+02  0.46940198436E+02  0.00000000000E+00 0.  1.
</event>
<event>
 7    1  0.2855090E-009  0.1057968E+03  0.7561462E-02  0.1268558E+00
          2   -1    0    0  501    0  0.00000000000E+00  0.00000000000E+00  0.78123217978E+03  0.78123217978E+03  0.00000000000E+00 0. -1.
         -2   -1    0    0    0  501 -0.00000000000E+00 -0.00000000000E+00 -0.16333829173E+02  0.16333829173E+02  0.00000000000E+00 0.  1.
         25    2    1    2    0    0 -0.13496907652E+02 -0.26204199859E+02  0.45803312599E+03  0.47572073315E+03  0.12508814825E+03 0.  0.
          5    1    3    3  502    0 -0.61124877766E+02  0.51237084774E+01  0.32749722662E+03  0.33321826018E+03  0.41800000000E+01 0. -1.
         -5    1    3    3    0  502  0.47627970113E+02 -0.31327908336E+02  0.13053589937E+03  0.14250247297E+03  0.41800000000E+01 0. -1.
        -11    1    1    2    0    0  0.26314205865E+02 -0.27309494945E+02  0.82002006547E+02  0.90346970188E+02  0.00000000000E+00 0.  1.
         11    1    1    2    0    0 -0.12817298212E+02  0.53513694803E+02  0.22486321807E+03  0.23149830562E+03  0.00000000000E+00 0. -1.
</event>
<event>
 7    1  0.2855090E-009  0.9182690E+02  0.7561462E-02  0.1298487E+00
         -2   -1    0    0    0  501 -0.00000000000E+00  0.00000000000E+00  0.18120909289E+02  0.18120909289E+02  0.00000000000E+00 0.  1.
          2   -1    0    0  501    0  0.00000000000E+00 -0.00000000000E+00 -0.92215949467E+03  0.92215949467E+03  0.00000000000E+00 0. -1.
         25    2    1    2    0    0  0.67461068075E+02 -0.93306502198E+01 -0.44917739904E+03  0.47121870961E+03  0.12509468308E+03 0.  0.
          5    1    3    3  502    0  0.24185347586E+02 -0.13874751126E+02 -0.41440099310E+03  0.41535899561E+03  0.41800000000E+01 0. -1.
         -5    1    3    3    0  502  0.43275720489E+02  0.45441009057E+01 -0.34776405943E+02  0.55859713991E+02  0.41800000000E+01 0. -1.
        -11    1    1    2    0    0 -0.46934553984E+02 -0.37848929583E+02 -0.19319515854E+03  0.20238518501E+03  0.00000000000E+00 0. -1.
         11    1    1    2    0    0 -0.20526514091E+02  0.47179579803E+02 -0.26166602780E+03  0.26667650934E+03  0.00000000000E+00 0.  1.
</event>
<event>
 7    1  0.2855090E-009  0.1213344E+03  0.7561462E-02  0.1240912E+00
         -2   -1    0    0    0  501 -0.00000000000E+00  0.00000000000E+00  0.14452459285E+03  0.14452459285E+03  0.00000000000E+00 0.  1.
          2   -1    0    0  501    0  0.00000000000E+00 -0.00000000000E+00 -0.14507426501E+03  0.14507426501E+03  0.00000000000E+00 0. -1.
         25    2    1    2    0    0  0.56366742335E+02  0.17479805006E+02  0.75387768235E+02  0.15752024451E+03  0.12508620470E+03 0.  0.
          5    1    3    3  502    0  0.86007960539E+02 -0.19232778448E+02  0.63428425376E+02  0.10866419184E+03  0.41800000000E+01 0.  1.
         -5    1    3    3    0  502 -0.29641218204E+02  0.36712583454E+02  0.11959342859E+02  0.48856052666E+02  0.41800000000E+01 0.  1.
        -11    1    1    2    0    0 -0.19703001707E+02 -0.52678760848E+02 -0.30911566466E+02  0.64177761430E+02  0.00000000000E+00 0.  1.
         11    1    1    2    0    0 -0.36663740628E+02  0.35198955842E+02 -0.45025873927E+02  0.67900851925E+02  0.00000000000E+00 0. -1.
</event>
<event>
 7    1  0.2855090E-009  0.1745040E+03  0.7561462E-02  0.1173231E+00
          2   -1    0    0  501    0  0.00000000000E+00  0.00000000000E+00  0.36552114844E+03  0.36552114844E+03  0.00000000000E+00 0. -1.
         -2   -1    0    0    0  501 -0.00000000000E+00 -0.00000000000E+00 -0.11283195069E+03  0.11283195069E+03  0.00000000000E+00 0.  1.
         25    2    1    2    0    0  0.15694992297E+03  0.94318276144E+01  0.21231217083E+03  0.29231161362E+03  0.12508950349E+03 0.  0.
          5    1    3    3  502    0  0.81936099978E+02 -0.43327975467E+02  0.48903585551E+02  0.10488026992E+03  0.41800000000E+01 0. -1.
         -5    1    3    3    0  502  0.75013822991E+02  0.52759803082E+02  0.16340858528E+03  0.18743134371E+03  0.41800000000E+01 0. -1.
        -11    1    1    2    0    0 -0.32739324094E+02 -0.22200897247E+02  0.46471781759E+02  0.61027614082E+02  0.00000000000E+00 0. -1.
         11    1    1    2    0    0 -0.12421059888E+03  0.12769069633E+02 -0.60947548316E+01  0.12501387143E+03  0.00000000000E+00 0.  1.
</event>
<event>
 7    1  0.2855090E-009  0.5932176E+02  0.7561462E-02  0.1400700E+00
          2   -1    0    0  501    0  0.00000000000E+00  0.00000000000E+00  0.10310284712E+03  0.10310284712E+03  0.00000000000E+00 0.  1.
         -2   -1    0    0    0  501 -0.00000000000E+00 -0.00000000000E+00 -0.12417610039E+03  0.12417610039E+03  0.00000000000E+00 0. -1.
         25    2    1    2    0    0  0.31042984932E+02 -0.10731441070E+02 -0.22447948006E+01  0.12934989480E+03  0.12509006931E+03 0.  0.
          5    1    3    3  502    0  0.33846350145E+02  0.10565689894E+02  0.56402517648E+02  0.66752719930E+02  0.41800000000E+01 0. -1.
         -5    1    3    3    0  502 -0.28033652126E+01 -0.21297130964E+02 -0.58647312449E+02  0.62597174866E+02  0.41800000000E+01 0. -1.
        -11    1    1    2    0    0 -0.95689145043E+01 -0.20807082920E+02 -0.45797734196E+02  0.51204797450E+02  0.00000000000E+00 0. -1.
         11    1    1    2    0    0 -0.21474070428E+02  0.31538523990E+02  0.26969275723E+02  0.46724255256E+02  0.00000000000E+00 0.  1.
</event>
<event>
 7    1  0.2855090E-009  0.9553169E+02  0.7561462E-02  0.1289983E+00
          1   -1    0    0  501    0  0.00000000000E+00  0.00000000000E+00  0.28056544003E+03  0.28056544003E+03  0.00000000000E+00 0. -1.
         -1   -1    0    0    0  501 -0.00000000000E+00 -0.00000000000E+00 -0.43732899331E+02  0.43732899331E+02  0.00000000000E+00 0.  1.
         25    2    1    2    0    0  0.11410433469E+02  0.20602588055E+02  0.15110678655E+03  0.19756615357E+03  0.12507781367E+03 0.  0.
          5    1    3    3  502    0 -0.63341795917E+01  0.57293194522E+02  0.14506421343E+03  0.15615290708E+03  0.41800000000E+01 0. -1.
         -5    1    3    3    0  502  0.17744613061E+02 -0.36690606467E+02  0.60425731124E+01  0.41413246497E+02  0.41800000000E+01 0. -1.
        -11    1    1    2    0    0  0.34568299564E+02  0.11264419424E+02  0.43188365071E+02  0.56454312123E+02  0.00000000000E+00 0.  1.
         11    1    1    2    0    0 -0.45978733034E+02 -0.31867007479E+02  0.42537389088E+02  0.70277873669E+02  0.00000000000E+00 0. -1.
</event>
<event>
 7    1  0.2855090E-009  0.1088031E+03  0.7561462E-02  0.1262803E+00
          2   -1    0    0  501    0  0.00000000000E+00  0.00000000000E+00  0.25821550944E+03  0.25821550944E+03  0.00000000000E+00 0.  1.
         -2   -1    0    0    0  501 -0.00000000000E+00 -0.00000000000E+00 -0.56979968352E+02  0.56979968352E+02  0.00000000000E+00 0. -1.
         25    2    1    2    0    0 -0.36526994538E+02 -0.41071091758E+02  0.11901565947E+03  0.18119926080E+03  0.12508952397E+03 0.  0.
          5    1    3    3  502    0  0.17115030195E+02  0.31442336092E+02  0.69325992296E+02  0.78135205671E+02  0.41800000000E+01 0. -1.
         -5    1    3    3    0  502 -0.53642024733E+02 -0.72513427850E+02  0.49689667172E+02  0.10306405513E+03  0.41800000000E+01 0. -1.
        -11    1    1    2    0    0  0.16299730004E+02 -0.20656155540E+02  0.59708372056E+02  0.65249119944E+02  0.00000000000E+00 0.  1.
         11    1    1    2    0    0  0.20227264533E+02  0.61727247298E+02  0.22511509563E+02  0.68747097046E+02  0.00000000000E+00 0. -1.
</event>
<event>
 7    1  0.2855090E-009  0.1206800E+03  0.7561462E-02  0.1241980E+00
          2   -1    0    0  501    0  0.00000000000E+00  0.00000000000E+00  0.47326657578E+02  0.47326657578E+02  0.00000000000E+00 0. -1.
         -2   -1    0    0    0  501 -0.00000000000E+00 -0.00000000000E+00 -0.33395355486E+03  0.33395355486E+03  0.00000000000E+00 0.  1.
         25    2    1    2    0    0 -0.31220182527E+02 -0.44004570909E+02 -0.19426790749E+03  0.23727250771E+03  0.12508845261E+03 0.  0.
          5    1    3    3  502    0 -0.46935579263E+02 -0.80507578754E+02 -0.15704302334E+03  0.18265925221E+03  0.41800000000E+01 0.  1.
         -5    1    3    3    0  502  0.15715396736E+02  0.36503007845E+02 -0.37224884144E+02  0.54613255495E+02  0.41800000000E+01 0.  1.
        -11    1    1    2    0    0 -0.32692979081E+02  0.25835766620E+02 -0.21574883760E+02  0.46923270637E+02  0.00000000000E+00 0. -1.
         11    1    1    2    0    0  0.63913161608E+02  0.18168804290E+02 -0.70784106030E+02  0.97084434089E+02  0.00000000000E+00 0.  1.
</event>
<event>
 7    1  0.2855090E-009  0.1292062E+03  0.7561462E-02  0.1228638E+00
         -1   -1    0    0    0  501 -0.00000000000E+00  0.00000000000E+00  0.78852505319E+02  0.78852505319E+02  0.00000000000E+00 0.  1.
          1   -1    0    0  501    0  0.00000000000E+00 -0.00000000000E+00 -0.30262806967E+03  0.30262806967E+03  0.00000000000E+00 0. -1.
         25    2    1    2    0    0 -0.88775028677E+02 -0.64175044394E+02 -0.14004722793E+03  0.21739582147E+03  0.12509306577E+03 0.  0.
          5    1    3    3  502    0 -0.76575048567E+02  0.56446820061E+01 -0.22588682699E+02  0.80145626730E+02  0.41800000000E+01 0. -1.
         -5    1    3    3    0  502 -0.12199980111E+02 -0.69819726401E+02 -0.11745854523E+03  0.13725019474E+03  0.41800000000E+01 0. -1.
        -11    1    1    2    0    0  0.34282524776E+02  0.16217752791E+02  0.15642405704E+02  0.41024283867E+02  0.00000000000E+00 0.  1.
         11    1    1    2    0    0  0.54492503901E+02  0.47957291604E+02 -0.99370742124E+02  0.12306046965E+03  0.00000000000E+00 0. -1.
</event>
<event>
 7    1  0.3393874E-009  0.9427229E+02  0.7561462E-02  0.1292824E+00
         -1   -1    0    0    0  501 -0.00000000000E+00  0.00000000000E+00  0.86533418991E+02  0.86533418991E+02  0.00000000000E+00 0.  1.
          1   -1    0    0  501    0  0.00000000000E+00 -0.00000000000E+00 -0.23346773094E+03  0.23346773094E+03  0.00000000000E+00 0. -1.
         25    2    1    2    0    0  0.34831598650E+02  0.53069792047E+02 -0.55439396168E+01  0.14039418687E+03  0.12510055695E+03 0.  0.
          5    1    3    3  502    0 -0.12229900976E+02  0.20709461411E+02 -0.57878605746E+02  0.62816062221E+02  0.41800000000E+01 0. -1.
         -5    1    3    3    0  502  0.47061499626E+02  0.32360330636E+02  0.52334666129E+02  0.77578124654E+02  0.41800000000E+01 0. -1.
        -11    1    1    2    0    0  0.23358829790E+01 -0.67098868441E+02 -0.64714820967E+02  0.93250858164E+02  0.00000000000E+00 0. -1.
         11    1    1    2    0    0 -0.37167481629E+02  0.14029076395E+02 -0.76675551368E+02  0.86356104895E+02  0.00000000000E+00 0.  1.
</event>
<event>
 7    1  0.2855090E-009  0.1152201E+03  0.7561462E-02  0.1251197E+00
          1   -1    0    0  501    0  0.00000000000E+00  0.00000000000E+00  0.44344716269E+03  0.44344716269E+03  0.00000000000E+00 0. -1.
         -1   -1    0    0    0  501 -0.00000000000E+00 -0.00000000000E+00 -0.65196836080E+02  0.65196836080E+02  0.00000000000E+00 0.  1.
         25    2    1    2    0    0  0.94906408082E+02  0.42695399618E+02  0.84555941874E+02  0.18337769341E+03  0.12509015825E+03 0.  0.
          5    1    3    3  502    0  0.30306549973E+02 -0.17986740467E+02  0.87683288520E+02  0.94593029814E+02  0.41800000000E+01 0. -1.
         -5    1    3    3    0  502  0.64599858110E+02  0.60682140085E+02 -0.31273466451E+01  0.88784663597E+02  0.41800000000E+01 0. -1.
        -11    1    1    2    0    0 -0.49672845504E+02 -0.10689967471E+02  0.37504999333E+02  0.63152925190E+02  0.00000000000E+00 0.  1.
         11    1    1    2    0    0 -0.45233562578E+02 -0.32005432146E+02  0.25618938540E+03  0.26211338017E+03  0.00000000000E+00 0. -1.
</event>
<event>
 7    1  0.2855090E-009  0.8069920E+02  0.7561462E-02  0.1327079E+00
         -3   -1    0    0    0  501 -0.00000000000E+00  0.00000000000E+00  0.16858783670E+02  0.16858783670E+02  0.00000000000E+00 0.  1.
          3   -1    0    0  501    0  0.00000000000E+00 -0.00000000000E+00 -0.90471416287E+03  0.90471416287E+03  0.00000000000E+00 0. -1.
         25    2    1    2    0    0 -0.14006686581E+02 -0.34153970847E+02 -0.67324087166E+03  0.68575700489E+03  0.12508683975E+03 0.  0.
          5    1    3    3  502    0 -0.30462314711E+02 -0.68137570016E+01 -0.36523236332E+02  0.48226539314E+02  0.41800000000E+01 0. -1.
         -5    1    3    3    0  502  0.16455628130E+02 -0.27340213846E+02 -0.63671763533E+03  0.63753046557E+03  0.41800000000E+01 0. -1.
        -11    1    1    2    0    0  0.22774659343E+01  0.64835043863E+02 -0.14303840544E+03  0.15706290203E+03  0.00000000000E+00 0.  1.
         11    1    1    2    0    0  0.11729220647E+02 -0.30681073015E+02 -0.71576102099E+02  0.78753039624E+02  0.00000000000E+00 0. -1.
</event>
<event>
 7    1  0.2855090E-009  0.1146310E+03  0.7561462E-02  0.1252227E+00
         -1   -1    0    0    0  501 -0.00000000000E+00  0.00000000000E+00  0.27602606069E+03  0.27602606069E+03  0.00000000000E+00 0.  1.
          1   -1    0    0  501    0  0.00000000000E+00 -0.00000000000E+00 -0.77923992920E+02  0.77923992920E+02  0.00000000000E+00 0. -1.
         25    2    1    2    0    0  0.69373475456E+02  0.64069542004E+02  0.78224302156E+02  0.17519303910E+03  0.12512383542E+03 0.  0.
          5    1    3    3  502    0  0.10016168389E+02  0.18954002657E+01 -0.32868235700E+02  0.34665681724E+02  0.41800000000E+01 0.  1.
         -5    1    3    3    0  502  0.59357307067E+02  0.62174141738E+02  0.11109253786E+03  0.14052735737E+03  0.41800000000E+01 0.  1.
        -11    1    1    2    0    0  0.21022435921E+02 -0.27633751418E+02  0.37917803776E+02  0.51413294708E+02  0.00000000000E+00 0. -1.
         11    1    1    2    0    0 -0.90395911376E+02 -0.36435790586E+02  0.81959961836E+02  0.12734371980E+03  0.00000000000E+00 0.  1.
</event>
<event>
 7    1  0.2855090E-009  0.1071855E+03  0.7561462E-02  0.1265873E+00
         -1   -1    0    0    0  501 -0.00000000000E+00  0.00000000000E+00  0.57028539938E+02  0.57028539938E+02  0.00000000000E+00 0.  1.
          1   -1    0    0  501    0  0.00000000000E+00 -0.00000000000E+00 -0.26006808761E+03  0.26006808761E+03  0.00000000000E+00 0. -1.
         25    2    1    2    0    0  0.37886134452E+02 -0.23907000009E+02 -0.15554961363E+03  0.20457246503E+03  0.12508919744E+03 0.  0.
          5    1    3    3  502    0  0.48793179821E+02 -0.59558894785E+02 -0.48385548498E+02  0.91031148782E+02  0.41800000000E+01 0. -1.
         -5    1    3    3    0  502 -0.10907045369E+02  0.35651894776E+02 -0.10716406514E+03  0.11354131625E+03  0.41800000000E+01 0. -1.
        -11    1    1    2    0    0 -0.55679905756E+01 -0.33450893503E+02 -0.27675476149E+02  0.43770958126E+02  0.00000000000E+00 0.  1.
         11    1    1    2    0    0 -0.32318143876E+02  0.57357893512E+02 -0.19814457885E+02  0.68753204384E+02  0.00000000000E+00 0. -1.
</event>
<event>
 7    1  0.2855090E-009  0.1649491E+03  0.7561462E-02  0.1183220E+00
         -1   -1    0    0    0  501 -0.00000000000E+00  0.00000000000E+00  0.53541201911E+03  0.53541201911E+03  0.00000000000E+00 0.  1.
          1   -1    0    0  501    0  0.00000000000E+00 -0.00000000000E+00 -0.76646136499E+02  0.76646136499E+02  0.00000000000E+00 0. -1.
         25    2    1    2    0    0 -0.14163801264E+03 -0.19529333686E+02  0.38019040053E+03  0.42501326725E+03  0.12509522449E+03 0.  0.
          5    1    3    3  502    0  0.18822885347E+02 -0.70878784926E+01  0.97968849697E+02  0.10009948524E+03  0.41800000000E+01 0. -1.
         -5    1    3    3    0  502 -0.16046089799E+03 -0.12441455194E+02  0.28222155083E+03  0.32491378201E+03  0.41800000000E+01 0. -1.
        -11    1    1    2    0    0  0.10026111675E+03 -0.47690641307E+01  0.66656271194E+01  0.10059555700E+03  0.00000000000E+00 0. -1.
         11    1    1    2    0    0  0.41376895892E+02  0.24298397817E+02  0.71909854966E+02  0.86449331353E+02  0.00000000000E+00 0.  1.
</event>
<event>
 7    1  0.2855090E-009  0.9821934E+02  0.7561462E-02  0.1284086E+00
          1   -1    0    0  501    0  0.00000000000E+00  0.00000000000E+00  0.86972736161E+02  0.86972736161E+02  0.00000000000E+00 0. -1.
         -1   -1    0    0    0  501 -0.00000000000E+00 -0.00000000000E+00 -0.12071216831E+03  0.12071216831E+03  0.00000000000E+00 0.  1.
         25    2    1    2    0    0  0.95919957631E+01  0.42201922516E+01  0.62256297580E+01  0.12568241086E+03  0.12508994176E+03 0.  0.
          5    1    3    3  502    0 -0.31965311443E+02  0.52377626890E+02  0.72379462496E+01  0.61927838652E+02  0.41800000000E+01 0. -1.
         -5    1    3    3    0  502  0.41557307206E+02 -0.48157434638E+02 -0.10123164916E+01  0.63754572211E+02  0.41800000000E+01 0. -1.
        -11    1    1    2    0    0  0.30165121985E+02  0.44656115034E+01 -0.21519232908E+02  0.37322294348E+02  0.00000000000E+00 0.  1.
         11    1    1    2    0    0 -0.39757117748E+02 -0.86858037550E+01 -0.18445829000E+02  0.44680199261E+02  0.00000000000E+00 0. -1.
</event>
<event>
 7    1  0.2855090E-009  0.1408820E+03  0.7561462E-02  0.1212147E+00
         -2   -1    0    0    0  501 -0.00000000000E+00  0.00000000000E+00  0.30696445629E+02  0.30696445629E+02  0.00000000000E+00 0.  1.
          2   -1    0    0  501    0  0.00000000000E+00 -0.00000000000E+00 -0.84904726285E+03  0.84904726285E+03  0.00000000000E+00 0. -1.
         25    2    1    2    0    0  0.36650911389E+02  0.56260531682E+02 -0.56433363562E+03  0.58191728835E+03  0.12508693558E+03 0.  0.
          5    1    3    3  502    0  0.23634044401E+02 -0.36050867586E+02 -0.26050594285E+03  0.26408152485E+03  0.41800000000E+01 0. -1.
         -5    1    3    3    0  502  0.13016866987E+02  0.92311399268E+02 -0.30382769277E+03  0.31783576350E+03  0.41800000000E+01 0. -1.
        -11    1    1    2    0    0  0.35446580242E+02 -0.63451286682E+02 -0.73759332861E+02  0.10355175043E+03  0.00000000000E+00 0.  1.
         11    1    1    2    0    0 -0.72097491631E+02  0.71907550002E+01 -0.18025784874E+03  0.19427466970E+03  0.00000000000E+00 0. -1.
</event>
<event>
 7    1  0.2855090E-009  0.9268571E+02  0.7561462E-02  0.1296475E+00
         -2   -1    0    0    0  501 -0.00000000000E+00  0.00000000000E+00  0.86719774619E+02  0.86719774619E+02  0.00000000000E+00 0.  1.
          2   -1    0    0  501    0  0.00000000000E+00 -0.00000000000E+00 -0.17105497603E+03  0.17105497603E+03  0.00000000000E+00 0. -1.
         25    2    1    2    0    0  0.20357967730E+02  0.49469598066E+02 -0.34633988424E+02  0.14038644668E+03  0.12508858171E+03 0.  0.
          5    1    3    3  502    0  0.25394646409E+02  0.73065284515E+02  0.20437856717E+02  0.80116179731E+02  0.41800000000E+01 0.  1.
         -5    1    3    3    0  502 -0.50366786792E+01 -0.23595686448E+02 -0.55071845140E+02  0.60270266950E+02  0.41800000000E+01 0.  1.
        -11    1    1    2    0    0  0.71399675344E+01  0.13186102839E+02  0.16419809777E+02  0.22236514960E+02  0.00000000000E+00 0.  1.
         11    1    1    2    0    0 -0.27497935265E+02 -0.62655700905E+02 -0.66121022760E+02  0.95151789004E+02  0.00000000000E+00 0. -1.
</event>
<event>
 7    1  0.2855090E-009  0.1589920E+03  0.7561462E-02  0.1189839E+00
          2   -1    0    0  501    0  0.00000000000E+00  0.00000000000E+00  0.35892620632E+03  0.35892620632E+03  0.00000000000E+00 0. -1.
         -2   -1    0    0    0  501 -0.00000000000E+00 -0.00000000000E+00 -0.92561859870E+02  0.92561859870E+02  0.00000000000E+00 0.  1.
         25    2    1    2    0    0  0.10439866012E+03 -0.10142475456E+03  0.13201972992E+03  0.23294307595E+03  0.12508879437E+03 0.  0.
          5    1    3    3  502    0  0.80930498911E+02 -0.85279979710E+02  0.15606077010E+03  0.19543504537E+03  0.41800000000E+01 0.  1.
         -5    1    3    3    0  502  0.23468161211E+02 -0.16144774847E+02 -0.24041040184E+02  0.37508030588E+02  0.41800000000E+01 0.  1.
        -11    1    1    2    0    0 -0.10452721485E+02  0.72504520033E+02  0.68026180888E+02  0.99968625567E+02  0.00000000000E+00 0. -1.
         11    1    1    2    0    0 -0.93945938637E+02  0.28920234525E+02  0.66318435648E+02  0.11857636467E+03  0.00000000000E+00 0.  1.
</event>
<event>
 7    1  0.2855090E-009  0.1114613E+03  0.7561462E-02  0.1257888E+00
         -1   -1    0    0    0  501 -0.00000000000E+00  0.00000000000E+00  0.18610901257E+02  0.18610901257E+02  0.00000000000E+00 0.  1.
          1   -1    0    0  501    0  0.00000000000E+00 -0.00000000000E+00 -0.76192848591E+03  0.76192848591E+03  0.00000000000E+00 0. -1.
         25    2    1    2    0    0 -0.15368944910E+02 -0.45798350275E+02 -0.37825984757E+03  0.40132495558E+03  0.12509002492E+03 0.  0.
          5    1    3    3  502    0 -0.65421688354E+02 -0.19828069428E+02 -0.13261152123E+03  0.14925293165E+03  0.41800000000E+01 0.  1.
         -5    1    3    3    0  502  0.50052743444E+02 -0.25970280847E+02 -0.24564832634E+03  0.25207202393E+03  0.41800000000E+01 0.  1.
        -11    1    1    2    0    0 -0.22041152005E+01  0.68860735454E+02 -0.30275714281E+03  0.31049725689E+03  0.00000000000E+00 0.  1.
         11    1    1    2    0    0  0.17573060110E+02 -0.23062385179E+02 -0.62300594272E+02  0.68717174697E+02  0.00000000000E+00 0. -1.
</event>
<event>
 7    1  0.2855090E-009  0.1025728E+03  0.7561462E-02  0.1274977E+00
          4   -1    0    0  501    0  0.00000000000E+00  0.00000000000E+00  0.76181231820E+02  0.76181231820E+02  0.00000000000E+00 0.  1.
         -4   -1    0    0    0  501 -0.00000000000E+00 -0.00000000000E+00 -0.16108771661E+03  0.16108771661E+03  0.00000000000E+00 0. -1.
         25    2    1    2    0    0  0.25683736494E+02 -0.21734961999E+02 -0.45141978063E+02  0.13717957913E+03  0.12509346847E+03 0.  0.
          5    1    3    3  502    0  0.70408971323E+02 -0.92363716544E+01 -0.54512938396E+02  0.89620682081E+02  0.41800000000E+01 0. -1.
         -5    1    3    3    0  502 -0.44725234829E+02 -0.12498590345E+02  0.93709603332E+01  0.47558897051E+02  0.41800000000E+01 0. -1.
        -11    1    1    2    0    0  0.72740294492E+01  0.45927516821E+02 -0.36427417705E+02  0.59069493535E+02  0.00000000000E+00 0. -1.
         11    1    1    2    0    0 -0.32957765944E+02 -0.24192554822E+02 -0.33370890242E+01  0.41019875767E+02  0.00000000000E+00 0.  1.
</event>
<event>
 7    1  0.2855090E-009  0.7501222E+02  0.7561462E-02  0.1343833E+00
         -1   -1    0    0    0  501 -0.00000000000E+00  0.00000000000E+00  0.61414211055E+02  0.61414211055E+02  0.00000000000E+00 0.  1.
          1   -1    0    0  501    0  0.00000000000E+00 -0.00000000000E+00 -0.18975229366E+03  0.18975229366E+03  0.00000000000E+00 0. -1.
         25    2    1    2    0    0 -0.91802530728E+00  0.24360052738E+02 -0.10128991638E+03  0.16279233497E+03  0.12508973669E+03 0.  0.
          5    1    3    3  502    0 -0.40690215340E+02  0.48275270691E+02 -0.97247944480E+02  0.11602081921E+03  0.41800000000E+01 0.  1.
         -5    1    3    3    0  502  0.39772190033E+02 -0.23915217953E+02 -0.40419718987E+01  0.46771515761E+02  0.41800000000E+01 0.  1.
        -11    1    1    2    0    0  0.15473275023E+02 -0.57041539639E+01  0.25714702367E+02  0.30548412891E+02  0.00000000000E+00 0.  1.
         11    1    1    2    0    0 -0.14555249716E+02 -0.18655898774E+02 -0.52762868592E+02  0.57825756851E+02  0.00000000000E+00 0. -1.
</event>
<event>
 7    1  0.2855090E-009  0.2382633E+03  0.7561462E-02  0.1120955E+00
          2   -1    0    0  501    0  0.00000000000E+00  0.00000000000E+00  0.88192320435E+03  0.88192320435E+03  0.00000000000E+00 0. -1.
         -2   -1    0    0    0  501 -0.00000000000E+00 -0.00000000000E+00 -0.93444297201E+02  0.93444297201E+02  0.00000000000E+00 0.  1.
         25    2    1    2    0    0 -0.15242178831E+03  0.14740220362E+03  0.67397563237E+03  0.71753101237E+03  0.12509112483E+03 0.  0.
          5    1    3    3  502    0  0.16746120828E+02  0.44690536432E+02  0.11723008346E+03  0.12664138927E+03  0.41800000000E+01 0.  1.
         -5    1    3    3    0  502 -0.16916790914E+03  0.10271166719E+03  0.55674554891E+03  0.59088962310E+03  0.41800000000E+01 0.  1.
        -11    1    1    2    0    0  0.15306799353E+02 -0.73157148979E+02  0.43798739950E+02  0.86629072340E+02  0.00000000000E+00 0. -1.
         11    1    1    2    0    0  0.13711498896E+03 -0.74245054639E+02  0.70704534833E+02  0.17120741684E+03  0.00000000000E+00 0.  1.
</event>
<event>
 7    1  0.2855090E-009  0.1086767E+03  0.7561462E-02  0.1263040E+00
          1   -1    0    0  501    0  0.00000000000E+00  0.00000000000E+00  0.25093681064E+03  0.25093681064E+03  0.00000000000E+00 0. -1.
         -1   -1    0    0    0  501 -0.00000000000E+00 -0.00000000000E+00 -0.64642056513E+02  0.64642056513E+02  0.00000000000E+00 0.  1.
         25    2    1    2    0    0 -0.53598550534E+02  0.35466349004E+02  0.82168652376E+02  0.16287973544E+03  0.12508978477E+03 0.  0.
          5    1    3    3  502    0  0.12118561848E+02  0.61620852870E+02  0.13834134198E+02  0.64442569151E+02  0.41800000000E+01 0. -1.
         -5    1    3    3    0  502 -0.65717112382E+02 -0.26154503867E+02  0.68334518179E+02  0.98437166290E+02  0.41800000000E+01 0. -1.
        -11    1    1    2    0    0  0.52138256435E+02 -0.42524581687E+01  0.96559269701E+01  0.53195094795E+02  0.00000000000E+00 0.  1.
         11    1    1    2    0    0  0.14602940987E+01 -0.31213890835E+02  0.94470174779E+02  0.99504036917E+02  0.00000000000E+00 0. -1.
</event>
<event>
 7    1  0.3043571E-009  0.9553924E+02  0.7561462E-02  0.1289966E+00
          4   -1    0    0  501    0  0.00000000000E+00  0.00000000000E+00  0.27212527200E+02  0.27212527200E+02  0.00000000000E+00 0. -1.
         -4   -1    0    0    0  501 -0.00000000000E+00 -0.00000000000E+00 -0.45319097336E+03  0.45319097336E+03  0.00000000000E+00 0.  1.
         25    2    1    2    0    0  0.16585686566E+02 -0.22107752539E+00 -0.28266788696E+03  0.30955459108E+03  0.12509107350E+03 0.  0.
          5    1    3    3  502    0  0.36280359726E+02  0.47405773464E+02 -0.22159164579E+03  0.22952974043E+03  0.41800000000E+01 0. -1.
         -5    1    3    3    0  502 -0.19694673161E+02 -0.47626850990E+02 -0.61076241167E+02  0.80024850647E+02  0.41800000000E+01 0. -1.
        -11    1    1    2    0    0 -0.28842105855E+02 -0.33172279100E+02 -0.12129776973E+03  0.12901711558E+03  0.00000000000E+00 0.  1.
         11    1    1    2    0    0  0.12256419289E+02  0.33393356626E+02 -0.22012789473E+02  0.41831793900E+02  0.00000000000E+00 0. -1.
</event>
<event>
 7    1  0.2855090E-009  0.2039780E+03  0.7561462E-02  0.1146426E+00
          2   -1    0    0  501    0  0.00000000000E+00  0.00000000000E+00  0.43948250463E+03  0.43948250463E+03  0.00000000000E+00 0. -1.
         -2   -1    0    0    0  501 -0.00000000000E+00 -0.00000000000E+00 -0.15277242078E+03  0.15277242078E+03  0.00000000000E+00 0.  1.
         25    2    1    2    0    0 -0.15070953655E+02  0.19865159672E+03  0.28785339686E+03  0.37174648071E+03  0.12508508031E+03 0.  0.
          5    1    3    3  502    0 -0.31832180683E+02  0.14246587421E+03  0.27530446974E+03  0.31164055657E+03  0.41800000000E+01 0. -1.
         -5    1    3    3    0  502  0.16761227028E+02  0.56185722507E+02  0.12548927119E+02  0.60105924142E+02  0.41800000000E+01 0. -1.
        -11    1    1    2    0    0  0.28079005871E+02 -0.10961910636E+03 -0.43280657312E+02  0.12115277276E+03  0.00000000000E+00 0.  1.
         11    1    1    2    0    0 -0.13008052216E+02 -0.89032490355E+02  0.42137344304E+02  0.99355671938E+02  0.00000000000E+00 0. -1.
</event>
<event>
 7    1  0.2855090E-009  0.1366509E+03  0.7561462E-02  0.1217908E+00
         -2   -1    0    0    0  501 -0.00000000000E+00  0.00000000000E+00  0.16131577346E+03  0.16131577346E+03  0.00000000000E+00 0.  1.
          2   -1    0    0  501    0  0.00000000000E+00 -0.00000000000E+00 -0.19482231350E+03  0.19482231350E+03  0.00000000000E+00 0. -1.
         25    2    1    2    0    0 -0.79883203787E+02  0.63336602170E+02  0.79016855820E+02  0.17967946939E+03  0.12509275277E+03 0.  0.
          5    1    3    3  502    0  0.26999558222E+02  0.87789787371E+01 -0.98022676244E+01  0.30324964344E+02  0.41800000000E+01 0. -1.
         -5    1    3    3    0  502 -0.10688276201E+03  0.54557623433E+02  0.88819123445E+02  0.14935450505E+03  0.41800000000E+01 0. -1.
        -11    1    1    2    0    0  0.53109935166E+02 -0.77723550131E+02 -0.49198294156E+02  0.10621717190E+03  0.00000000000E+00 0.  1.
         11    1    1    2    0    0  0.26773268622E+02  0.14386947961E+02 -0.63325101706E+02  0.70241445674E+02  0.00000000000E+00 0. -1.
</event>
<event>
 7    1  0.2855090E-009  0.2872327E+03  0.7561462E-02  0.1091803E+00
         -2   -1    0    0    0  501 -0.00000000000E+00  0.00000000000E+00  0.68101465483E+02  0.68101465483E+02  0.00000000000E+00 0. -1.
          2   -1    0    0  501    0  0.00000000000E+00 -0.00000000000E+00 -0.14873742091E+04  0.14873742091E+04  0.00000000000E+00 0.  1.
         25    2    1    2    0    0  0.12585131890E+03 -0.25549852605E+03 -0.49933745084E+03  0.58830555278E+03  0.12508989704E+03 0.  0.
          5    1    3    3  502    0  0.58869079692E+02 -0.66134805465E+02 -0.26607795874E+03  0.28045379934E+03  0.41800000000E+01 0. -1.
         -5    1    3    3    0  502  0.66982239208E+02 -0.18936372058E+03 -0.23325949210E+03  0.30785175344E+03  0.41800000000E+01 0. -1.
        -11    1    1    2    0    0 -0.52923309506E+02  0.98713495602E+02 -0.22897104991E+03  0.25489796508E+03  0.00000000000E+00 0.  1.
         11    1    1    2    0    0 -0.72928009394E+02  0.15678503044E+03 -0.69096424288E+03  0.71227215673E+03  0.00000000000E+00 0. -1.
</event>
<event>
 7    1  0.2855090E-009  0.9756082E+02  0.7561462E-02  0.1285510E+00
         -2   -1    0    0    0  501 -0.00000000000E+00  0.00000000000E+00  0.89993442689E+02  0.89993442689E+02  0.00000000000E+00 0.  1.
          2   -1    0    0  501    0  0.00000000000E+00 -0.00000000000E+00 -0.16180651079E+03  0.16180651079E+03  0.00000000000E+00 0. -1.
         25    2    1    2    0    0 -0.79579183616E+00  0.42433516342E+02 -0.74068242030E+01  0.13229919978E+03  0.12508789159E+03 0.  0.
          5    1    3    3  502    0 -0.51776935763E+02  0.91679092884E+01 -0.37052221524E+02  0.64461160070E+02  0.41800000000E+01 0.  1.
         -5    1    3    3    0  502  0.50981143926E+02  0.33265607053E+02  0.29645397321E+02  0.67838039705E+02  0.41800000000E+01 0.  1.
        -11    1    1    2    0    0  0.34720379119E+02 -0.15423260409E+02  0.43207746055E+01  0.38236772628E+02  0.00000000000E+00 0.  1.
         11    1    1    2    0    0 -0.33924587283E+02 -0.27010255933E+02 -0.68727018505E+02  0.81263981077E+02  0.00000000000E+00 0. -1.
</event>
<event>
 7    1  0.2855090E-009  0.1211573E+03  0.7561462E-02  0.1241200E+00
          1   -1    0    0  501    0  0.00000000000E+00  0.00000000000E+00  0.48733526827E+03  0.48733526827E+03  0.00000000000E+00 0. -1.
         -1   -1    0    0    0  501 -0.00000000000E+00 -0.00000000000E+00 -0.54355049934E+02  0.54355049934E+02  0.00000000000E+00 0.  1.
         25    2    1    2    0    0 -0.37149474162E+02 -0.62887763070E+02  0.71730749936E+02  0.16163834963E+03  0.12508677552E+03 0.  0.
          5    1    3    3  502    0 -0.29893563044E+02 -0.93923952693E+02  0.81581394618E+02  0.12801691431E+03  0.41800000000E+01 0. -1.
         -5    1    3    3    0  502 -0.72559111176E+01  0.31036189624E+02 -0.98506446826E+01  0.33621435323E+02  0.41800000000E+01 0. -1.
        -11    1    1    2    0    0  0.49218982745E+01 -0.21041490942E+02  0.31031910000E+02  0.37814664641E+02  0.00000000000E+00 0.  1.
         11    1    1    2    0    0  0.32227575887E+02  0.83929254011E+02  0.33021755840E+03  0.34223730393E+03  0.00000000000E+00 0. -1.
</event>
<event>
 7    1  0.2855090E-009  0.9988837E+02  0.7561462E-02  0.1280531E+00
          3   -1    0    0  501    0  0.00000000000E+00  0.00000000000E+00  0.34151617696E+02  0.34151617696E+02  0.00000000000E+00 0. -1.
         -3   -1    0    0    0  501 -0.00000000000E+00 -0.00000000000E+00 -0.38617071897E+03  0.38617071897E+03  0.00000000000E+00 0.  1.
         25    2    1    2    0    0 -0.32261451042E+02 -0.16724267440E+02 -0.18067538680E+03  0.22276278594E+03  0.12513656964E+03 0.  0.
          5    1    3    3  502    0  0.28105586398E+02  0.28264238277E+02 -0.18969510185E+02  0.44340792379E+02  0.41800000000E+01 0. -1.
         -5    1    3    3    0  502 -0.60367037440E+02 -0.44988505718E+02 -0.16170587661E+03  0.17842199356E+03  0.41800000000E+01 0. -1.
        -11    1    1    2    0    0  0.57340878780E+02  0.14314228541E+02 -0.15874610666E+03  0.16939067240E+03  0.00000000000E+00 0.  1.
         11    1    1    2    0    0 -0.25079427738E+02  0.24100388995E+01 -0.12597607820E+02  0.28168878323E+02  0.00000000000E+00 0. -1.
</event>
<event>
 7    1  0.2855090E-009  0.1449018E+03  0.7561462E-02  0.1206881E+00
         -1   -1    0    0    0  501 -0.00000000000E+00  0.00000000000E+00  0.97730246194E+02  0.97730246194E+02  0.00000000000E+00 0. -1.
          1   -1    0    0  501    0  0.00000000000E+00 -0.00000000000E+00 -0.45194191402E+03  0.45194191402E+03  0.00000000000E+00 0.  1.
         25    2    1    2    0    0 -0.50244120435E+02  0.12654480493E+03 -0.33773802836E+03  0.38503627281E+03  0.12509155164E+03 0.  0.
          5    1    3    3  502    0 -0.86495455714E+01  0.15153627086E+02  0.78180127789E+01  0.19571427548E+02  0.41800000000E+01 0.  1.
         -5    1    3    3    0  502 -0.41594574863E+02  0.11139117784E+03 -0.34555604114E+03  0.36546484527E+03  0.41800000000E+01 0.  1.
        -11    1    1    2    0    0  0.67277304943E+02 -0.11114864862E+03 -0.35644067830E+02  0.13472474688E+03  0.00000000000E+00 0.  1.
         11    1    1    2    0    0 -0.17033184509E+02 -0.15396156313E+02  0.19170428362E+02  0.29911140521E+02  0.00000000000E+00 0. -1.
</event>
<event>
 7    1  0.2855090E-009  0.6487179E+02  0.7561462E-02  0.1378454E+00
          2   -1    0    0  501    0  0.00000000000E+00  0.00000000000E+00  0.21249982636E+03  0.21249982636E+03  0.00000000000E+00 0. -1.
         -2   -1    0    0    0  501 -0.00000000000E+00 -0.00000000000E+00 -0.64779062947E+02  0.64779062947E+02  0.00000000000E+00 0.  1.
         25    2    1    2    0    0 -0.13476372305E+01  0.37448907740E+02  0.11584524628E+03  0.17455951286E+03  0.12508663248E+03 0.  0.
          5    1    3    3  502    0  0.31290263818E+02  0.42324681846E+02  0.12853497355E+03  0.13895744359E+03  0.41800000000E+01 0.  1.
         -5    1    3    3    0  502 -0.32637901049E+02 -0.48757741069E+01 -0.12689727269E+02  0.35602069268E+02  0.41800000000E+01 0.  1.
        -11    1    1    2    0    0  0.11300448517E+02 -0.26893255455E+02  0.62422513930E+02  0.68902231974E+02  0.00000000000E+00 0. -1.
         11    1    1    2    0    0 -0.99528112867E+01 -0.10555652284E+02 -0.30546996794E+02  0.33817144480E+02  0.00000000000E+00 0.  1.
</event>
<event>
 7    1  0.2855090E-009  0.1230076E+03  0.7561462E-02  0.1238216E+00
         -1   -1    0    0    0  501 -0.00000000000E+00  0.00000000000E+00  0.74366341400E+02  0.74366341400E+02  0.00000000000E+00 0.  1.
          1   -1    0    0  501    0  0.00000000000E+00 -0.00000000000E+00 -0.43598542839E+03  0.43598542839E+03  0.00000000000E+00 0. -1.
         25    2    1    2    0    0 -0.83650440844E+01 -0.85387381131E+02 -0.28401341166E+02  0.15432075521E+03  0.12508909021E+03 0.  0.
          5    1    3    3  502    0 -0.48752443457E+01 -0.11668286361E+03 -0.34771025014E+02  0.12192274295E+03  0.41800000000E+01 0. -1.
         -5    1    3    3    0  502 -0.34897997387E+01  0.31295482482E+02  0.63696838476E+01  0.32398012259E+02  0.41800000000E+01 0. -1.
        -11    1    1    2    0    0  0.24787846889E+02  0.26632176909E+02 -0.31246867087E+02  0.47959116996E+02  0.00000000000E+00 0.  1.
         11    1    1    2    0    0 -0.16422802805E+02  0.58755204222E+02 -0.30197087873E+03  0.30807189758E+03  0.00000000000E+00 0. -1.
</event>
<event>
 7    1  0.2855090E-009  0.1186876E+03  0.7561462E-02  0.1245278E+00
         -3   -1    0    0    0  501 -0.00000000000E+00  0.00000000000E+00  0.77134987807E+02  0.77134987807E+02  0.00000000000E+00 0.  1.
          3   -1    0    0  501    0  0.00000000000E+00 -0.00000000000E+00 -0.26085114514E+03  0.26085114514E+03  0.00000000000E+00 0. -1.
         25    2    1    2    0    0 -0.67444209418E+02 -0.46314138405E+02 -0.14891837876E+03  0.21099221046E+03  0.12508920234E+03 0.  0.
          5    1    3    3  502    0  0.22387704316E+02 -0.51864665290E+02 -0.77637765443E+02  0.96105399605E+02  0.41800000000E+01 0.  1.
         -5    1    3    3    0  502 -0.89831913734E+02  0.55505268845E+01 -0.71280613315E+02  0.11488681085E+03  0.41800000000E+01 0.  1.
        -11    1    1    2    0    0  0.41778383149E+02  0.49492488968E+02 -0.61858535331E+02  0.89562370202E+02  0.00000000000E+00 0. -1.
         11    1    1    2    0    0  0.25665826268E+02 -0.31783505630E+01  0.27060756755E+02  0.37431552286E+02  0.00000000000E+00 0.  1.
</event>
<event>
 7    1  0.2855090E-009  0.7996558E+02  0.7561462E-02  0.1329149E+00
         -1   -1    0    0    0  501 -0.00000000000E+00  0.00000000000E+00  0.42716244132E+03  0.42716244132E+03  0.00000000000E+00 0. -1.
          1   -1    0    0  501    0  0.00000000000E+00 -0.00000000000E+00 -0.33096404465E+02  0.33096404465E+02  0.00000000000E+00 0.  1.
         25    2    1    2    0    0 -0.22096430746E+02  0.43991478147E+01  0.30916020510E+03  0.33427081859E+03  0.12509733405E+03 0.  0.
          5    1    3    3  502    0 -0.45288032449E+02  0.82329355869E+01  0.32310419532E+02  0.56393463467E+02  0.41800000000E+01 0.  1.
         -5    1    3    3    0  502  0.23191601704E+02 -0.38337877723E+01  0.27684978557E+03  0.27787735512E+03  0.41800000000E+01 0.  1.
        -11    1    1    2    0    0  0.11762710368E+02  0.41321166217E+02  0.24259852483E+02  0.49339037032E+02  0.00000000000E+00 0.  1.
         11    1    1    2    0    0  0.10333720378E+02 -0.45720314031E+02  0.60645979271E+02  0.76648990168E+02  0.00000000000E+00 0. -1.
</event>
<event>
 7    1  0.2855090E-009  0.1169458E+03  0.7561462E-02  0.1248222E+00
         -4   -1    0    0    0  501 -0.00000000000E+00  0.00000000000E+00  0.54819755133E+03  0.54819755133E+03  0.00000000000E+00 0.  1.
          4   -1    0    0  501    0  0.00000000000E+00 -0.00000000000E+00 -0.47307424260E+02  0.47307424260E+02  0.00000000000E+00 0. -1.
         25    2    1    2    0    0  0.69767731900E+02  0.48265086089E+02  0.41673994939E+03  0.44330190984E+03  0.12508933967E+03 0.  0.
          5    1    3    3  502    0  0.84709752510E+02 -0.73184428310E+01  0.31536227832E+03  0.32664987488E+03  0.41800000000E+01 0.  1.
         -5    1    3    3    0  502 -0.14942020610E+02  0.55583528920E+02  0.10137767108E+03  0.11665203496E+03  0.41800000000E+01 0.  1.
        -11    1    1    2    0    0 -0.40483520123E+02 -0.79988201493E+01 -0.12808283774E+02  0.43208201288E+02  0.00000000000E+00 0. -1.
         11    1    1    2    0    0 -0.29284211776E+02 -0.40266265939E+02  0.96958461451E+02  0.10899486446E+03  0.00000000000E+00 0.  1.
</event>
<event>
 7    1  0.2855090E-009  0.1216220E+03  0.7561462E-02  0.1240445E+00
          3   -1    0    0  501    0  0.00000000000E+00  0.00000000000E+00  0.48132640443E+02  0.48132640443E+02  0.00000000000E+00 0. -1.
         -3   -1    0    0    0  501 -0.00000000000E+00 -0.00000000000E+00 -0.56626982526E+03  0.56626982526E+03  0.00000000000E+00 0.  1.
         25    2    1    2    0    0  0.11324735196E+03  0.30340312661E+02 -0.22775684058E+03  0.28507159722E+03  0.12508852790E+03 0.  0.
          5    1    3    3  502    0  0.44609781791E+02  0.35063991459E+02 -0.11432661461E+02  0.58031838473E+02  0.41800000000E+01 0.  1.
         -5    1    3    3    0  502  0.68637570166E+02 -0.47236787976E+01 -0.21632417912E+03  0.22703975875E+03  0.41800000000E+01 0.  1.
        -11    1    1    2    0    0 -0.54518152418E+02 -0.17984193328E+02 -0.25115889424E+03  0.25763627522E+03  0.00000000000E+00 0.  1.
         11    1    1    2    0    0 -0.58729199539E+02 -0.12356119333E+02 -0.39221449994E+02  0.71694593263E+02  0.00000000000E+00 0. -1.
</event>
<event>
 7    1  0.2855090E-009  0.1310151E+03  0.7561462E-02  0.1225957E+00
          2   -1    0    0  501    0  0.00000000000E+00  0.00000000000E+00  0.13106895278E+03  0.13106895278E+03  0.00000000000E+00 0. -1.
         -2   -1    0    0    0  501 -0.00000000000E+00 -0.00000000000E+00 -0.14310253731E+03  0.14310253731E+03  0.00000000000E+00 0.  1.
         25    2    1    2    0    0 -0.76369088036E+02  0.30266492643E+02 -0.13801066326E+02  0.15029218258E+03  0.12509585336E+03 0.  0.
          5    1    3    3  502    0 -0.24368879908E+02 -0.43232278685E+02 -0.30820827914E+02  0.58568490348E+02  0.41800000000E+01 0.  1.
         -5    1    3    3    0  502 -0.52000208128E+02  0.73498771328E+02  0.17019761588E+02  0.91723692232E+02  0.41800000000E+01 0.  1.
        -11    1    1    2    0    0  0.84655498795E+02  0.60262083380E+01  0.10850634990E+02  0.85560533793E+02  0.00000000000E+00 0. -1.
         11    1    1    2    0    0 -0.82864107593E+01 -0.36292700981E+02 -0.90831531942E+01  0.38318773724E+02  0.00000000000E+00 0.  1.
</event>
<event>
 7    1  0.2855090E-009  0.1618096E+03  0.7561462E-02  0.1186669E+00
          2   -1    0    0  501    0  0.00000000000E+00  0.00000000000E+00  0.39404451367E+03  0.39404451367E+03  0.00000000000E+00 0. -1.
         -2   -1    0    0    0  501 -0.00000000000E+00 -0.00000000000E+00 -0.13726555496E+03  0.13726555496E+03  0.00000000000E+00 0.  1.
         25    2    1    2    0    0 -0.95791711969E+02 -0.94913614679E+02  0.31018316623E+03  0.36061804916E+03  0.12508850640E+03 0.  0.
          5    1    3    3  502    0 -0.22052023924E+02 -0.87229580990E+02  0.86300057613E+02  0.12474158851E+03  0.41800000000E+01 0.  1.
         -5    1    3    3    0  502 -0.73739688044E+02 -0.76840336882E+01  0.22388310862E+03  0.23587646065E+03  0.41800000000E+01 0.  1.
        -11    1    1    2    0    0 -0.66869724217E+01  0.44653744461E+02 -0.11676666077E+01  0.45166757022E+02  0.00000000000E+00 0. -1.
         11    1    1    2    0    0  0.10247868439E+03  0.50259870217E+02 -0.52236540912E+02  0.12552526246E+03  0.00000000000E+00 0.  1.
</event>
<event>
 7    1  0.2855090E-009  0.7457741E+02  0.7561462E-02  0.1345185E+00
         -2   -1    0    0    0  501 -0.00000000000E+00  0.00000000000E+00  0.20565890763E+02  0.20565890763E+02  0.00000000000E+00 0.  1.
          2   -1    0    0  501    0  0.00000000000E+00 -0.00000000000E+00 -0.76819235462E+03  0.76819235462E+03  0.00000000000E+00 0. -1.
         25    2    1    2    0    0 -0.36211583925E+02 -0.53336449477E+02 -0.42607000916E+03  0.44870794107E+03  0.12508840083E+03 0.  0.
          5    1    3    3  502    0 -0.16589602551E+02 -0.53132395539E+02 -0.59481276322E+02  0.81570589071E+02  0.41800000000E+01 0. -1.
         -5    1    3    3    0  502 -0.19621981374E+02 -0.20405393771E+00 -0.36658873283E+03  0.36713735200E+03  0.41800000000E+01 0. -1.
        -11    1    1    2    0    0 -0.67128772817E+01  0.11600987514E+02 -0.45050452268E+00  0.13410763850E+02  0.00000000000E+00 0.  1.
         11    1    1    2    0    0  0.42924461206E+02  0.41735461963E+02 -0.32110595018E+03  0.32663954046E+03  0.00000000000E+00 0. -1.
</event>
<event>
 7    1  0.2855090E-009  0.9317292E+02  0.7561462E-02  0.1295345E+00
          2   -1    0    0  501    0  0.00000000000E+00  0.00000000000E+00  0.38636352426E+03  0.38636352426E+03  0.00000000000E+00 0. -1.
         -2   -1    0    0    0  501 -0.00000000000E+00 -0.00000000000E+00 -0.34886105921E+02  0.34886105921E+02  0.00000000000E+00 0.  1.
         25    2    1    2    0    0 -0.19055283286E+02  0.29393776162E+02  0.22787631224E+03  0.26230096182E+03  0.12508830078E+03 0.  0.
          5    1    3    3  502    0 -0.51385274745E+02  0.19011482942E+02  0.22057738008E+03  0.22731857809E+03  0.41800000000E+01 0. -1.
         -5    1    3    3    0  502  0.32329991459E+02  0.10382293220E+02  0.72989321582E+01  0.34982383722E+02  0.41800000000E+01 0. -1.
        -11    1    1    2    0    0 -0.36646623859E+02 -0.79589559522E+01  0.30398922976E+02  0.48274367300E+02  0.00000000000E+00 0. -1.
         11    1    1    2    0    0  0.55701907145E+02 -0.21434820210E+02  0.93202183129E+02  0.11067430107E+03  0.00000000000E+00 0.  1.
</event>
<event>
 7    1  0.2855090E-009  0.1040689E+03  0.7561462E-02  0.1271965E+00
          3   -1    0    0  501    0  0.00000000000E+00  0.00000000000E+00  0.22742095518E+03  0.22742095518E+03  0.00000000000E+00 0. -1.
         -3   -1    0    0    0  501 -0.00000000000E+00 -0.00000000000E+00 -0.71375422514E+02  0.71375422514E+02  0.00000000000E+00 0.  1.
         25    2    1    2    0    0 -0.35792336911E+02 -0.46281837069E+02  0.12564856160E+03  0.18670302833E+03  0.12508940775E+03 0.  0.
          5    1    3    3  502    0 -0.79310648018E+02 -0.25276032939E+02  0.51097181092E+02  0.97762216862E+02  0.41800000000E+01 0.  1.
         -5    1    3    3    0  502  0.43518311107E+02 -0.21005804130E+02  0.74551380512E+02  0.88940811471E+02  0.41800000000E+01 0.  1.
        -11    1    1    2    0    0  0.44467101169E+02  0.20271007909E+02  0.56176493470E+02  0.74458278697E+02  0.00000000000E+00 0. -1.
         11    1    1    2    0    0 -0.86747642576E+01  0.26010829160E+02 -0.25779522406E+02  0.37635070666E+02  0.00000000000E+00 0.  1.
</event>
<event>
 7    1  0.2855090E-009  0.8411838E+02  0.7561462E-02  0.1317754E+00
          1   -1    0    0  501    0  0.00000000000E+00  0.00000000000E+00  0.14830133052E+04  0.14830133052E+04  0.00000000000E+00 0. -1.
         -1   -1    0    0    0  501 -0.00000000000E+00 -0.00000000000E+00 -0.93379220679E+01  0.93379220679E+01  0.00000000000E+00 0.  1.
         25    2    1    2    0    0 -0.90409973636E+01  0.20771810325E+02  0.10972788755E+04  0.11046180474E+04  0.12508753855E+03 0.  0.
          5    1    3    3  502    0 -0.42058410744E+02  0.79460384005E+01  0.10013515031E+04  0.10022745904E+04  0.41800000000E+01 0.  1.
         -5    1    3    3    0  502  0.33017413381E+02  0.12825771924E+02  0.95927372349E+02  0.10234345694E+03  0.41800000000E+01 0.  1.
        -11    1    1    2    0    0 -0.23129231025E+02  0.24715647302E+02  0.19691601880E+03  0.19980426174E+03  0.00000000000E+00 0.  1.
         11    1    1    2    0    0  0.32170228388E+02 -0.45487457627E+02  0.17948048890E+03  0.18792891819E+03  0.00000000000E+00 0. -1.
</event>
<event>
 7    1  0.2855090E-009  0.9674269E+02  0.7561462E-02  0.1287299E+00
          2   -1    0    0  501    0  0.00000000000E+00  0.00000000000E+00  0.19524349417E+04  0.19524349417E+04  0.00000000000E+00 0. -1.
         -2   -1    0    0    0  501 -0.00000000000E+00 -0.00000000000E+00 -0.17904784230E+02  0.17904784230E+02  0.00000000000E+00 0.  1.
         25    2    1    2    0    0 -0.24418990276E+02 -0.14965771661E+02  0.17988017273E+04  0.18033731772E+04  0.12508757118E+03 0.  0.
          5    1    3    3  502    0 -0.33028218274E+02  0.51226259950E+02  0.92545989598E+03  0.92747424998E+03  0.41800000000E+01 0.  1.
         -5    1    3    3    0  502  0.86092279985E+01 -0.66192031611E+02  0.87334183135E+03  0.87589892719E+03  0.41800000000E+01 0.  1.
        -11    1    1    2    0    0  0.33525948528E+02  0.31903845675E+02  0.21322941594E+02  0.50955985240E+02  0.00000000000E+00 0.  1.
         11    1    1    2    0    0 -0.91069582524E+01 -0.16938074014E+02  0.11440548857E+03  0.11601056354E+03  0.00000000000E+00 0. -1.
</event>
<event>
 7    1  0.2855090E-009  0.1972234E+03  0.7561462E-02  0.1152103E+00
          2   -1    0    0  501    0  0.00000000000E+00  0.00000000000E+00  0.53982559879E+03  0.53982559879E+03  0.00000000000E+00 0. -1.
         -2   -1    0    0    0  501 -0.00000000000E+00 -0.00000000000E+00 -0.93791349544E+02  0.93791349544E+02  0.00000000000E+00 0.  1.
         25    2    1    2    0    0 -0.13838225665E+03 -0.13685563253E+03  0.26442623965E+03  0.35136191944E+03  0.12511933945E+03 0.  0.
          5    1    3    3  502    0 -0.11686272704E+03 -0.13236769048E+03  0.27482526177E+03  0.32668715825E+03  0.41800000000E+01 0.  1.
         -5    1    3    3    0  502 -0.21519529613E+02 -0.44879420482E+01 -0.10399022126E+02  0.24674761190E+02  0.41800000000E+01 0.  1.
        -11    1    1    2    0    0  0.94865254981E+02  0.10506171292E+03  0.69130486741E+02  0.15753223264E+03  0.00000000000E+00 0.  1.
         11    1    1    2    0    0  0.43517001668E+02  0.31793919612E+02  0.11247752286E+03  0.12472279626E+03  0.00000000000E+00 0. -1.
</event>
<event>
 7    1  0.2855090E-009  0.9914953E+02  0.7561462E-02  0.1282095E+00
          1   -1    0    0  501    0  0.00000000000E+00  0.00000000000E+00  0.36415134729E+02  0.36415134729E+02  0.00000000000E+00 0. -1.
         -1   -1    0    0    0  501 -0.00000000000E+00 -0.00000000000E+00 -0.47134304714E+03  0.47134304714E+03  0.00000000000E+00 0.  1.
         25    2    1    2    0    0  0.50762258374E+02  0.29810196213E+02 -0.32306606020E+03  0.35140359349E+03  0.12508937439E+03 0.  0.
          5    1    3    3  502    0 -0.73392768668E+01  0.67379211529E+02 -0.18127052220E+03  0.19357246124E+03  0.41800000000E+01 0. -1.
         -5    1    3    3    0  502  0.58101535240E+02 -0.37569015316E+02 -0.14179553801E+03  0.15783113225E+03  0.41800000000E+01 0. -1.
        -11    1    1    2    0    0 -0.23146863882E+02 -0.23006449901E+02 -0.12190068216E+03  0.12619370173E+03  0.00000000000E+00 0.  1.
         11    1    1    2    0    0 -0.27615394492E+02 -0.68037463119E+01  0.10038829955E+02  0.30160886653E+02  0.00000000000E+00 0. -1.
</event>
<event>
 7    1  0.2855090E-009  0.8562335E+02  0.7561462E-02  0.1313810E+00
         -1   -1    0    0    0  501 -0.00000000000E+00  0.00000000000E+00  0.27491937245E+03  0.27491937245E+03  0.00000000000E+00 0. -1.
          1   -1    0    0  501    0  0.00000000000E+00 -0.00000000000E+00 -0.57305246442E+02  0.57305246442E+02  0.00000000000E+00 0.  1.
         25    2    1    2    0    0 -0.10922154104E+02 -0.39405116648E+02  0.20126490741E+03  0.24047425280E+03  0.12509295198E+03 0.  0.
          5    1    3    3  502    0 -0.36235981237E+02 -0.69259475022E+02  0.75739685864E+02  0.10892150215E+03  0.41800000000E+01 0.  1.
         -5    1    3    3    0  502  0.25313827134E+02  0.29854358373E+02  0.12552522155E+03  0.13155275065E+03  0.41800000000E+01 0.  1.
        -11    1    1    2    0    0 -0.11979015472E+02  0.68429404590E+01  0.42124108157E+02  0.44325648713E+02  0.00000000000E+00 0. -1.
         11    1    1    2    0    0  0.22901169576E+02  0.32562176189E+02 -0.25774889564E+02  0.47424717376E+02  0.00000000000E+00 0.  1.
</event>
<event>
 7    1  0.2855090E-009  0.1800691E+03  0.7561462E-02  0.1167736E+00
         -1   -1    0    0    0  501 -0.00000000000E+00  0.00000000000E+00  0.91570737943E+02  0.91570737943E+02  0.00000000000E+00 0.  1.
          1   -1    0    0  501    0  0.00000000000E+00 -0.00000000000E+00 -0.40552957441E+03  0.40552957441E+03  0.00000000000E+00 0. -1.
         25    2    1    2    0    0 -0.15131949051E+03 -0.15362583333E+02 -0.21440653031E+03  0.29112080593E+03  0.12509023235E+03 0.  0.
          5    1    3    3  502    0 -0.72128583665E+02  0.42574586277E+02 -0.15529966880E+03  0.17649529033E+03  0.41800000000E+01 0.  1.
         -5    1    3    3    0  502 -0.79190906840E+02 -0.57937169609E+02 -0.59106861509E+02  0.11462551560E+03  0.41800000000E+01 0.  1.
        -11    1    1    2    0    0  0.11699907468E+03  0.51850861109E+02 -0.56351715535E+02  0.13983136671E+03  0.00000000000E+00 0.  1.
         11    1    1    2    0    0  0.34320415826E+02 -0.36488277777E+02 -0.43200590627E+02  0.66148139717E+02  0.00000000000E+00 0. -1.
</event>
<event>
 7    1  0.2855090E-009  0.5885135E+02  0.7561462E-02  0.1402716E+00
         -1   -1    0    0    0  501 -0.00000000000E+00  0.00000000000E+00  0.32005478970E+02  0.32005478970E+02  0.00000000000E+00 0.  1.
          1   -1    0    0  501    0  0.00000000000E+00 -0.00000000000E+00 -0.53527462771E+03  0.53527462771E+03  0.00000000000E+00 0. -1.
         25    2    1    2    0    0  0.63518751039E+01  0.52695770591E+02 -0.37594516908E+03  0.39974914314E+03  0.12508963478E+03 0.  0.
          5    1    3    3  502    0 -0.65513357291E+01  0.24358434123E+02 -0.36586240275E+03  0.36675471839E+03  0.41800000000E+01 0.  1.
         -5    1    3    3    0  502  0.12903210833E+02  0.28337336468E+02 -0.10082766330E+02  0.32994424753E+02  0.41800000000E+01 0.  1.
        -11    1    1    2    0    0  0.11160228073E+02 -0.30293192667E+02  0.45711021244E+01  0.32605569881E+02  0.00000000000E+00 0.  1.
         11    1    1    2    0    0 -0.17512103177E+02 -0.22402577924E+02 -0.13189508179E+03  0.13492539366E+03  0.00000000000E+00 0. -1.
</event>
<event>
 7    1  0.2855090E-009  0.3215227E+03  0.7561462E-02  0.1074951E+00
         -2   -1    0    0    0  501 -0.00000000000E+00  0.00000000000E+00  0.10339834278E+03  0.10339834278E+03  0.00000000000E+00 0. -1.
          2   -1    0    0  501    0  0.00000000000E+00 -0.00000000000E+00 -0.11574434164E+04  0.11574434164E+04  0.00000000000E+00 0.  1.
         25    2    1    2    0    0  0.28184738243E+03  0.12707185255E+03 -0.74894602473E+03  0.81984254523E+03  0.12504578485E+03 0.  0.
          5    1    3    3  502    0  0.98602309831E+02  0.10848555027E+03 -0.38344213537E+03  0.41053242710E+03  0.41800000000E+01 0.  1.
         -5    1    3    3    0  502  0.18324507260E+03  0.18586302282E+02 -0.36550388936E+03  0.40931011813E+03  0.41800000000E+01 0.  1.
        -11    1    1    2    0    0 -0.19502737332E+03 -0.65563043975E+02 -0.15783309294E+03  0.25931732358E+03  0.00000000000E+00 0. -1.
         11    1    1    2    0    0 -0.86820009114E+02 -0.61508808574E+02 -0.14726595599E+03  0.18168189043E+03  0.00000000000E+00 0.  1.
</event>
<event>
 7    1  0.2855090E-009  0.1729327E+03  0.7561462E-02  0.1174824E+00
          2   -1    0    0  501    0  0.00000000000E+00  0.00000000000E+00  0.57783135076E+02  0.57783135076E+02  0.00000000000E+00 0. -1.
         -2   -1    0    0    0  501 -0.00000000000E+00 -0.00000000000E+00 -0.61782131356E+03  0.61782131356E+03  0.00000000000E+00 0.  1.
         25    2    1    2    0    0  0.26536665347E+02 -0.13905847915E+03 -0.40465595848E+03  0.44658252483E+03  0.12509217211E+03 0.  0.
          5    1    3    3  502    0 -0.37167240385E+02 -0.91570313503E+02 -0.14910091944E+03  0.17892759052E+03  0.41800000000E+01 0. -1.
         -5    1    3    3    0  502  0.63703905732E+02 -0.47488165649E+02 -0.25555503904E+03  0.26765493431E+03  0.41800000000E+01 0. -1.
        -11    1    1    2    0    0 -0.49504079207E+02  0.13535143888E+03 -0.14127086476E+03  0.20181209848E+03  0.00000000000E+00 0.  1.
         11    1    1    2    0    0  0.22967413859E+02  0.37070402712E+01 -0.14111355250E+02  0.27209825320E+02  0.00000000000E+00 0. -1.
</event>
<event>
 7    1  0.2855090E-009  0.1446618E+03  0.7561462E-02  0.1207190E+00
         -1   -1    0    0    0  501 -0.00000000000E+00  0.00000000000E+00  0.28705260891E+02  0.28705260891E+02  0.00000000000E+00 0.  1.
          1   -1    0    0  501    0  0.00000000000E+00 -0.00000000000E+00 -0.94373916352E+03  0.94373916352E+03  0.00000000000E+00 0. -1.
         25    2    1    2    0    0 -0.80173217307E+02 -0.90100077934E+02 -0.54101565885E+03  0.56823422616E+03  0.12508566600E+03 0.  0.
          5    1    3    3  502    0 -0.95323550524E+02 -0.32335848940E+02 -0.22395764503E+03  0.24557419567E+03  0.41800000000E+01 0. -1.
         -5    1    3    3    0  502  0.15150333217E+02 -0.57764228994E+02 -0.31705801382E+03  0.32266003049E+03  0.41800000000E+01 0. -1.
        -11    1    1    2    0    0  0.22273485143E+02  0.58839497215E+02 -0.74320496665E+02  0.97374179317E+02  0.00000000000E+00 0.  1.
         11    1    1    2    0    0  0.57899732164E+02  0.31260580719E+02 -0.29969774711E+03  0.30683601893E+03  0.00000000000E+00 0. -1.
</event>
<event>
 7    1  0.2855090E-009  0.1148990E+03  0.7561462E-02  0.1251757E+00
         -2   -1    0    0    0  501 -0.00000000000E+00  0.00000000000E+00  0.92084683305E+02  0.92084683305E+02  0.00000000000E+00 0.  1.
          2   -1    0    0  501    0  0.00000000000E+00 -0.00000000000E+00 -0.18451755678E+03  0.18451755678E+03  0.00000000000E+00 0. -1.
         25    2    1    2    0    0 -0.44870010878E+02 -0.23290616779E+02 -0.48751769636E+01  0.13500707572E+03  0.12508945774E+03 0.  0.
          5    1    3    3  502    0 -0.62497129119E+02 -0.58093571543E+02 -0.27461367697E+02  0.89734905798E+02  0.41800000000E+01 0.  1.
         -5    1    3    3    0  502  0.17627118242E+02  0.34802954765E+02  0.22586190733E+02  0.45272169925E+02  0.41800000000E+01 0.  1.
        -11    1    1    2    0    0  0.34102963134E+02 -0.33218173559E+02 -0.63202032782E+02  0.79126203605E+02  0.00000000000E+00 0.  1.
         11    1    1    2    0    0  0.10767047743E+02  0.56508790338E+02 -0.24355663733E+02  0.62468960760E+02  0.00000000000E+00 0. -1.
</event>
<event>
 7    1  0.3182676E-009  0.8603012E+02  0.7561462E-02  0.1312760E+00
          2   -1    0    0  501    0  0.00000000000E+00  0.00000000000E+00  0.54852119175E+03  0.54852119175E+03  0.00000000000E+00 0. -1.
         -2   -1    0    0    0  501 -0.00000000000E+00 -0.00000000000E+00 -0.30169831017E+02  0.30169831017E+02  0.00000000000E+00 0.  1.
         25    2    1    2    0    0  0.14679995890E+02  0.39944295790E+02  0.40852492040E+03  0.42936197058E+03  0.12509213464E+03 0.  0.
          5    1    3    3  502    0  0.35193953880E+02  0.70094608914E+02  0.16108339816E+03  0.17921272877E+03  0.41800000000E+01 0. -1.
         -5    1    3    3    0  502 -0.20513957990E+02 -0.30150313123E+02  0.24744152223E+03  0.25014924181E+03  0.41800000000E+01 0. -1.
        -11    1    1    2    0    0 -0.21990163455E+02 -0.70208143288E+01 -0.97716824216E+01  0.25066808731E+02  0.00000000000E+00 0.  1.
         11    1    1    2    0    0  0.73101675652E+01 -0.32923481461E+02  0.11959812276E+03  0.12426224346E+03  0.00000000000E+00 0. -1.
</event>
<event>
 7    1  0.2855090E-009  0.1141087E+03  0.7561462E-02  0.1253145E+00
         -2   -1    0    0    0  501 -0.00000000000E+00  0.00000000000E+00  0.12529954623E+02  0.12529954623E+02  0.00000000000E+00 0.  1.
          2   -1    0    0  501    0  0.00000000000E+00 -0.00000000000E+00 -0.13454947436E+04  0.13454947436E+04  0.00000000000E+00 0. -1.
         25    2    1    2    0    0 -0.36343998333E+02 -0.62962888132E+02 -0.72263991577E+03  0.73698126248E+03  0.12509085454E+03 0.  0.
          5    1    3    3  502    0 -0.56223992223E+01  0.23046509468E+02 -0.42343273619E+03  0.42411732745E+03  0.41800000000E+01 0.  1.
         -5    1    3    3    0  502 -0.30721599110E+02 -0.86009397600E+02 -0.29920717958E+03  0.31286393502E+03  0.41800000000E+01 0.  1.
        -11    1    1    2    0    0  0.31000040383E+02  0.84764533956E+02 -0.53048220467E+03  0.53810537833E+03  0.00000000000E+00 0. -1.
         11    1    1    2    0    0  0.53439579491E+01 -0.21801645824E+02 -0.79842668512E+02  0.82938057382E+02  0.00000000000E+00 0.  1.
</event>
<event>
 7    1  0.2855090E-009  0.1092141E+03  0.7561462E-02  0.1262032E+00
         -1   -1    0    0    0  501 -0.00000000000E+00  0.00000000000E+00  0.80993193901E+02  0.80993193901E+02  0.00000000000E+00 0. -1.
          1   -1    0    0  501    0  0.00000000000E+00 -0.00000000000E+00 -0.16732764005E+03  0.16732764005E+03  0.00000000000E+00 0.  1.
         25    2    1    2    0    0 -0.60082043832E+00  0.37180824064E+02 -0.68805836834E+02  0.14752809703E+03  0.12509005383E+03 0.  0.
          5    1    3    3  502    0 -0.10673235460E+01  0.83360969645E+02 -0.51218500735E+02  0.97933639048E+02  0.41800000000E+01 0.  1.
         -5    1    3    3    0  502  0.46650310766E+00 -0.46180145581E+02 -0.17587336099E+02  0.49594457978E+02  0.41800000000E+01 0.  1.
        -11    1    1    2    0    0  0.38950213758E+02 -0.65360202938E+01 -0.30635334326E+02  0.49983621540E+02  0.00000000000E+00 0.  1.
         11    1    1    2    0    0 -0.38349393319E+02 -0.30644803770E+02  0.13106725008E+02  0.50809115388E+02  0.00000000000E+00 0. -1.
</event>
<event>
 7    1  0.2990081E-009  0.1279444E+03  0.7561462E-02  0.1230538E+00
         -1   -1    0    0    0  501 -0.00000000000E+00  0.00000000000E+00  0.17994429517E+02  0.17994429517E+02  0.00000000000E+00 0.  1.
          1   -1    0    0  501    0  0.00000000000E+00 -0.00000000000E+00 -0.12084591817E+04  0.12084591817E+04  0.00000000000E+00 0. -1.
         25    2    1    2    0    0 -0.67125814932E+02  0.32079256220E+02 -0.92476693522E+03  0.93614934967E+03  0.12508703646E+03 0.  0.
          5    1    3    3  502    0  0.35621238266E+02  0.91303076739E+00 -0.30921501296E+03  0.31128941980E+03  0.41800000000E+01 0. -1.
         -5    1    3    3    0  502 -0.10274705320E+03  0.31166225453E+02 -0.61555192226E+03  0.62485992986E+03  0.41800000000E+01 0. -1.
        -11    1    1    2    0    0  0.34059194061E+02  0.27928031755E+02 -0.67511003525E+02  0.80608555716E+02  0.00000000000E+00 0.  1.
         11    1    1    2    0    0  0.33066620871E+02 -0.60007287975E+02 -0.19818681349E+03  0.20969570588E+03  0.00000000000E+00 0. -1.
</event>
<event>
 7    1  0.2855090E-009  0.9555381E+02  0.7561462E-02  0.1289934E+00
         -2   -1    0    0    0  501 -0.00000000000E+00  0.00000000000E+00  0.36362947113E+03  0.36362947113E+03  0.00000000000E+00 0.  1.
          2   -1    0    0  501    0  0.00000000000E+00 -0.00000000000E+00 -0.37986118354E+02  0.37986118354E+02  0.00000000000E+00 0. -1.
         25    2    1    2    0    0 -0.37122787168E+01 -0.25440110318E+02  0.11623164783E+03  0.17267994856E+03  0.12509032118E+03 0.  0.
          5    1    3    3  502    0  0.46512107316E+02  0.22826455225E+02  0.76168324402E+02  0.92214474067E+02  0.41800000000E+01 0. -1.
         -5    1    3    3    0  502 -0.50224386033E+02 -0.48266565543E+02  0.40063323424E+02  0.80465474494E+02  0.41800000000E+01 0. -1.
        -11    1    1    2    0    0 -0.30223252434E+02  0.83843405998E+01  0.17466557398E+03  0.17745930488E+03  0.00000000000E+00 0.  1.
         11    1    1    2    0    0  0.33935531150E+02  0.17055769718E+02  0.34746130970E+02  0.51476336044E+02  0.00000000000E+00 0. -1.
</event>
<event>
 7    1  0.2855090E-009  0.1029605E+03  0.7561462E-02  0.1274191E+00
          2   -1    0    0  501    0  0.00000000000E+00  0.00000000000E+00  0.97519791601E+03  0.97519791601E+03  0.00000000000E+00 0. -1.
         -2   -1    0    0    0  501 -0.00000000000E+00 -0.00000000000E+00 -0.18610623447E+02  0.18610623447E+02  0.00000000000E+00 0.  1.
         25    2    1    2    0    0  0.41078940165E+02  0.70893837448E+02  0.62048734728E+03  0.63825182982E+03  0.12508970629E+03 0.  0.
          5    1    3    3  502    0  0.35685322167E+02  0.85163352476E+01  0.50884808895E+03  0.51018606431E+03  0.41800000000E+01 0.  1.
         -5    1    3    3    0  502  0.53936179977E+01  0.62377502200E+02  0.11163925833E+03  0.12806576551E+03  0.41800000000E+01 0.  1.
        -11    1    1    2    0    0  0.16189088581E+02 -0.35255628368E+02  0.60868006430E+02  0.72180053529E+02  0.00000000000E+00 0.  1.
         11    1    1    2    0    0 -0.57268028746E+02 -0.35638209079E+02  0.27523193886E+03  0.28337665611E+03  0.00000000000E+00 0. -1.
</event>
<event>
 7    1  0.2855090E-009  0.1099938E+03  0.7561462E-02  0.1260581E+00
          3   -1    0    0  501    0  0.00000000000E+00  0.00000000000E+00  0.24807980233E+03  0.24807980233E+03  0.00000000000E+00 0. -1.
         -3   -1    0    0    0  501 -0.00000000000E+00 -0.00000000000E+00 -0.69159191905E+02  0.69159191905E+02  0.00000000000E+00 0.  1.
         25    2    1    2    0    0  0.55418707082E+02  0.19433525454E+02  0.15791755895E+03  0.20984387593E+03  0.12509037467E+03 0.  0.
          5    1    3    3  502    0  0.45123392914E+02  0.71493987101E+02  0.90018334989E+02  0.12356489717E+03  0.41800000000E+01 0. -1.
         -5    1    3    3    0  502  0.10295314168E+02 -0.52060461647E+02  0.67899223961E+02  0.86278978756E+02  0.41800000000E+01 0. -1.
        -11    1    1    2    0    0 -0.67590812218E+02 -0.16989049062E+02  0.43175569560E+02  0.81983385458E+02  0.00000000000E+00 0. -1.
         11    1    1    2    0    0  0.12172105136E+02 -0.24444763919E+01 -0.22172518082E+02  0.25411732849E+02  0.00000000000E+00 0.  1.
</event>
<event>
 7    1  0.4534778E-009  0.1301086E+03  0.7561462E-02  0.1227295E+00
          1   -1    0    0  501    0  0.00000000000E+00  0.00000000000E+00  0.98625937898E+03  0.98625937898E+03  0.00000000000E+00 0. -1.
         -1   -1    0    0    0  501 -0.00000000000E+00 -0.00000000000E+00 -0.22416228073E+02  0.22416228073E+02  0.00000000000E+00 0.  1.
         25    2    1    2    0    0  0.49276829556E+02 -0.85546571301E+02  0.60152247914E+03  0.62227323509E+03  0.12509302299E+03 0.  0.
          5    1    3    3  502    0 -0.58642688218E+01 -0.71973816051E+02  0.50541134600E+03  0.51056118234E+03  0.41800000000E+01 0.  1.
         -5    1    3    3    0  502  0.55141098378E+02 -0.13572755250E+02  0.96111133142E+02  0.11171205275E+03  0.41800000000E+01 0.  1.
        -11    1    1    2    0    0 -0.40853991847E+02 -0.39563259320E+01  0.15674177169E+03  0.16202680074E+03  0.00000000000E+00 0. -1.
         11    1    1    2    0    0 -0.84228377089E+01  0.89502897233E+02  0.20557890007E+03  0.22437557123E+03  0.00000000000E+00 0.  1.
</event>
<event>
 7    1  0.2855090E-009  0.1080658E+03  0.7561462E-02  0.1264194E+00
          2   -1    0    0  501    0  0.00000000000E+00  0.00000000000E+00  0.21301669851E+03  0.21301669851E+03  0.00000000000E+00 0. -1.
         -2   -1    0    0    0  501 -0.00000000000E+00 -0.00000000000E+00 -0.56344329753E+02  0.56344329753E+02  0.00000000000E+00 0.  1.
         25    2    1    2    0    0  0.49149792202E+01  0.10042938965E+02  0.88388436901E+02  0.15357470890E+03  0.12509059834E+03 0.  0.
          5    1    3    3  502    0  0.12590234210E+02  0.66126160765E+02  0.36579091459E+02  0.76724738298E+02  0.41800000000E+01 0. -1.
         -5    1    3    3    0  502 -0.76752549898E+01 -0.56083221800E+02  0.51809345442E+02  0.76849970604E+02  0.41800000000E+01 0. -1.
        -11    1    1    2    0    0  0.28948739807E+02  0.28498732243E+02  0.40836741591E+02  0.57600752944E+02  0.00000000000E+00 0. -1.
         11    1    1    2    0    0 -0.33863719027E+02 -0.38541671207E+02  0.27447190264E+02  0.58185566416E+02  0.00000000000E+00 0.  1.
</event>
<event>
 7    1  0.2855090E-009  0.1067832E+03  0.7561462E-02  0.1266646E+00
         -2   -1    0    0    0  501 -0.00000000000E+00  0.00000000000E+00  0.99450545169E+02  0.99450545169E+02  0.00000000000E+00 0.  1.
          2   -1    0    0  501    0  0.00000000000E+00 -0.00000000000E+00 -0.30564700104E+03  0.30564700104E+03  0.00000000000E+00 0. -1.
         25    2    1    2    0    0  0.92166227040E+02  0.22861541235E+02  0.34810978767E+01  0.15708968335E+03  0.12509111518E+03 0.  0.
          5    1    3    3  502    0  0.34209189229E+01 -0.14302825117E+01  0.52470272748E+02  0.52766943407E+02  0.41800000000E+01 0.  1.
         -5    1    3    3    0  502  0.88745308117E+02  0.24291823746E+02 -0.48989174871E+02  0.10432273994E+03  0.41800000000E+01 0.  1.
        -11    1    1    2    0    0 -0.81285567306E+02  0.93997650825E+01 -0.81901975901E+02  0.11577405881E+03  0.00000000000E+00 0.  1.
         11    1    1    2    0    0 -0.10880659734E+02 -0.32261306317E+02 -0.12777557785E+03  0.13223380406E+03  0.00000000000E+00 0. -1.
</event>
<event>
 7    1  0.2855090E-009  0.3012549E+03  0.7561462E-02  0.1084615E+00
         -1   -1    0    0    0  501 -0.00000000000E+00  0.00000000000E+00  0.95741687865E+03  0.95741687865E+03  0.00000000000E+00 0.  1.
          1   -1    0    0  501    0  0.00000000000E+00 -0.00000000000E+00 -0.97182709778E+02  0.97182709778E+02  0.00000000000E+00 0. -1.
         25    2    1    2    0    0  0.25836379829E+02  0.28323150528E+03  0.44137296658E+03  0.53976362128E+03  0.12508823735E+03 0.  0.
          5    1    3    3  502    0  0.61443219029E+02  0.26062051835E+03  0.36982543720E+03  0.45660338385E+03  0.41800000000E+01 0.  1.
         -5    1    3    3    0  502 -0.35606839200E+02  0.22610986932E+02  0.71547529386E+02  0.83160237428E+02  0.41800000000E+01 0.  1.
        -11    1    1    2    0    0 -0.40862055012E+02 -0.26738074855E+03  0.41017671128E+03  0.49133197200E+03  0.00000000000E+00 0.  1.
         11    1    1    2    0    0  0.15025675183E+02 -0.15850756732E+02  0.86844910110E+01  0.23503995146E+02  0.00000000000E+00 0. -1.
</event>
<event>
 7    1  0.2855090E-009  0.4159432E+03  0.7561462E-02  0.1038395E+00
         -2   -1    0    0    0  501 -0.00000000000E+00  0.00000000000E+00  0.13213642623E+03  0.13213642623E+03  0.00000000000E+00 0.  1.
          2   -1    0    0  501    0  0.00000000000E+00 -0.00000000000E+00 -0.19325581591E+04  0.19325581591E+04  0.00000000000E+00 0. -1.
         25    2    1    2    0    0  0.40323193423E+03 -0.97880011406E+02 -0.14521503861E+04  0.15154421173E+04  0.12509027734E+03 0.  0.
          5    1    3    3  502    0  0.14271822911E+03 -0.31317739329E+02 -0.32019406479E+03  0.35198154106E+03  0.41800000000E+01 0. -1.
         -5    1    3    3    0  502  0.26051370513E+03 -0.66562272077E+02 -0.11319563213E+04  0.11634605762E+04  0.41800000000E+01 0. -1.
        -11    1    1    2    0    0 -0.27331024581E+03  0.47277848405E+02 -0.27956514786E+03  0.39381513088E+03  0.00000000000E+00 0. -1.
         11    1    1    2    0    0 -0.12992168842E+03  0.50602163001E+02 -0.68706198913E+02  0.15543733719E+03  0.00000000000E+00 0.  1.
</event>
<event>
 7    1  0.2855090E-009  0.1058740E+03  0.7561462E-02  0.1268407E+00
          3   -1    0    0  501    0  0.00000000000E+00  0.00000000000E+00  0.90544699022E+02  0.90544699022E+02  0.00000000000E+00 0. -1.
         -3   -1    0    0    0  501 -0.00000000000E+00 -0.00000000000E+00 -0.28263728905E+03  0.28263728905E+03  0.00000000000E+00 0.  1.
         25    2    1    2    0    0 -0.12203616711E+01 -0.10140418698E+03 -0.18466690662E+03  0.24501604514E+03  0.12508676012E+03 0.  0.
          5    1    3    3  502    0 -0.18384607502E+02 -0.29025793805E+02  0.10453367952E+02  0.36155716015E+02  0.41800000000E+01 0. -1.
         -5    1    3    3    0  502  0.17164245831E+02 -0.72378393172E+02 -0.19512027458E+03  0.20886032913E+03  0.41800000000E+01 0. -1.
        -11    1    1    2    0    0 -0.66965839123E+01  0.27382017640E+02  0.33042677753E+02  0.43433140334E+02  0.00000000000E+00 0. -1.
         11    1    1    2    0    0  0.79169455834E+01  0.74022169338E+02 -0.40468361160E+02  0.84732802596E+02  0.00000000000E+00 0.  1.
</event>
<event>
 7    1  0.2855090E-009  0.2689731E+03  0.7561462E-02  0.1101869E+00
          1   -1    0    0  501    0  0.00000000000E+00  0.00000000000E+00  0.34767605347E+03  0.34767605347E+03  0.00000000000E+00 0. -1.
         -1   -1    0    0    0  501 -0.00000000000E+00 -0.00000000000E+00 -0.22666609368E+03  0.22666609368E+03  0.00000000000E+00 0.  1.
         25    2    1    2    0    0  0.18001068074E+03 -0.17574521126E+03  0.26714970052E+01  0.28097057517E+03  0.12508837978E+03 0.  0.
          5    1    3    3  502    0  0.13203899751E+03 -0.18915287957E+03 -0.23886492461E+01  0.23072990001E+03  0.41800000000E+01 0. -1.
         -5    1    3    3    0  502  0.47971683226E+02  0.13407668306E+02  0.50601462513E+01  0.50240675165E+02  0.41800000000E+01 0. -1.
        -11    1    1    2    0    0 -0.10628765865E+03  0.13868373179E+03  0.11802637855E+03  0.21085651491E+03  0.00000000000E+00 0.  1.
         11    1    1    2    0    0 -0.73723022088E+02  0.37061479470E+02  0.31208423127E+00  0.82515057068E+02  0.00000000000E+00 0. -1.
</event>
<event>
 7    1  0.3158891E-009  0.8765253E+02  0.7561462E-02  0.1308638E+00
          2   -1    0    0  501    0  0.00000000000E+00  0.00000000000E+00  0.26567030029E+03  0.26567030029E+03  0.00000000000E+00 0. -1.
         -2   -1    0    0    0  501 -0.00000000000E+00 -0.00000000000E+00 -0.49760349013E+02  0.49760349013E+02  0.00000000000E+00 0.  1.
         25    2    1    2    0    0  0.25031995682E+02  0.84462117610E+01  0.84038796612E+02  0.15299534394E+03  0.12508843524E+03 0.  0.
          5    1    3    3  502    0  0.59714482437E+02 -0.36487146258E+02  0.54973044703E+02  0.89087817903E+02  0.41800000000E+01 0. -1.
         -5    1    3    3    0  502 -0.34682486755E+02  0.44933358019E+02  0.29065751909E+02  0.63907526039E+02  0.41800000000E+01 0. -1.
        -11    1    1    2    0    0 -0.69330052623E+01 -0.23651742968E+02 -0.36077784273E+01  0.24909587964E+02  0.00000000000E+00 0.  1.
         11    1    1    2    0    0 -0.18098990420E+02  0.15205531207E+02  0.13547893309E+03  0.13752571740E+03  0.00000000000E+00 0. -1.
</event>
<event>
 7    1  0.2855090E-009  0.1402588E+03  0.7561462E-02  0.1212981E+00
         -2   -1    0    0    0  501 -0.00000000000E+00  0.00000000000E+00  0.20005571062E+03  0.20005571062E+03  0.00000000000E+00 0. -1.
          2   -1    0    0  501    0  0.00000000000E+00 -0.00000000000E+00 -0.13184959444E+03  0.13184959444E+03  0.00000000000E+00 0.  1.
         25    2    1    2    0    0  0.10399530788E+03 -0.49577896140E+02 -0.10259982062E+02  0.17037235433E+03  0.12509388490E+03 0.  0.
          5    1    3    3  502    0  0.11888867882E+03 -0.68259932362E+02 -0.28425165737E+02  0.14006926417E+03  0.41800000000E+01 0. -1.
         -5    1    3    3    0  502 -0.14893370937E+02  0.18682036222E+02  0.18165183675E+02  0.30303090160E+02  0.41800000000E+01 0. -1.
        -11    1    1    2    0    0 -0.22732923609E+02  0.25909906188E+02  0.68015840627E+02  0.76251318878E+02  0.00000000000E+00 0. -1.
         11    1    1    2    0    0 -0.81262384273E+02  0.23667989952E+02  0.10450257615E+02  0.85281631846E+02  0.00000000000E+00 0.  1.
</event>
<event>
 7    1  0.2855090E-009  0.1294386E+03  0.7561462E-02  0.1228291E+00
         -1   -1    0    0    0  501 -0.00000000000E+00  0.00000000000E+00  0.16589230627E+03  0.16589230627E+03  0.00000000000E+00 0.  1.
          1   -1    0    0  501    0  0.00000000000E+00 -0.00000000000E+00 -0.12342891422E+03  0.12342891422E+03  0.00000000000E+00 0. -1.
         25    2    1    2    0    0  0.61419747842E+02 -0.69757712374E+02  0.15534963793E+02  0.15661082037E+03  0.12508832918E+03 0.  0.
          5    1    3    3  502    0  0.85585210207E+02 -0.82010372462E+02  0.34205279460E+02  0.12344230612E+03  0.41800000000E+01 0.  1.
         -5    1    3    3    0  502 -0.24165462365E+02  0.12252660088E+02 -0.18670315666E+02  0.33168514251E+02  0.41800000000E+01 0.  1.
        -11    1    1    2    0    0 -0.53974927726E+02  0.82210281375E+02  0.46143988572E+02  0.10863282592E+03  0.00000000000E+00 0.  1.
         11    1    1    2    0    0 -0.74448201163E+01 -0.12452569001E+02 -0.19215560314E+02  0.24077574203E+02  0.00000000000E+00 0. -1.
</event>
<event>
 7    1  0.2855090E-009  0.2539553E+03  0.7561462E-02  0.1110830E+00
          2   -1    0    0  501    0  0.00000000000E+00  0.00000000000E+00  0.83399650538E+03  0.83399650538E+03  0.00000000000E+00 0.  1.
         -2   -1    0    0    0  501 -0.00000000000E+00 -0.00000000000E+00 -0.80286788006E+02  0.80286788006E+02  0.00000000000E+00 0. -1.
         25    2    1    2    0    0  0.18797700904E+03  0.13500782032E+03  0.32178618925E+03  0.41563987824E+03  0.12509072432E+03 0.  0.
          5    1    3    3  502    0  0.31827013920E+02  0.97180389807E+02  0.12321577055E+03  0.16017673205E+03  0.41800000000E+01 0.  1.
         -5    1    3    3    0  502  0.15614999512E+03  0.37827430512E+02  0.19857041870E+03  0.25546314618E+03  0.41800000000E+01 0.  1.
        -11    1    1    2    0    0 -0.79166741862E+02 -0.10587857857E+03  0.18649475547E+03  0.22859995677E+03  0.00000000000E+00 0. -1.
         11    1    1    2    0    0 -0.10881026718E+03 -0.29129241753E+02  0.24542877265E+03  0.27004345838E+03  0.00000000000E+00 0.  1.
</event>
<event>
 7    1  0.2855090E-009  0.1227215E+03  0.7561462E-02  0.1238674E+00
          4   -1    0    0  501    0  0.00000000000E+00  0.00000000000E+00  0.73073188602E+02  0.73073188602E+02  0.00000000000E+00 0. -1.
         -4   -1    0    0    0  501 -0.00000000000E+00 -0.00000000000E+00 -0.56980401248E+03  0.56980401248E+03  0.00000000000E+00 0.  1.
         25    2    1    2    0    0 -0.85427315327E+02  0.76600828482E+02 -0.57937017020E+02  0.17935925083E+03  0.12509008669E+03 0.  0.
          5    1    3    3  502    0 -0.38591636912E+02  0.59174842591E+02 -0.93948675157E+02  0.11762143682E+03  0.41800000000E+01 0.  1.
         -5    1    3    3    0  502 -0.46835678415E+02  0.17425985891E+02  0.36011658137E+02  0.61737814009E+02  0.41800000000E+01 0.  1.
        -11    1    1    2    0    0  0.53652690164E+02 -0.75640214551E+02 -0.41087154014E+03  0.42120716485E+03  0.00000000000E+00 0.  1.
         11    1    1    2    0    0  0.31774625163E+02 -0.96061393095E+00 -0.27922266712E+02  0.42310785406E+02  0.00000000000E+00 0. -1.
</event>
<event>
 7    1  0.2855090E-009  0.1330606E+03  0.7561462E-02  0.1222984E+00
         -1   -1    0    0    0  501 -0.00000000000E+00  0.00000000000E+00  0.26313050673E+02  0.26313050673E+02  0.00000000000E+00 0.  1.
          1   -1    0    0  501    0  0.00000000000E+00 -0.00000000000E+00 -0.10322081025E+04  0.10322081025E+04  0.00000000000E+00 0. -1.
         25    2    1    2    0    0 -0.11402323070E+03 -0.24419581334E+02 -0.40320850041E+03  0.43797413637E+03  0.12508651499E+03 0.  0.
          5    1    3    3  502    0 -0.40487069431E+02  0.54414905640E+00 -0.17168513481E+02  0.44178378699E+02  0.41800000000E+01 0. -1.
         -5    1    3    3    0  502 -0.73536161270E+02 -0.24963730391E+02 -0.38603998693E+03  0.39379575767E+03  0.41800000000E+01 0. -1.
        -11    1    1    2    0    0  0.19681135171E+02  0.46725849033E+02 -0.19328713356E+03  0.19982634473E+03  0.00000000000E+00 0.  1.
         11    1    1    2    0    0  0.94342095531E+02 -0.22306267699E+02 -0.40939941787E+03  0.42072067208E+03  0.00000000000E+00 0. -1.
</event>
<event>
 7    1  0.2855090E-009  0.1161137E+03  0.7561462E-02  0.1249650E+00
          2   -1    0    0  501    0  0.00000000000E+00  0.00000000000E+00  0.46522081146E+03  0.46522081146E+03  0.00000000000E+00 0. -1.
         -2   -1    0    0    0  501 -0.00000000000E+00 -0.00000000000E+00 -0.45099414267E+02  0.45099414267E+02  0.00000000000E+00 0.  1.
         25    2    1    2    0    0  0.55178999961E+02  0.51180962270E+02  0.12466115805E+03  0.19197204402E+03  0.12509455793E+03 0.  0.
          5    1    3    3  502    0  0.28080444794E+02 -0.34511728022E+02  0.92524160163E+01  0.45636064172E+02  0.41800000000E+01 0. -1.
         -5    1    3    3    0  502  0.27098555167E+02  0.85692690292E+02  0.11540874203E+03  0.14633597985E+03  0.41800000000E+01 0. -1.
        -11    1    1    2    0    0 -0.66284864480E+01  0.14468685455E+02  0.50790629016E+01  0.16705585034E+02  0.00000000000E+00 0. -1.
         11    1    1    2    0    0 -0.48550513513E+02 -0.65649647725E+02  0.29038117625E+03  0.30164259667E+03  0.00000000000E+00 0.  1.
</event>
<event>
 7    1  0.2855090E-009  0.1614542E+03  0.7561462E-02  0.1187065E+00
         -2   -1    0    0    0  501 -0.00000000000E+00  0.00000000000E+00  0.54206646766E+03  0.54206646766E+03  0.00000000000E+00 0.  1.
          2   -1    0    0  501    0  0.00000000000E+00 -0.00000000000E+00 -0.59742335814E+02  0.59742335814E+02  0.00000000000E+00 0. -1.
         25    2    1    2    0    0 -0.10356373435E+03  0.89323612356E+02  0.18257410295E+03  0.26016357669E+03  0.12509048233E+03 0.  0.
          5    1    3    3  502    0 -0.63297308594E+02 -0.13236364475E+02  0.11155473795E+03  0.12901039718E+03  0.41800000000E+01 0.  1.
         -5    1    3    3    0  502 -0.40266425755E+02  0.10255997683E+03  0.71019364997E+02  0.13115317951E+03  0.41800000000E+01 0.  1.
        -11    1    1    2    0    0  0.40947136070E+02 -0.28009251473E+01  0.16323111116E+03  0.16831193893E+03  0.00000000000E+00 0.  1.
         11    1    1    2    0    0  0.62616598278E+02 -0.86522687209E+02  0.13651891773E+03  0.17333328786E+03  0.00000000000E+00 0. -1.
</event>
<event>
 7    1  0.2855090E-009  0.2038285E+03  0.7561462E-02  0.1146549E+00
         -1   -1    0    0    0  501 -0.00000000000E+00  0.00000000000E+00  0.61136598048E+03  0.61136598048E+03  0.00000000000E+00 0.  1.
          1   -1    0    0  501    0  0.00000000000E+00 -0.00000000000E+00 -0.75483673252E+02  0.75483673252E+02  0.00000000000E+00 0. -1.
         25    2    1    2    0    0  0.68316452370E+01  0.18408095068E+03  0.30821937234E+03  0.38023610894E+03  0.12509136373E+03 0.  0.
          5    1    3    3  502    0 -0.37282198634E+02  0.10712240923E+03  0.24857322742E+03  0.27326048870E+03  0.41800000000E+01 0.  1.
         -5    1    3    3    0  502  0.44113843871E+02  0.76958541447E+02  0.59646144915E+02  0.10697562024E+03  0.41800000000E+01 0.  1.
        -11    1    1    2    0    0 -0.46173967209E+02 -0.13357546279E+03  0.15909346779E+03  0.21280312733E+03  0.00000000000E+00 0.  1.
         11    1    1    2    0    0  0.39342321972E+02 -0.50505487885E+02  0.68569467096E+02  0.93810417452E+02  0.00000000000E+00 0. -1.
</event>
<event>
 7    1  0.2855090E-009  0.1796658E+03  0.7561462E-02  0.1168127E+00
         -1   -1    0    0    0  501 -0.00000000000E+00  0.00000000000E+00  0.10290741964E+03  0.10290741964E+03  0.00000000000E+00 0.  1.
          1   -1    0    0  501    0  0.00000000000E+00 -0.00000000000E+00 -0.33802435825E+03  0.33802435825E+03  0.00000000000E+00 0. -1.
         25    2    1    2    0    0  0.71319940022E+02  0.12442593142E+03 -0.18085284715E+03  0.26253085380E+03  0.12508537331E+03 0.  0.
          5    1    3    3  502    0  0.43678415574E+01  0.12305643449E+03 -0.11686310398E+03  0.16981290170E+03  0.41800000000E+01 0. -1.
         -5    1    3    3    0  502  0.66952098464E+02  0.13694969288E+01 -0.63989743174E+02  0.92717952103E+02  0.41800000000E+01 0. -1.
        -11    1    1    2    0    0  0.20654933466E+02 -0.35643069446E+02 -0.21338640484E+02  0.46393881641E+02  0.00000000000E+00 0.  1.
         11    1    1    2    0    0 -0.91974873487E+02 -0.88782861978E+02 -0.32925450969E+02  0.13200704245E+03  0.00000000000E+00 0. -1.
</event>
<event>
 7    1  0.2855090E-009  0.7638591E+02  0.7561462E-02  0.1339632E+00
          2   -1    0    0  501    0  0.00000000000E+00  0.00000000000E+00  0.18569865333E+03  0.18569865333E+03  0.00000000000E+00 0. -1.
         -2   -1    0    0    0  501 -0.00000000000E+00 -0.00000000000E+00 -0.63987705684E+02  0.63987705684E+02  0.00000000000E+00 0.  1.
         25    2    1    2    0    0 -0.12476875142E+01 -0.17862004252E+02  0.70906588962E+02  0.14490637142E+03  0.12509797840E+03 0.  0.
          5    1    3    3  502    0 -0.42521393308E+02 -0.39639007052E+02 -0.19157915022E+01  0.58313484084E+02  0.41800000000E+01 0. -1.
         -5    1    3    3    0  502  0.41273705794E+02  0.21777002800E+02  0.72822380464E+02  0.86592887337E+02  0.41800000000E+01 0. -1.
        -11    1    1    2    0    0 -0.17092781096E+02  0.22938367879E+02 -0.17728154933E+02  0.33654410764E+02  0.00000000000E+00 0.  1.
         11    1    1    2    0    0  0.18340468610E+02 -0.50763636273E+01  0.68532513614E+02  0.71125576826E+02  0.00000000000E+00 0. -1.
</event>
<event>
 7    1  0.2855090E-009  0.1858333E+03  0.7561462E-02  0.1162274E+00
          1   -1    0    0  501    0  0.00000000000E+00  0.00000000000E+00  0.82085095976E+03  0.82085095976E+03  0.00000000000E+00 0. -1.
         -1   -1    0    0    0  501 -0.00000000000E+00 -0.00000000000E+00 -0.54552645217E+02  0.54552645217E+02  0.00000000000E+00 0.  1.
         25    2    1    2    0    0 -0.50809654190E+02  0.17237988700E+03  0.33494496631E+03  0.40016628564E+03  0.12509388196E+03 0.  0.
          5    1    3    3  502    0 -0.23931783756E+02  0.60311457521E+02  0.25345082999E+02  0.69785727870E+02  0.41800000000E+01 0. -1.
         -5    1    3    3    0  502 -0.26877870434E+02  0.11206842948E+03  0.30959988331E+03  0.33038055777E+03  0.41800000000E+01 0. -1.
        -11    1    1    2    0    0 -0.12496634488E+02 -0.71870897309E+01  0.81824358537E+01  0.16576259796E+02  0.00000000000E+00 0.  1.
         11    1    1    2    0    0  0.63306288678E+02 -0.16519279727E+03  0.42317091238E+03  0.45866105955E+03  0.00000000000E+00 0. -1.
</event>
<event>
 7    1  0.2855090E-009  0.1496222E+03  0.7561462E-02  0.1200938E+00
          2   -1    0    0  501    0  0.00000000000E+00  0.00000000000E+00  0.49132316158E+03  0.49132316158E+03  0.00000000000E+00 0.  1.
         -2   -1    0    0    0  501 -0.00000000000E+00 -0.00000000000E+00 -0.54595521174E+02  0.54595521174E+02  0.00000000000E+00 0. -1.
         25    2    1    2    0    0 -0.50967818869E+02  0.10636616589E+03  0.17860869448E+03  0.24791161605E+03  0.12509046257E+03 0.  0.
          5    1    3    3  502    0 -0.92185528718E+02  0.84107599276E+02  0.12737335623E+03  0.17836396564E+03  0.41800000000E+01 0.  1.
         -5    1    3    3    0  502  0.41217709849E+02  0.22258566610E+02  0.51235338246E+02  0.69547650413E+02  0.41800000000E+01 0.  1.
        -11    1    1    2    0    0  0.89679497776E+00 -0.57114492833E+02  0.42387401024E+02  0.71130593266E+02  0.00000000000E+00 0. -1.
         11    1    1    2    0    0  0.50071023891E+02 -0.49251673053E+02  0.21573154490E+03  0.22687647343E+03  0.00000000000E+00 0.  1.
</event>
<event>
 7    1  0.2855090E-009  0.1064796E+03  0.7561462E-02  0.1267232E+00
          4   -1    0    0  501    0  0.00000000000E+00  0.00000000000E+00  0.18667415836E+03  0.18667415836E+03  0.00000000000E+00 0.  1.
         -4   -1    0    0    0  501 -0.00000000000E+00 -0.00000000000E+00 -0.76170683086E+02  0.76170683086E+02  0.00000000000E+00 0. -1.
         25    2    1    2    0    0 -0.48365002691E+02  0.21535193852E+02  0.89645829439E+02  0.16274933460E+03  0.12509209854E+03 0.  0.
          5    1    3    3  502    0 -0.83041922871E+02 -0.81125587437E+01  0.80532083161E+02  0.11603733615E+03  0.41800000000E+01 0. -1.
         -5    1    3    3    0  502  0.34676920181E+02  0.29647752596E+02  0.91137462784E+01  0.46711998442E+02  0.41800000000E+01 0. -1.
        -11    1    1    2    0    0  0.62794885022E+02 -0.26756228975E+02  0.37151524703E+02  0.77713120911E+02  0.00000000000E+00 0.  1.
         11    1    1    2    0    0 -0.14429882331E+02  0.52210351233E+01 -0.16293878868E+02  0.22382385941E+02  0.00000000000E+00 0. -1.
</event>
<event>
 7    1  0.2855090E-009  0.9295486E+02  0.7561462E-02  0.1295850E+00
         -2   -1    0    0    0  501 -0.00000000000E+00  0.00000000000E+00  0.24911330622E+02  0.24911330622E+02  0.00000000000E+00 0. -1.
          2   -1    0    0  501    0  0.00000000000E+00 -0.00000000000E+00 -0.73581402209E+03  0.73581402209E+03  0.00000000000E+00 0.  1.
         25    2    1    2    0    0 -0.79578827107E+02 -0.18178294237E+02 -0.39138669436E+03  0.41892021152E+03  0.12508940400E+03 0.  0.
          5    1    3    3  502    0 -0.61298710783E+02 -0.32550111337E+02 -0.77394755396E+02  0.10404067596E+03  0.41800000000E+01 0. -1.
         -5    1    3    3    0  502 -0.18280116323E+02  0.14371817101E+02 -0.31399193896E+03  0.31487953556E+03  0.41800000000E+01 0. -1.
        -11    1    1    2    0    0  0.24350882228E+02 -0.14734520517E+02 -0.18375351317E+02  0.33878091684E+02  0.00000000000E+00 0. -1.
         11    1    1    2    0    0  0.55227944879E+02  0.32912814754E+02 -0.30114064579E+03  0.30792704950E+03  0.00000000000E+00 0.  1.
</event>
<event>
 7    1  0.2855090E-009  0.1112231E+03  0.7561462E-02  0.1258322E+00
         -2   -1    0    0    0  501 -0.00000000000E+00  0.00000000000E+00  0.55077112509E+02  0.55077112509E+02  0.00000000000E+00 0.  1.
          2   -1    0    0  501    0  0.00000000000E+00 -0.00000000000E+00 -0.22900314360E+03  0.22900314360E+03  0.00000000000E+00 0. -1.
         25    2    1    2    0    0  0.11500938292E+02 -0.26345298623E+02 -0.95905674787E+02  0.16022617208E+03  0.12509269132E+03 0.  0.
          5    1    3    3  502    0 -0.25451746183E+02  0.41938960093E+02 -0.26056726357E+02  0.55705413973E+02  0.41800000000E+01 0. -1.
         -5    1    3    3    0  502  0.36952684476E+02 -0.68284258716E+02 -0.69848948430E+02  0.10452075811E+03  0.41800000000E+01 0. -1.
        -11    1    1    2    0    0 -0.36981988058E+02  0.48980326808E+02 -0.42670234845E+02  0.74749506999E+02  0.00000000000E+00 0. -1.
         11    1    1    2    0    0  0.25481049766E+02 -0.22635028185E+02 -0.35350121460E+02  0.49104577030E+02  0.00000000000E+00 0.  1.
</event>
<event>
 7    1  0.2855090E-009  0.1340438E+03  0.7561462E-02  0.1221576E+00
         -1   -1    0    0    0  501 -0.00000000000E+00  0.00000000000E+00  0.18475417253E+02  0.18475417253E+02  0.00000000000E+00 0.  1.
          1   -1    0    0  501    0  0.00000000000E+00 -0.00000000000E+00 -0.97910780414E+03  0.97910780414E+03  0.00000000000E+00 0. -1.
         25    2    1    2    0    0 -0.68152931112E+02 -0.42656511209E+02 -0.50014885086E+03  0.52178563194E+03  0.12508785996E+03 0.  0.
          5    1    3    3  502    0  0.32823754881E+02 -0.33309732569E+02 -0.14434112367E+03  0.15178527448E+03  0.41800000000E+01 0. -1.
         -5    1    3    3    0  502 -0.10097668599E+03 -0.93467786405E+01 -0.35580772719E+03  0.37000035745E+03  0.41800000000E+01 0. -1.
        -11    1    1    2    0    0 -0.17461679396E+02  0.27679757991E+02 -0.11745056006E+03  0.12192503151E+03  0.00000000000E+00 0.  1.
         11    1    1    2    0    0  0.85614610508E+02  0.14976753218E+02 -0.34303297596E+03  0.35387255795E+03  0.00000000000E+00 0. -1.
</event>
<event>
 7    1  0.2855090E-009  0.9297484E+02  0.7561462E-02  0.1295804E+00
          1   -1    0    0  501    0  0.00000000000E+00  0.00000000000E+00  0.25952771445E+02  0.25952771445E+02  0.00000000000E+00 0. -1.
         -1   -1    0    0    0  501 -0.00000000000E+00 -0.00000000000E+00 -0.61152064755E+03  0.61152064755E+03  0.00000000000E+00 0.  1.
         25    2    1    2    0    0 -0.17484813901E+02  0.84304036757E+01 -0.47173242840E+03  0.48842094314E+03  0.12508694287E+03 0.  0.
          5    1    3    3  502    0  0.65290329188E+01  0.53824998223E+02 -0.37405113697E+03  0.37798344432E+03  0.41800000000E+01 0.  1.
         -5    1    3    3    0  502 -0.24013846820E+02 -0.45394594548E+02 -0.97681291424E+02  0.11043749883E+03  0.41800000000E+01 0.  1.
        -11    1    1    2    0    0  0.22847080218E+02  0.31967264164E+02 -0.97551582880E+02  0.10516751578E+03  0.00000000000E+00 0.  1.
         11    1    1    2    0    0 -0.53622663170E+01 -0.40397667839E+02 -0.16283864826E+02  0.43884960072E+02  0.00000000000E+00 0. -1.
</event>
<event>
 6    1  0.2855090E-009  0.3850907E+02  0.7561462E-02  0.1519479E+00
          2   -1    0    0  501    0  0.00000000000E+00  0.00000000000E+00  0.14653127126E+03  0.14653127126E+03  0.00000000000E+00 0. -1.
         -2   -1    0    0    0  501 -0.00000000000E+00 -0.00000000000E+00 -0.96789443148E+02  0.96789443148E+02  0.00000000000E+00 0.  1.
          5    1    1    2  502    0 -0.74399051262E+01 -0.39022700849E+01 -0.72414340540E+02  0.73019785099E+02  0.41800000000E+01 0. -1.
         -5    1    1    2    0  502  0.16540273672E+02 -0.43241988039E+01  0.51974622672E+02  0.54873610691E+02  0.41800000000E+01 0. -1.
        -11    1    1    2    0    0  0.19899178932E+02  0.66933370586E+01  0.81574135848E+02  0.84232521762E+02  0.00000000000E+00 0. -1.
         11    1    1    2    0    0 -0.28999547477E+02  0.15331318303E+01 -0.11392589866E+02  0.31194796857E+02  0.00000000000E+00 0.  1.
</event>
<event>
 7    1  0.2855090E-009  0.1007883E+03  0.7561462E-02  0.1278647E+00
          2   -1    0    0  501    0  0.00000000000E+00  0.00000000000E+00  0.48021719196E+03  0.48021719196E+03  0.00000000000E+00 0. -1.
         -2   -1    0    0    0  501 -0.00000000000E+00 -0.00000000000E+00 -0.31565934788E+02  0.31565934788E+02  0.00000000000E+00 0.  1.
         25    2    1    2    0    0  0.12683878942E+02 -0.58612477532E+02  0.27345971498E+03  0.30663064594E+03  0.12508330827E+03 0.  0.
          5    1    3    3  502    0  0.29774426725E+02 -0.75312435931E+02  0.88292643483E+02  0.11988136964E+03  0.41800000000E+01 0.  1.
         -5    1    3    3    0  502 -0.17090547784E+02  0.16699958399E+02  0.18516707150E+03  0.18674927631E+03  0.41800000000E+01 0.  1.
        -11    1    1    2    0    0 -0.44491895203E+02  0.35142903170E+02  0.56462941780E+02  0.80016349432E+02  0.00000000000E+00 0. -1.
         11    1    1    2    0    0  0.31808016261E+02  0.23469574362E+02  0.11872860041E+03  0.12513613137E+03  0.00000000000E+00 0.  1.
</event>
<event>
 7    1  0.2855090E-009  0.1018733E+03  0.7561462E-02  0.1276405E+00
          2   -1    0    0  501    0  0.00000000000E+00  0.00000000000E+00  0.34598248277E+03  0.34598248277E+03  0.00000000000E+00 0. -1.
         -2   -1    0    0    0  501 -0.00000000000E+00 -0.00000000000E+00 -0.51528042079E+02  0.51528042079E+02  0.00000000000E+00 0.  1.
         25    2    1    2    0    0 -0.36280040849E+01  0.10281087304E+02  0.26949629663E+03  0.29731267744E+03  0.12509081140E+03 0.  0.
          5    1    3    3  502    0 -0.54930722384E+02 -0.12113942436E+02  0.20094221586E+03  0.20870883637E+03  0.41800000000E+01 0. -1.
         -5    1    3    3    0  502  0.51302718299E+02  0.22395029740E+02  0.68554080766E+02  0.88603841066E+02  0.41800000000E+01 0. -1.
        -11    1    1    2    0    0 -0.12182246104E+02 -0.48415850984E+02 -0.35151292769E+01  0.50048555229E+02  0.00000000000E+00 0.  1.
         11    1    1    2    0    0  0.15810250189E+02  0.38134763680E+02  0.28473273337E+02  0.50149292183E+02  0.00000000000E+00 0. -1.
</event>
<event>
 7    1  0.2855090E-009  0.1116979E+03  0.7561462E-02  0.1257458E+00
          2   -1    0    0  501    0  0.00000000000E+00  0.00000000000E+00  0.49904475045E+02  0.49904475045E+02  0.00000000000E+00 0. -1.
         -2   -1    0    0    0  501 -0.00000000000E+00 -0.00000000000E+00 -0.32682950383E+03  0.32682950383E+03  0.00000000000E+00 0.  1.
         25    2    1    2    0    0 -0.35315067444E+02  0.13352752075E+02 -0.23424341244E+03  0.26822135504E+03  0.12508904448E+03 0.  0.
          5    1    3    3  502    0  0.34913604217E+02 -0.28738677378E+02 -0.11376973188E+03  0.12249855358E+03  0.41800000000E+01 0.  1.
         -5    1    3    3    0  502 -0.70228671661E+02  0.42091429453E+02 -0.12047368056E+03  0.14572280145E+03  0.41800000000E+01 0.  1.
        -11    1    1    2    0    0 -0.18573081519E+02 -0.33634004141E+02 -0.31890005999E+02  0.49931734141E+02  0.00000000000E+00 0.  1.
         11    1    1    2    0    0  0.53888148963E+02  0.20281252066E+02 -0.10791610346E+02  0.58580889699E+02  0.00000000000E+00 0. -1.
</event>
<event>
 7    1  0.2855090E-009  0.7722735E+02  0.7561462E-02  0.1337109E+00
         -1   -1    0    0    0  501 -0.00000000000E+00  0.00000000000E+00  0.10247755148E+03  0.10247755148E+03  0.00000000000E+00 0.  1.
          1   -1    0    0  501    0  0.00000000000E+00 -0.00000000000E+00 -0.17093661982E+03  0.17093661982E+03  0.00000000000E+00 0. -1.
         25    2    1    2    0    0 -0.33560868606E+02  0.60668943141E+02 -0.10977040235E+03  0.18029158717E+03  0.12509381523E+03 0.  0.
          5    1    3    3  502    0 -0.34699454527E+02  0.49265837103E+02 -0.13739874521E+03  0.15009018101E+03  0.41800000000E+01 0.  1.
         -5    1    3    3    0  502  0.11385859205E+01  0.11403106038E+02  0.27628342855E+02  0.30201406162E+02  0.41800000000E+01 0.  1.
        -11    1    1    2    0    0  0.42873428074E+02 -0.37790379232E+02  0.20158975781E+02  0.60602210371E+02  0.00000000000E+00 0.  1.
         11    1    1    2    0    0 -0.93125594676E+01 -0.22878563909E+02  0.21152358239E+02  0.32520373759E+02  0.00000000000E+00 0. -1.
</event>
<event>
 7    1  0.2855090E-009  0.1249069E+03  0.7561462E-02  0.1235215E+00
         -1   -1    0    0    0  501 -0.00000000000E+00  0.00000000000E+00  0.80008570167E+02  0.80008570167E+02  0.00000000000E+00 0.  1.
          1   -1    0    0  501    0  0.00000000000E+00 -0.00000000000E+00 -0.30705411137E+03  0.30705411137E+03  0.00000000000E+00 0. -1.
         25    2    1    2    0    0  0.84948773030E+02  0.66365054585E+02 -0.16787110708E+03  0.23547476030E+03  0.12508812749E+03 0.  0.
          5    1    3    3  502    0  0.47341227440E+02  0.80362853691E+01 -0.15807559186E+03  0.16526082065E+03  0.41800000000E+01 0. -1.
         -5    1    3    3    0  502  0.37607545590E+02  0.58328769216E+02 -0.97955152115E+01  0.70213939654E+02  0.41800000000E+01 0. -1.
        -11    1    1    2    0    0 -0.19601697080E+02 -0.63740811521E+02 -0.53746399858E+01  0.66902947146E+02  0.00000000000E+00 0.  1.
         11    1    1    2    0    0 -0.65347075949E+02 -0.26242430634E+01 -0.53799794142E+02  0.84684974089E+02  0.00000000000E+00 0. -1.
</event>
<event>
 6    1  0.2855090E-009  0.1125794E+03  0.7561462E-02  0.1255866E+00
          1   -1    0    0  501    0  0.00000000000E+00  0.00000000000E+00  0.11680004203E+03  0.11680004203E+03  0.00000000000E+00 0. -1.
         -1   -1    0    0    0  501 -0.00000000000E+00 -0.00000000000E+00 -0.11579222495E+03  0.11579222495E+03  0.00000000000E+00 0.  1.
          5    1    1    2  502    0 -0.36470767083E+02 -0.53794949056E+02  0.87800187695E+01  0.65715862051E+02  0.41800000000E+01 0. -1.
         -5    1    1    2    0  502  0.59126199307E+02  0.26051674089E+02  0.18002343602E+02  0.67202335841E+02  0.41800000000E+01 0. -1.
        -11    1    1    2    0    0 -0.36346771507E+02 -0.22810059959E+02 -0.18756065818E+02  0.46831363842E+02  0.00000000000E+00 0.  1.
         11    1    1    2    0    0  0.13691339283E+02  0.50553334926E+02 -0.70184794763E+01  0.52842705245E+02  0.00000000000E+00 0. -1.
</event>
<event>
 7    1  0.2855090E-009  0.1311236E+03  0.7561462E-02  0.1225798E+00
          2   -1    0    0  501    0  0.00000000000E+00  0.00000000000E+00  0.72268131605E+03  0.72268131605E+03  0.00000000000E+00 0.  1.
         -2   -1    0    0    0  501 -0.00000000000E+00 -0.00000000000E+00 -0.29050438604E+02  0.29050438604E+02  0.00000000000E+00 0. -1.
         25    2    1    2    0    0  0.64555569472E+02 -0.72364366084E+02  0.36907867231E+03  0.40158177161E+03  0.12507929449E+03 0.  0.
          5    1    3    3  502    0  0.15750537857E+01  0.32582446400E+02  0.50389714072E+02  0.60172188693E+02  0.41800000000E+01 0.  1.
         -5    1    3    3    0  502  0.62980515686E+02 -0.10494681248E+03  0.31868895824E+03  0.34140958292E+03  0.41800000000E+01 0.  1.
        -11    1    1    2    0    0 -0.26758481129E+02  0.62264823379E+02  0.29044519267E+03  0.29824710307E+03  0.00000000000E+00 0.  1.
         11    1    1    2    0    0 -0.37797088342E+02  0.10099542705E+02  0.34107012459E+02  0.51902879967E+02  0.00000000000E+00 0. -1.
</event>
<event>
 7    1  0.2855090E-009  0.1423195E+03  0.7561462E-02  0.1210242E+00
         -1   -1    0    0    0  501 -0.00000000000E+00  0.00000000000E+00  0.94517816668E+02  0.94517816668E+02  0.00000000000E+00 0.  1.
          1   -1    0    0  501    0  0.00000000000E+00 -0.00000000000E+00 -0.38085820776E+03  0.38085820776E+03  0.00000000000E+00 0. -1.
         25    2    1    2    0    0 -0.90220376021E+02 -0.67725008633E+02 -0.20004101796E+02  0.16962908867E+03  0.12508985008E+03 0.  0.
          5    1    3    3  502    0 -0.91790193242E+02  0.79135656020E+01 -0.17140398701E+02  0.93804742756E+02  0.41800000000E+01 0. -1.
         -5    1    3    3    0  502  0.15698172210E+01 -0.75638574235E+02 -0.28637030946E+01  0.75824345917E+02  0.41800000000E+01 0. -1.
        -11    1    1    2    0    0  0.63494186682E+02  0.29527616778E+02 -0.54202860820E+02  0.88551352424E+02  0.00000000000E+00 0.  1.
         11    1    1    2    0    0  0.26726189339E+02  0.38197391855E+02 -0.21213342848E+03  0.21719558333E+03  0.00000000000E+00 0. -1.
</event>
<event>
 6    1  0.2855090E-009  0.7353301E+02  0.7561462E-02  0.1348475E+00
          1   -1    0    0  501    0  0.00000000000E+00  0.00000000000E+00  0.65959483140E+02  0.65959483140E+02  0.00000000000E+00 0. -1.
         -1   -1    0    0    0  501 -0.00000000000E+00 -0.00000000000E+00 -0.20672991717E+03  0.20672991717E+03  0.00000000000E+00 0.  1.
          5    1    1    2  502    0 -0.44210425758E+02 -0.15190776001E+02  0.29512111890E+02  0.55441487800E+02  0.41800000000E+01 0. -1.
         -5    1    1    2    0  502  0.17643084553E+02 -0.26682032234E+02 -0.83359064595E+02  0.89383529394E+02  0.41800000000E+01 0. -1.
        -11    1    1    2    0    0  0.38229504417E+02  0.20144344495E+02 -0.64421617004E+01  0.43689713555E+02  0.00000000000E+00 0. -1.
         11    1    1    2    0    0 -0.11662163212E+02  0.21728463740E+02 -0.80481319621E+02  0.84174669559E+02  0.00000000000E+00 0.  1.
</event>
<event>
 7    1  0.2855090E-009  0.1068305E+03  0.7561462E-02  0.1266555E+00
         -1   -1    0    0    0  501 -0.00000000000E+00  0.00000000000E+00  0.58975221537E+03  0.58975221537E+03  0.00000000000E+00 0.  1.
          1   -1    0    0  501    0  0.00000000000E+00 -0.00000000000E+00 -0.24299282463E+02  0.24299282463E+02  0.00000000000E+00 0. -1.
         25    2    1    2    0    0  0.28816898515E+02  0.32482776188E+02  0.25260481341E+03  0.28520386196E+03  0.12508599733E+03 0.  0.
          5    1    3    3  502    0 -0.19423593145E+02  0.60469434175E+02  0.19409061705E+03  0.20426078543E+03  0.41800000000E+01 0.  1.
         -5    1    3    3    0  502  0.48240491660E+02 -0.27986657987E+02  0.58514196366E+02  0.80943076525E+02  0.41800000000E+01 0.  1.
        -11    1    1    2    0    0 -0.29086629575E+00 -0.56677916577E+02  0.24398029797E+03  0.25047725771E+03  0.00000000000E+00 0.  1.
         11    1    1    2    0    0 -0.28526032220E+02  0.24195140389E+02  0.68867821523E+02  0.78370378166E+02  0.00000000000E+00 0. -1.
</event>
<event>
 7    1  0.2855090E-009  0.1183492E+03  0.7561462E-02  0.1245845E+00
          4   -1    0    0  501    0  0.00000000000E+00  0.00000000000E+00  0.29590016767E+03  0.29590016767E+03  0.00000000000E+00 0. -1.
         -4   -1    0    0    0  501 -0.00000000000E+00 -0.00000000000E+00 -0.64489438016E+02  0.64489438016E+02  0.00000000000E+00 0.  1.
         25    2    1    2    0    0 -0.81795410364E+02  0.28184810560E+02  0.12201596051E+03  0.19498906213E+03  0.12509183438E+03 0.  0.
          5    1    3    3  502    0 -0.10792664506E+03  0.46919172508E+02  0.82047793234E+02  0.14352310698E+03  0.41800000000E+01 0.  1.
         -5    1    3    3    0  502  0.26131234693E+02 -0.18734361949E+02  0.39968167279E+02  0.51465955153E+02  0.41800000000E+01 0.  1.
        -11    1    1    2    0    0  0.42280724362E+02 -0.14327651888E+02  0.11480427624E+03  0.12317858217E+03  0.00000000000E+00 0. -1.
         11    1    1    2    0    0  0.39514686002E+02 -0.13857158672E+02 -0.54095071018E+01  0.42221961387E+02  0.00000000000E+00 0.  1.
</event>
<event>
 7    1  0.2855090E-009  0.6845603E+02  0.7561462E-02  0.1365423E+00
          2   -1    0    0  501    0  0.00000000000E+00  0.00000000000E+00  0.33608032448E+03  0.33608032448E+03  0.00000000000E+00 0. -1.
         -2   -1    0    0    0  501 -0.00000000000E+00 -0.00000000000E+00 -0.55724162724E+02  0.55724162724E+02  0.00000000000E+00 0.  1.
         25    2    1    2    0    0 -0.13801171896E+02 -0.41825133826E+02  0.54958404810E+02  0.14355726200E+03  0.12509375303E+03 0.  0.
          5    1    3    3  502    0 -0.27000319182E+01 -0.13880851848E+02 -0.40651609656E+02  0.43243427107E+02  0.41800000000E+01 0. -1.
         -5    1    3    3    0  502 -0.11101139978E+02 -0.27944281978E+02  0.95610014465E+02  0.10031383489E+03  0.41800000000E+01 0. -1.
        -11    1    1    2    0    0  0.42189432889E+02  0.46776157517E+02  0.90235850666E+02  0.11004756201E+03  0.00000000000E+00 0.  1.
         11    1    1    2    0    0 -0.28388260992E+02 -0.49510236909E+01  0.13516190628E+03  0.13819966319E+03  0.00000000000E+00 0. -1.
</event>
<event>
 7    1  0.2855090E-009  0.1021402E+03  0.7561462E-02  0.1275859E+00
         -1   -1    0    0    0  501 -0.00000000000E+00  0.00000000000E+00  0.16814606454E+02  0.16814606454E+02  0.00000000000E+00 0.  1.
          1   -1    0    0  501    0  0.00000000000E+00 -0.00000000000E+00 -0.74680267513E+03  0.74680267513E+03  0.00000000000E+00 0. -1.
         25    2    1    2    0    0 -0.31015563504E+02  0.24375006560E+02 -0.44868512605E+03  0.46746476963E+03  0.12509541310E+03 0.  0.
          5    1    3    3  502    0 -0.72908714248E+02  0.22929983454E+02 -0.18151585178E+03  0.19699477557E+03  0.41800000000E+01 0.  1.
         -5    1    3    3    0  502  0.41893150743E+02  0.14450231052E+01 -0.26716927427E+03  0.27046999406E+03  0.41800000000E+01 0.  1.
        -11    1    1    2    0    0 -0.78593009697E+01 -0.42141679460E+02 -0.84387926216E+02  0.94652056768E+02  0.00000000000E+00 0.  1.
         11    1    1    2    0    0  0.38874864474E+02  0.17766672900E+02 -0.19691501641E+03  0.20150045519E+03  0.00000000000E+00 0. -1.
</event>
<event>
 7    1  0.2855090E-009  0.1681378E+03  0.7561462E-02  0.1179804E+00
          2   -1    0    0  501    0  0.00000000000E+00  0.00000000000E+00  0.55610628268E+03  0.55610628268E+03  0.00000000000E+00 0.  1.
         -2   -1    0    0    0  501 -0.00000000000E+00 -0.00000000000E+00 -0.66641143722E+02  0.66641143722E+02  0.00000000000E+00 0. -1.
         25    2    1    2    0    0  0.61787738277E+02  0.12405772992E+03  0.38560428178E+03  0.42842481426E+03  0.12509642037E+03 0.  0.
          5    1    3    3  502    0  0.64168644363E+02  0.19523990269E+01  0.14169511529E+03  0.15561621020E+03  0.41800000000E+01 0.  1.
         -5    1    3    3    0  502 -0.23809060864E+01  0.12210533090E+03  0.24390916649E+03  0.27280860406E+03  0.41800000000E+01 0.  1.
        -11    1    1    2    0    0 -0.32092175552E+02 -0.11393383068E+03  0.11086266347E+03  0.16217692701E+03  0.00000000000E+00 0.  1.
         11    1    1    2    0    0 -0.29695562725E+02 -0.10123899246E+02 -0.70018062879E+01  0.32145685134E+02  0.00000000000E+00 0. -1.
</event>
<event>
 7    1  0.2855090E-009  0.1110697E+03  0.7561462E-02  0.1258602E+00
         -1   -1    0    0    0  501 -0.00000000000E+00  0.00000000000E+00  0.60885283776E+02  0.60885283776E+02  0.00000000000E+00 0.  1.
          1   -1    0    0  501    0  0.00000000000E+00 -0.00000000000E+00 -0.38756249707E+03  0.38756249707E+03  0.00000000000E+00 0. -1.
         25    2    1    2    0    0 -0.24664966662E+01 -0.75938347174E+02 -0.28759890389E+03  0.32269725578E+03  0.12509065989E+03 0.  0.
          5    1    3    3  502    0 -0.48028831256E+02  0.42219989504E+01 -0.14473421274E+03  0.15261080776E+03  0.41800000000E+01 0.  1.
         -5    1    3    3    0  502  0.45562334590E+02 -0.80160346124E+02 -0.14286469115E+03  0.17008644802E+03  0.41800000000E+01 0.  1.
        -11    1    1    2    0    0  0.15567286239E+02  0.31829598873E+02 -0.64198113791E+02  0.73327086261E+02  0.00000000000E+00 0. -1.
         11    1    1    2    0    0 -0.13100789573E+02  0.44108748301E+02  0.25119804383E+02  0.52423438807E+02  0.00000000000E+00 0.  1.
</event>
<event>
 7    1  0.2855090E-009  0.1260234E+03  0.7561462E-02  0.1233478E+00
          2   -1    0    0  501    0  0.00000000000E+00  0.00000000000E+00  0.15874577085E+02  0.15874577085E+02  0.00000000000E+00 0. -1.
         -2   -1    0    0    0  501 -0.00000000000E+00 -0.00000000000E+00 -0.12674241351E+04  0.12674241351E+04  0.00000000000E+00 0.  1.
         25    2    1    2    0    0  0.89615163410E+02  0.22695211440E+01 -0.74241912882E+03  0.75820122065E+03  0.12508756901E+03 0.  0.
          5    1    3    3  502    0  0.26093274694E+02  0.58577302097E+02 -0.41428687115E+03  0.41924127101E+03  0.41800000000E+01 0.  1.
         -5    1    3    3    0  502  0.63521888715E+02 -0.56307780953E+02 -0.32813225767E+03  0.33895994965E+03  0.41800000000E+01 0.  1.
        -11    1    1    2    0    0 -0.83167359558E+02  0.14867796922E+02 -0.49448550388E+03  0.50165104866E+03  0.00000000000E+00 0.  1.
         11    1    1    2    0    0 -0.64478038518E+01 -0.17137318066E+02 -0.14644925279E+02  0.23446442831E+02  0.00000000000E+00 0. -1.
</event>
<event>
 7    1  0.2855090E-009  0.1251565E+03  0.7561462E-02  0.1234825E+00
         -2   -1    0    0    0  501 -0.00000000000E+00  0.00000000000E+00  0.62534295526E+03  0.62534295526E+03  0.00000000000E+00 0.  1.
          2   -1    0    0  501    0  0.00000000000E+00 -0.00000000000E+00 -0.62987872953E+02  0.62987872953E+02  0.00000000000E+00 0. -1.
         25    2    1    2    0    0  0.54238942454E+02  0.93145631269E+02  0.51247306834E+03  0.53841821061E+03  0.12509017642E+03 0.  0.
          5    1    3    3  502    0  0.32549830421E+02  0.68528387762E+02  0.10501312521E+03  0.12961813244E+03  0.41800000000E+01 0. -1.
         -5    1    3    3    0  502  0.21689112033E+02  0.24617243507E+02  0.40745994313E+03  0.40880007817E+03  0.41800000000E+01 0. -1.
        -11    1    1    2    0    0 -0.50143695998E+01 -0.91880372296E+02  0.29633088886E+02  0.96670919477E+02  0.00000000000E+00 0. -1.
         11    1    1    2    0    0 -0.49224572854E+02 -0.12652589734E+01  0.20248925086E+02  0.53241698133E+02  0.00000000000E+00 0.  1.
</event>
<event>
 7    1  0.2855090E-009  0.6894859E+02  0.7561462E-02  0.1363705E+00
         -3   -1    0    0    0  501 -0.00000000000E+00  0.00000000000E+00  0.69575285992E+02  0.69575285992E+02  0.00000000000E+00 0.  1.
          3   -1    0    0  501    0  0.00000000000E+00 -0.00000000000E+00 -0.23409003072E+03  0.23409003072E+03  0.00000000000E+00 0. -1.
         25    2    1    2    0    0 -0.13066037639E+02 -0.55464515862E+02 -0.13504026701E+03  0.19268550146E+03  0.12507915453E+03 0.  0.
          5    1    3    3  502    0 -0.18227123823E+02 -0.62482973678E+01 -0.14126527486E+03  0.14263456644E+03  0.41800000000E+01 0. -1.
         -5    1    3    3    0  502  0.51610861843E+01 -0.49216218495E+02  0.62250078469E+01  0.50050935018E+02  0.41800000000E+01 0. -1.
        -11    1    1    2    0    0  0.14137854504E+02  0.11405422798E+01 -0.50699951312E+02  0.52646603211E+02  0.00000000000E+00 0. -1.
         11    1    1    2    0    0 -0.10718168656E+01  0.54323973583E+02  0.21225473599E+02  0.58333212038E+02  0.00000000000E+00 0.  1.
</event>
<event>
 7    1  0.2855090E-009  0.9081248E+02  0.7561462E-02  0.1300896E+00
         -4   -1    0    0    0  501 -0.00000000000E+00  0.00000000000E+00  0.10400000677E+03  0.10400000677E+03  0.00000000000E+00 0.  1.
          4   -1    0    0  501    0  0.00000000000E+00 -0.00000000000E+00 -0.15622963762E+03  0.15622963762E+03  0.00000000000E+00 0. -1.
         25    2    1    2    0    0 -0.62605216334E+02 -0.13361121556E+02 -0.10875641388E+02  0.14093460124E+03  0.12508536913E+03 0.  0.
          5    1    3    3  502    0 -0.46643296003E+02  0.25339780457E+02 -0.57342261271E+02  0.78251574190E+02  0.41800000000E+01 0. -1.
         -5    1    3    3    0  502 -0.15961920331E+02 -0.38700902013E+02  0.46466619882E+02  0.62683027053E+02  0.41800000000E+01 0. -1.
        -11    1    1    2    0    0  0.13832780473E+02 -0.22053789510E+02  0.20345955243E+02  0.33040480355E+02  0.00000000000E+00 0.  1.
         11    1    1    2    0    0  0.48772435861E+02  0.35414911066E+02 -0.61699944703E+02  0.86254562789E+02  0.00000000000E+00 0. -1.
</event>
<event>
 7    1  0.2855090E-009  0.1526443E+03  0.7561462E-02  0.1197261E+00
          1   -1    0    0  501    0  0.00000000000E+00  0.00000000000E+00  0.14318187067E+03  0.14318187067E+03  0.00000000000E+00 0. -1.
         -1   -1    0    0    0  501 -0.00000000000E+00 -0.00000000000E+00 -0.25294506934E+03  0.25294506934E+03  0.00000000000E+00 0.  1.
         25    2    1    2    0    0 -0.13902303834E+03  0.44204815370E+01 -0.13107737499E+03  0.22841775732E+03  0.12508576170E+03 0.  0.
          5    1    3    3  502    0 -0.66696594071E+02 -0.22464892808E+02 -0.13364394788E+03  0.15110024578E+03  0.41800000000E+01 0.  1.
         -5    1    3    3    0  502 -0.72326444273E+02  0.26885374345E+02  0.25665728948E+01  0.77317511543E+02  0.41800000000E+01 0.  1.
        -11    1    1    2    0    0  0.10801069234E+03 -0.35412374035E+02 -0.95852929810E+01  0.11407113454E+03  0.00000000000E+00 0.  1.
         11    1    1    2    0    0  0.31012346007E+02  0.30991892498E+02  0.30899469304E+02  0.53638048145E+02  0.00000000000E+00 0. -1.
</event>
<event>
 7    1  0.2855090E-009  0.9379076E+02  0.7561462E-02  0.1293923E+00
         -1   -1    0    0    0  501 -0.00000000000E+00  0.00000000000E+00  0.52678817766E+03  0.52678817766E+03  0.00000000000E+00 0.  1.
          1   -1    0    0  501    0  0.00000000000E+00 -0.00000000000E+00 -0.23279411765E+02  0.23279411765E+02  0.00000000000E+00 0. -1.
         25    2    1    2    0    0  0.14848758303E+02 -0.20320406866E+02  0.27945610365E+03  0.30720563182E+03  0.12508469849E+03 0.  0.
          5    1    3    3  502    0 -0.29493786785E+02  0.21754362560E+02  0.21551108969E+03  0.21864500435E+03  0.41800000000E+01 0. -1.
         -5    1    3    3    0  502  0.44342545088E+02 -0.42074769426E+02  0.63945013959E+02  0.88560627467E+02  0.41800000000E+01 0. -1.
        -11    1    1    2    0    0 -0.23452588219E+01  0.53715136747E+02  0.97050033121E+02  0.11094829915E+03  0.00000000000E+00 0.  1.
         11    1    1    2    0    0 -0.12503499481E+02 -0.33394729881E+02  0.12700262912E+03  0.13191365845E+03  0.00000000000E+00 0. -1.
</event>
<event>
 7    1  0.2855090E-009  0.1035696E+03  0.7561462E-02  0.1272964E+00
          3   -1    0    0  501    0  0.00000000000E+00  0.00000000000E+00  0.30542019929E+03  0.30542019929E+03  0.00000000000E+00 0. -1.
         -3   -1    0    0    0  501 -0.00000000000E+00 -0.00000000000E+00 -0.60086946764E+02  0.60086946764E+02  0.00000000000E+00 0.  1.
         25    2    1    2    0    0 -0.59455035736E+02  0.12367958206E+02  0.20570549388E+03  0.24829398836E+03  0.12508911535E+03 0.  0.
          5    1    3    3  502    0  0.22304198591E+02 -0.10808412329E+02  0.13599911093E+03  0.13830231244E+03  0.41800000000E+01 0.  1.
         -5    1    3    3    0  502 -0.81759234327E+02  0.23176370535E+02  0.69706382951E+02  0.10999167593E+03  0.41800000000E+01 0.  1.
        -11    1    1    2    0    0  0.44889294464E+02 -0.43525793052E+02  0.51314957489E+02  0.80887380230E+02  0.00000000000E+00 0. -1.
         11    1    1    2    0    0  0.14565741272E+02  0.31157834847E+02 -0.11687198845E+02  0.36325777459E+02  0.00000000000E+00 0.  1.
</event>
<event>
 7    1  0.2855090E-009  0.1070663E+03  0.7561462E-02  0.1266101E+00
          2   -1    0    0  501    0  0.00000000000E+00  0.00000000000E+00  0.13227517692E+03  0.13227517692E+03  0.00000000000E+00 0. -1.
         -2   -1    0    0    0  501 -0.00000000000E+00 -0.00000000000E+00 -0.18405142044E+03  0.18405142044E+03  0.00000000000E+00 0.  1.
         25    2    1    2    0    0  0.31484893911E+01  0.66501315381E+02 -0.12049293382E+03  0.18600600497E+03  0.12508936345E+03 0.  0.
          5    1    3    3  502    0  0.40993863233E+02  0.15620472549E+02 -0.11388456471E+03  0.12211331813E+03  0.41800000000E+01 0.  1.
         -5    1    3    3    0  502 -0.37845373842E+02  0.50880842832E+02 -0.66083691080E+01  0.63892686833E+02  0.41800000000E+01 0.  1.
        -11    1    1    2    0    0  0.83235390786E+01 -0.84642430190E+02  0.38755779180E+02  0.93464606730E+02  0.00000000000E+00 0.  1.
         11    1    1    2    0    0 -0.11472028470E+02  0.18141114808E+02  0.29960911123E+02  0.36855985661E+02  0.00000000000E+00 0. -1.
</event>
<event>
 7    1  0.2855090E-009  0.9650261E+02  0.7561462E-02  0.1287827E+00
         -1   -1    0    0    0  501 -0.00000000000E+00  0.00000000000E+00  0.18101195402E+03  0.18101195402E+03  0.00000000000E+00 0.  1.
          1   -1    0    0  501    0  0.00000000000E+00 -0.00000000000E+00 -0.87478026439E+02  0.87478026439E+02  0.00000000000E+00 0. -1.
         25    2    1    2    0    0  0.42050431495E+02 -0.41286468976E+02  0.22807218366E+02  0.14016071815E+03  0.12510813879E+03 0.  0.
          5    1    3    3  502    0 -0.18747083053E+02 -0.63478143365E+02 -0.10671795614E+02  0.67173561985E+02  0.41800000000E+01 0. -1.
         -5    1    3    3    0  502  0.60797514549E+02  0.22191674389E+02  0.33479013979E+02  0.72987156161E+02  0.41800000000E+01 0. -1.
        -11    1    1    2    0    0 -0.22721472955E+02  0.95012440278E+01 -0.19059352210E+02  0.31141577962E+02  0.00000000000E+00 0. -1.
         11    1    1    2    0    0 -0.19328958541E+02  0.31785224948E+02  0.89786061428E+02  0.97187684354E+02  0.00000000000E+00 0.  1.
</event>
<event>
 7    1  0.2855090E-009  0.1208498E+03  0.7561462E-02  0.1241702E+00
         -1   -1    0    0    0  501 -0.00000000000E+00  0.00000000000E+00  0.12879359952E+02  0.12879359952E+02  0.00000000000E+00 0.  1.
          1   -1    0    0  501    0  0.00000000000E+00 -0.00000000000E+00 -0.13623540452E+04  0.13623540452E+04  0.00000000000E+00 0. -1.
         25    2    1    2    0    0  0.34471765962E+02  0.51101463578E+02 -0.97178050437E+03  0.98173506331E+03  0.12508686437E+03 0.  0.
          5    1    3    3  502    0 -0.40350453678E+02 -0.58049762957E-01 -0.47554866593E+03  0.47727577829E+03  0.41800000000E+01 0.  1.
         -5    1    3    3    0  502  0.74822219640E+02  0.51159513341E+02 -0.49623183844E+03  0.50445928502E+03  0.41800000000E+01 0.  1.
        -11    1    1    2    0    0 -0.42144252988E+02  0.14332138801E+02 -0.15372794311E+03  0.16004320902E+03  0.00000000000E+00 0.  1.
         11    1    1    2    0    0  0.76724870259E+01 -0.65433602379E+02 -0.22396623782E+03  0.23345513286E+03  0.00000000000E+00 0. -1.
</event>
<event>
 7    1  0.2855090E-009  0.1728202E+03  0.7561462E-02  0.1174938E+00
         -1   -1    0    0    0  501 -0.00000000000E+00  0.00000000000E+00  0.29734891726E+03  0.29734891726E+03  0.00000000000E+00 0.  1.
          1   -1    0    0  501    0  0.00000000000E+00 -0.00000000000E+00 -0.10478109277E+03  0.10478109277E+03  0.00000000000E+00 0. -1.
         25    2    1    2    0    0  0.13775832428E+03 -0.14605149699E+02  0.89564154350E+02  0.20702886846E+03  0.12509415785E+03 0.  0.
          5    1    3    3  502    0  0.54673028986E+02  0.55363849292E+02  0.39175977673E+02  0.87215397342E+02  0.41800000000E+01 0. -1.
         -5    1    3    3    0  502  0.83085295290E+02 -0.69968998991E+02  0.50388176677E+02  0.11981347112E+03  0.41800000000E+01 0. -1.
        -11    1    1    2    0    0 -0.13166784187E+03 -0.11538487665E+02  0.61756939833E+02  0.14588857700E+03  0.00000000000E+00 0. -1.
         11    1    1    2    0    0 -0.60904824028E+01  0.26143637364E+02  0.41246730311E+02  0.49212564573E+02  0.00000000000E+00 0.  1.
</event>
<event>
 7    1  0.2855090E-009  0.8174124E+02  0.7561462E-02  0.1324181E+00
          4   -1    0    0  501    0  0.00000000000E+00  0.00000000000E+00  0.30472580997E+03  0.30472580997E+03  0.00000000000E+00 0. -1.
         -4   -1    0    0    0  501 -0.00000000000E+00 -0.00000000000E+00 -0.41432350748E+02  0.41432350748E+02  0.00000000000E+00 0.  1.
         25    2    1    2    0    0 -0.20797775567E+02 -0.21690312778E+02  0.17844250930E+03  0.21998269417E+03  0.12509052512E+03 0.  0.
          5    1    3    3  502    0 -0.49901044498E+02  0.27164818600E+02  0.38198894042E+02  0.68590593507E+02  0.41800000000E+01 0. -1.
         -5    1    3    3    0  502  0.29103268931E+02 -0.48855131378E+02  0.14024361526E+03  0.15139210067E+03  0.41800000000E+01 0. -1.
        -11    1    1    2    0    0 -0.11907006423E+01  0.26875079518E+02 -0.99782442302E+01  0.28692386186E+02  0.00000000000E+00 0.  1.
         11    1    1    2    0    0  0.21988476209E+02 -0.51847667401E+01  0.94829194156E+02  0.97483080360E+02  0.00000000000E+00 0. -1.
</event>
<event>
 7    1  0.2855090E-009  0.1579127E+03  0.7561462E-02  0.1191074E+00
          2   -1    0    0  501    0  0.00000000000E+00  0.00000000000E+00  0.87327275201E+03  0.87327275201E+03  0.00000000000E+00 0. -1.
         -2   -1    0    0    0  501 -0.00000000000E+00 -0.00000000000E+00 -0.32269540762E+02  0.32269540762E+02  0.00000000000E+00 0.  1.
         25    2    1    2    0    0 -0.22441738751E+02 -0.12584643561E+03  0.48483455199E+03  0.51677205235E+03  0.12509138375E+03 0.  0.
          5    1    3    3  502    0  0.27876044929E+02 -0.10061639684E+03  0.40960163253E+03  0.42271941399E+03  0.41800000000E+01 0. -1.
         -5    1    3    3    0  502 -0.50317783681E+02 -0.25230038768E+02  0.75232919462E+02  0.94052638355E+02  0.41800000000E+01 0. -1.
        -11    1    1    2    0    0 -0.31264585369E+02  0.73595790832E+02  0.20520676567E+03  0.22023539998E+03  0.00000000000E+00 0. -1.
         11    1    1    2    0    0  0.53706324120E+02  0.52250644776E+02  0.15096189358E+03  0.16853484044E+03  0.00000000000E+00 0.  1.
</event>
<event>
 7    1  0.2855090E-009  0.7867103E+02  0.7561462E-02  0.1332866E+00
         -1   -1    0    0    0  501 -0.00000000000E+00  0.00000000000E+00  0.46582493698E+02  0.46582493698E+02  0.00000000000E+00 0.  1.
          1   -1    0    0  501    0  0.00000000000E+00 -0.00000000000E+00 -0.34363439811E+03  0.34363439811E+03  0.00000000000E+00 0. -1.
         25    2    1    2    0    0 -0.32519227652E+02  0.52022192578E+02 -0.18346324760E+03  0.23037814441E+03  0.12510602509E+03 0.  0.
          5    1    3    3  502    0 -0.39884112639E+02  0.37327345778E+02 -0.19959114374E+03  0.20697383952E+03  0.41800000000E+01 0.  1.
         -5    1    3    3    0  502  0.73648849870E+01  0.14694846800E+02  0.16127896146E+02  0.23404304892E+02  0.41800000000E+01 0.  1.
        -11    1    1    2    0    0 -0.14063836722E+02 -0.31879623952E+02  0.63285599292E+00  0.34849712099E+02  0.00000000000E+00 0.  1.
         11    1    1    2    0    0  0.46583064374E+02 -0.20142568626E+02 -0.11422151281E+03  0.12498903531E+03  0.00000000000E+00 0. -1.
</event>
<event>
 7    1  0.2855090E-009  0.2832957E+03  0.7561462E-02  0.1093902E+00
          2   -1    0    0  501    0  0.00000000000E+00  0.00000000000E+00  0.11173557976E+04  0.11173557976E+04  0.00000000000E+00 0. -1.
         -2   -1    0    0    0  501 -0.00000000000E+00 -0.00000000000E+00 -0.75255151069E+02  0.75255151069E+02  0.00000000000E+00 0.  1.
         25    2    1    2    0    0 -0.18779291016E+03 -0.19147951818E+03  0.50286065946E+03  0.58347795249E+03  0.12508834968E+03 0.  0.
          5    1    3    3  502    0 -0.98631505854E+02 -0.17852577287E+03  0.37670051644E+03  0.42839278356E+03  0.41800000000E+01 0. -1.
         -5    1    3    3    0  502 -0.89161404303E+02 -0.12953745315E+02  0.12616014302E+03  0.15508516893E+03  0.41800000000E+01 0. -1.
        -11    1    1    2    0    0  0.18263514533E+03  0.16732714730E+03  0.42203440036E+03  0.48935366109E+03  0.00000000000E+00 0.  1.
         11    1    1    2    0    0  0.51577648272E+01  0.24152370878E+02  0.11720558669E+03  0.11977933507E+03  0.00000000000E+00 0. -1.
</event>
<event>
 7    1  0.2855090E-009  0.1281196E+03  0.7561462E-02  0.1230273E+00
         -1   -1    0    0    0  501 -0.00000000000E+00  0.00000000000E+00  0.24334833439E+03  0.24334833439E+03  0.00000000000E+00 0.  1.
          1   -1    0    0  501    0  0.00000000000E+00 -0.00000000000E+00 -0.12353370402E+03  0.12353370402E+03  0.00000000000E+00 0. -1.
         25    2    1    2    0    0  0.42953452828E+02  0.10068933869E+03 -0.20456704961E+02  0.16747939278E+03  0.12509008031E+03 0.  0.
          5    1    3    3  502    0 -0.14711417810E+02  0.11590951851E+02 -0.53020604134E+02  0.56386459736E+02  0.41800000000E+01 0. -1.
         -5    1    3    3    0  502  0.57664870638E+02  0.89098386840E+02  0.32563899173E+02  0.11109293305E+03  0.41800000000E+01 0. -1.
        -11    1    1    2    0    0  0.16800996404E+02 -0.49093314472E+02  0.20157343275E+02  0.55666376691E+02  0.00000000000E+00 0. -1.
         11    1    1    2    0    0 -0.59754449233E+02 -0.51596024220E+02  0.12011399206E+03  0.14373626893E+03  0.00000000000E+00 0.  1.
</event>
<event>
 7    1  0.2855090E-009  0.3337617E+03  0.7561462E-02  0.1069484E+00
         -4   -1    0    0    0  501 -0.00000000000E+00  0.00000000000E+00  0.19394909436E+03  0.19394909436E+03  0.00000000000E+00 0.  1.
          4   -1    0    0  501    0  0.00000000000E+00 -0.00000000000E+00 -0.61616401490E+03  0.61616401490E+03  0.00000000000E+00 0. -1.
         25    2    1    2    0    0 -0.30688740263E+03  0.93896244311E+02 -0.29359752927E+03  0.45259482982E+03  0.12508472408E+03 0.  0.
          5    1    3    3  502    0 -0.14445282333E+03 -0.16243208619E+02 -0.15337674141E+03  0.21135836203E+03  0.41800000000E+01 0. -1.
         -5    1    3    3    0  502 -0.16243457930E+03  0.11013945293E+03 -0.14022078786E+03  0.24123646779E+03  0.41800000000E+01 0. -1.
        -11    1    1    2    0    0  0.18257957678E+03 -0.84365318250E+02 -0.11606528325E+03  0.23221532843E+03  0.00000000000E+00 0.  1.
         11    1    1    2    0    0  0.12430782584E+03 -0.95309260607E+01 -0.12552108032E+02  0.12530295102E+03  0.00000000000E+00 0. -1.
</event>
<event>
 6    1  0.2855090E-009  0.2096265E+03  0.7561462E-02  0.1141862E+00
          2   -1    0    0  501    0  0.00000000000E+00  0.00000000000E+00  0.70640413968E+03  0.70640413968E+03  0.00000000000E+00 0. -1.
         -2   -1    0    0    0  501 -0.00000000000E+00 -0.00000000000E+00 -0.69417874416E+02  0.69417874416E+02  0.00000000000E+00 0.  1.
          5    1    1    2  502    0 -0.38311527981E+01  0.20218923000E+02  0.44649929801E+02  0.49341374224E+02  0.41800000000E+01 0. -1.
         -5    1    1    2    0  502 -0.51978719408E+02 -0.19088213440E+03  0.41037577817E+03  0.45559140490E+03  0.41800000000E+01 0. -1.
        -11    1    1    2    0    0 -0.64655091666E+01  0.11978857054E+03  0.10162535206E+03  0.15722218871E+03  0.00000000000E+00 0.  1.
         11    1    1    2    0    0  0.62275381372E+02  0.50874640863E+02  0.80335205223E+02  0.11366704626E+03  0.00000000000E+00 0. -1.
</event>
<event>
 7    1  0.2855090E-009  0.5720626E+02  0.7561462E-02  0.1409944E+00
          1   -1    0    0  501    0  0.00000000000E+00  0.00000000000E+00  0.10013484113E+03  0.10013484113E+03  0.00000000000E+00 0. -1.
         -1   -1    0    0    0  501 -0.00000000000E+00 -0.00000000000E+00 -0.14227772731E+03  0.14227772731E+03  0.00000000000E+00 0.  1.
         25    2    1    2    0    0 -0.17585330087E+02  0.25487229688E+02  0.17963481804E+02  0.13011118588E+03  0.12508953314E+03 0.  0.
          5    1    3    3  502    0 -0.77199590624E+01  0.17473053016E+02  0.71914565292E+02  0.74525716707E+02  0.41800000000E+01 0. -1.
         -5    1    3    3    0  502 -0.98653710248E+01  0.80141766718E+01 -0.53951083488E+02  0.55585469169E+02  0.41800000000E+01 0. -1.
        -11    1    1    2    0    0  0.41401206989E+02  0.61744618734E+01 -0.59411023881E+02  0.72676362582E+02  0.00000000000E+00 0.  1.
         11    1    1    2    0    0 -0.23815876902E+02 -0.31661691561E+02 -0.69534410008E+00  0.39625019982E+02  0.00000000000E+00 0. -1.
</event>
<event>
 7    1  0.2855090E-009  0.1183012E+03  0.7561462E-02  0.1245926E+00
         -1   -1    0    0    0  501 -0.00000000000E+00  0.00000000000E+00  0.78827216465E+02  0.78827216465E+02  0.00000000000E+00 0.  1.
          1   -1    0    0  501    0  0.00000000000E+00 -0.00000000000E+00 -0.20784027549E+03  0.20784027549E+03  0.00000000000E+00 0. -1.
         25    2    1    2    0    0  0.21083496681E+02 -0.65654580413E+02 -0.63018548027E+02  0.15612112500E+03  0.12508968988E+03 0.  0.
          5    1    3    3  502    0 -0.26764242941E+02  0.20996332009E+02 -0.43101277973E+02  0.55066897687E+02  0.41800000000E+01 0.  1.
         -5    1    3    3    0  502  0.47847739622E+02 -0.86650912422E+02 -0.19917270055E+02  0.10105422731E+03  0.41800000000E+01 0.  1.
        -11    1    1    2    0    0  0.28341189756E+02  0.35246694101E+02 -0.36507759462E+01  0.45374890048E+02  0.00000000000E+00 0.  1.
         11    1    1    2    0    0 -0.49424686436E+02  0.30407886311E+02 -0.62343735054E+02  0.85171476914E+02  0.00000000000E+00 0. -1.
</event>
<event>
 7    1  0.2855090E-009  0.9851841E+02  0.7561462E-02  0.1283443E+00
         -1   -1    0    0    0  501 -0.00000000000E+00  0.00000000000E+00  0.46417730266E+02  0.46417730266E+02  0.00000000000E+00 0.  1.
          1   -1    0    0  501    0  0.00000000000E+00 -0.00000000000E+00 -0.47032139323E+03  0.47032139323E+03  0.00000000000E+00 0. -1.
         25    2    1    2    0    0  0.15281360178E+02 -0.75024918032E+01 -0.60403054764E+02  0.13995143139E+03  0.12509223306E+03 0.  0.
          5    1    3    3  502    0 -0.34995015446E+02 -0.32482191868E+02  0.10850976926E+02  0.49142242469E+02  0.41800000000E+01 0. -1.
         -5    1    3    3    0  502  0.50276375624E+02  0.24979700065E+02 -0.71254031690E+02  0.90809188926E+02  0.41800000000E+01 0. -1.
        -11    1    1    2    0    0  0.38442971050E+02  0.70606951681E+01 -0.90963073765E+02  0.99005031328E+02  0.00000000000E+00 0.  1.
         11    1    1    2    0    0 -0.53724331228E+02  0.44179663503E+00 -0.27253753444E+03  0.27778266078E+03  0.00000000000E+00 0. -1.
</event>
<event>
 7    1  0.2855090E-009  0.9399020E+02  0.7561462E-02  0.1293467E+00
          2   -1    0    0  501    0  0.00000000000E+00  0.00000000000E+00  0.64077804156E+02  0.64077804156E+02  0.00000000000E+00 0. -1.
         -2   -1    0    0    0  501 -0.00000000000E+00 -0.00000000000E+00 -0.22653964688E+03  0.22653964688E+03  0.00000000000E+00 0.  1.
         25    2    1    2    0    0 -0.29482672451E+02  0.42052837125E+02 -0.10165103857E+03  0.16916884875E+03  0.12508995428E+03 0.  0.
          5    1    3    3  502    0 -0.70997381225E+02  0.33365979448E+02 -0.99117951928E+02  0.12647433542E+03  0.41800000000E+01 0. -1.
         -5    1    3    3    0  502  0.41514708774E+02  0.86868576768E+01 -0.25330866410E+01  0.42694513334E+02  0.41800000000E+01 0. -1.
        -11    1    1    2    0    0  0.31306357697E+02 -0.74872438493E+01 -0.76835338626E+02  0.83305558725E+02  0.00000000000E+00 0.  1.
         11    1    1    2    0    0 -0.18236852461E+01 -0.34565593275E+02  0.16024534476E+02  0.38143043554E+02  0.00000000000E+00 0. -1.
</event>
<event>
 7    1  0.2855090E-009  0.1086899E+03  0.7561462E-02  0.1263015E+00
         -2   -1    0    0    0  501 -0.00000000000E+00  0.00000000000E+00  0.31716536036E+02  0.31716536036E+02  0.00000000000E+00 0.  1.
          2   -1    0    0  501    0  0.00000000000E+00 -0.00000000000E+00 -0.52568379322E+03  0.52568379322E+03  0.00000000000E+00 0. -1.
         25    2    1    2    0    0  0.12339235481E+02  0.59496098357E+02 -0.31939665846E+03  0.34835829383E+03  0.12508890034E+03 0.  0.
          5    1    3    3  502    0  0.59928893115E+02  0.60272874345E+02 -0.15115280098E+03  0.17346161897E+03  0.41800000000E+01 0.  1.
         -5    1    3    3    0  502 -0.47589657634E+02 -0.77677598873E+00 -0.16824385749E+03  0.17489667486E+03  0.41800000000E+01 0.  1.
        -11    1    1    2    0    0 -0.36171207038E+02 -0.35409460026E+02 -0.26482984428E+02  0.57127353712E+02  0.00000000000E+00 0.  1.
         11    1    1    2    0    0  0.23831971558E+02 -0.24086638331E+02 -0.14808761429E+03  0.15191468172E+03  0.00000000000E+00 0. -1.
</event>
<event>
 7    1  0.2855090E-009  0.1115447E+03  0.7561462E-02  0.1257736E+00
         -2   -1    0    0    0  501 -0.00000000000E+00  0.00000000000E+00  0.34242023226E+02  0.34242023226E+02  0.00000000000E+00 0.  1.
          2   -1    0    0  501    0  0.00000000000E+00 -0.00000000000E+00 -0.50164691060E+03  0.50164691060E+03  0.00000000000E+00 0. -1.
         25    2    1    2    0    0  0.47606382548E+02  0.27809480996E+02 -0.35344088207E+03  0.37895607322E+03  0.12509002126E+03 0.  0.
          5    1    3    3  502    0  0.58144925208E+02  0.58765307386E+02 -0.13734437190E+03  0.16035941685E+03  0.41800000000E+01 0.  1.
         -5    1    3    3    0  502 -0.10538542660E+02 -0.30955826390E+02 -0.21609651017E+03  0.21859665637E+03  0.41800000000E+01 0.  1.
        -11    1    1    2    0    0  0.12486740216E+02 -0.43486517593E+02 -0.40367802077E+02  0.60634605121E+02  0.00000000000E+00 0.  1.
         11    1    1    2    0    0 -0.60093122764E+02  0.15677036597E+02 -0.73596203219E+02  0.96298255479E+02  0.00000000000E+00 0. -1.
</event>
<event>
 7    1  0.2855090E-009  0.1085406E+03  0.7561462E-02  0.1263297E+00
         -2   -1    0    0    0  501 -0.00000000000E+00  0.00000000000E+00  0.60358330097E+02  0.60358330097E+02  0.00000000000E+00 0.  1.
          2   -1    0    0  501    0  0.00000000000E+00 -0.00000000000E+00 -0.46733931924E+03  0.46733931924E+03  0.00000000000E+00 0. -1.
         25    2    1    2    0    0 -0.62797291879E+02  0.49435649323E+02 -0.37232358688E+03  0.40082398033E+03  0.12509047353E+03 0.  0.
          5    1    3    3  502    0 -0.74997484691E+02  0.67748085337E+02 -0.36253224143E+03  0.37637949500E+03  0.41800000000E+01 0. -1.
         -5    1    3    3    0  502  0.12200192812E+02 -0.18312436015E+02 -0.97913454467E+01  0.24444485331E+02  0.41800000000E+01 0. -1.
        -11    1    1    2    0    0  0.99183010780E+01  0.99260934630E+01 -0.44600522698E+02  0.46755819452E+02  0.00000000000E+00 0. -1.
         11    1    1    2    0    0  0.52878990801E+02 -0.59361742786E+02  0.99431204275E+01  0.80117849562E+02  0.00000000000E+00 0.  1.
</event>
<event>
 7    1  0.2855090E-009  0.1042839E+03  0.7561462E-02  0.1271537E+00
         -2   -1    0    0    0  501 -0.00000000000E+00  0.00000000000E+00  0.26415856239E+02  0.26415856239E+02  0.00000000000E+00 0.  1.
          2   -1    0    0  501    0  0.00000000000E+00 -0.00000000000E+00 -0.49354235056E+03  0.49354235056E+03  0.00000000000E+00 0. -1.
         25    2    1    2    0    0 -0.98028242617E+01 -0.24045962914E+02 -0.21102678625E+03  0.24668640040E+03  0.12509025514E+03 0.  0.
          5    1    3    3  502    0 -0.33848218384E+02 -0.66200559980E+02 -0.93975792219E+02  0.11990470363E+03  0.41800000000E+01 0.  1.
         -5    1    3    3    0  502  0.24045394122E+02  0.42154597066E+02 -0.11705099403E+03  0.12678169677E+03  0.41800000000E+01 0.  1.
        -11    1    1    2    0    0 -0.23913171503E+02 -0.19118841905E+02 -0.15780010009E+03  0.16074278048E+03  0.00000000000E+00 0.  1.
         11    1    1    2    0    0  0.33715995764E+02  0.43164804819E+02 -0.98299607981E+02  0.11252902592E+03  0.00000000000E+00 0. -1.
</event>
<event>
 7    1  0.2855090E-009  0.1743969E+03  0.7561462E-02  0.1173339E+00
         -2   -1    0    0    0  501 -0.00000000000E+00  0.00000000000E+00  0.53676602825E+02  0.53676602825E+02  0.00000000000E+00 0.  1.
          2   -1    0    0  501    0  0.00000000000E+00 -0.00000000000E+00 -0.60605894976E+03  0.60605894976E+03  0.00000000000E+00 0. -1.
         25    2    1    2    0    0  0.10013074743E+03 -0.10168402458E+03 -0.31618965947E+03  0.36876775552E+03  0.12509176358E+03 0.  0.
          5    1    3    3  502    0  0.14314695759E+02 -0.10152213602E+03 -0.15091976116E+03  0.18249904472E+03  0.41800000000E+01 0.  1.
         -5    1    3    3    0  502  0.85816051674E+02 -0.16188856140E+00 -0.16526989832E+03  0.18626871080E+03  0.41800000000E+01 0.  1.
        -11    1    1    2    0    0  0.11412801568E+02  0.15784492256E+02 -0.47184948737E+01  0.20041617432E+02  0.00000000000E+00 0.  1.
         11    1    1    2    0    0 -0.11154354900E+03  0.85899532324E+02 -0.23147419259E+03  0.27092617963E+03  0.00000000000E+00 0. -1.
</event>
<event>
 7    1  0.2855090E-009  0.2434843E+03  0.7561462E-02  0.1117493E+00
          2   -1    0    0  501    0  0.00000000000E+00  0.00000000000E+00  0.14707553863E+03  0.14707553863E+03  0.00000000000E+00 0. -1.
         -2   -1    0    0    0  501 -0.00000000000E+00 -0.00000000000E+00 -0.46693513308E+03  0.46693513308E+03  0.00000000000E+00 0.  1.
         25    2    1    2    0    0  0.90939328721E+02  0.21095452433E+03 -0.10315218291E+03  0.28117486312E+03  0.12508860046E+03 0.  0.
          5    1    3    3  502    0  0.41489193971E+02  0.19229409609E+02  0.17650788533E+02  0.49194980904E+02  0.41800000000E+01 0.  1.
         -5    1    3    3    0  502  0.49450134750E+02  0.19172511473E+03 -0.12080297144E+03  0.23197988222E+03  0.41800000000E+01 0.  1.
        -11    1    1    2    0    0 -0.90613490718E+02 -0.11206696522E+03 -0.17175827366E+03  0.22421131542E+03  0.00000000000E+00 0.  1.
         11    1    1    2    0    0 -0.32583800354E+00 -0.98887559119E+02 -0.44949137881E+02  0.10862449316E+03  0.00000000000E+00 0. -1.
</event>
<event>
 7    1  0.2855090E-009  0.1234146E+03  0.7561462E-02  0.1237568E+00
         -2   -1    0    0    0  501 -0.00000000000E+00  0.00000000000E+00  0.26663853643E+02  0.26663853643E+02  0.00000000000E+00 0. -1.
          2   -1    0    0  501    0  0.00000000000E+00 -0.00000000000E+00 -0.15910676479E+04  0.15910676479E+04  0.00000000000E+00 0.  1.
         25    2    1    2    0    0 -0.86644755803E+02 -0.63251031999E+01 -0.14148897046E+04  0.14230628242E+04  0.12509038582E+03 0.  0.
          5    1    3    3  502    0 -0.30317991228E+02  0.39597312261E+02 -0.10381039112E+04  0.10393095452E+04  0.41800000000E+01 0. -1.
         -5    1    3    3    0  502 -0.56326764574E+02 -0.45922415461E+02 -0.37678579340E+03  0.38375327902E+03  0.41800000000E+01 0. -1.
        -11    1    1    2    0    0  0.31242720887E+02  0.46169334845E+02 -0.77380708561E+02  0.95370273911E+02  0.00000000000E+00 0.  1.
         11    1    1    2    0    0  0.55402034915E+02 -0.39844231645E+02 -0.72133381099E+02  0.99298403497E+02  0.00000000000E+00 0. -1.
</event>
<event>
 7    1  0.2855090E-009  0.1085290E+03  0.7561462E-02  0.1263318E+00
          1   -1    0    0  501    0  0.00000000000E+00  0.00000000000E+00  0.44573691725E+02  0.44573691725E+02  0.00000000000E+00 0. -1.
         -1   -1    0    0    0  501 -0.00000000000E+00 -0.00000000000E+00 -0.34394274989E+03  0.34394274989E+03  0.00000000000E+00 0.  1.
         25    2    1    2    0    0 -0.34423441964E+02 -0.31497369292E+02 -0.10987750376E+03  0.17291644144E+03  0.12509984915E+03 0.  0.
          5    1    3    3  502    0 -0.55191072278E+00 -0.76493144616E+02 -0.70083256537E+02  0.10382986577E+03  0.41800000000E+01 0.  1.
         -5    1    3    3    0  502 -0.33871531241E+02  0.44995775324E+02 -0.39794247220E+02  0.69086575667E+02  0.41800000000E+01 0.  1.
        -11    1    1    2    0    0 -0.18846627674E+02 -0.48802425281E+01 -0.11681158854E+03  0.11842279915E+03  0.00000000000E+00 0.  1.
         11    1    1    2    0    0  0.53270069638E+02  0.36377611820E+02 -0.72679965868E+02  0.97177201027E+02  0.00000000000E+00 0. -1.
</event>
<event>
 6    1  0.2855090E-009  0.1852567E+03  0.7561462E-02  0.1162810E+00
          1   -1    0    0  501    0  0.00000000000E+00  0.00000000000E+00  0.40236748009E+03  0.40236748009E+03  0.00000000000E+00 0. -1.
         -1   -1    0    0    0  501 -0.00000000000E+00 -0.00000000000E+00 -0.16286374115E+03  0.16286374115E+03  0.00000000000E+00 0.  1.
          5    1    1    2  502    0  0.65903598418E+02 -0.29069794649E+02  0.28151343141E+02  0.77448742830E+02  0.41800000000E+01 0. -1.
         -5    1    1    2    0  502  0.10576147184E+03  0.30504274044E+01  0.26624929953E+03  0.28653264375E+03  0.41800000000E+01 0. -1.
        -11    1    1    2    0    0 -0.13675391358E+03 -0.16177773768E+02 -0.49004889164E+02  0.14616713860E+03  0.00000000000E+00 0. -1.
         11    1    1    2    0    0 -0.34911156675E+02  0.42197141012E+02 -0.58920145739E+01  0.55082696065E+02  0.00000000000E+00 0.  1.
</event>
<event>
 7    1  0.2855090E-009  0.1005904E+03  0.7561462E-02  0.1279059E+00
         -1   -1    0    0    0  501 -0.00000000000E+00  0.00000000000E+00  0.10807982038E+03  0.10807982038E+03  0.00000000000E+00 0.  1.
          1   -1    0    0  501    0  0.00000000000E+00 -0.00000000000E+00 -0.12542405850E+03  0.12542405850E+03  0.00000000000E+00 0. -1.
         25    2    1    2    0    0 -0.33152870893E+02 -0.16919582935E+02  0.10649145722E+02  0.13094517925E+03  0.12509136872E+03 0.  0.
          5    1    3    3  502    0  0.36231419674E+02 -0.52286509546E+01  0.40186212839E+02  0.54520259214E+02  0.41800000000E+01 0.  1.
         -5    1    3    3    0  502 -0.69384290567E+02 -0.11690931980E+02 -0.29537067117E+02  0.76424920033E+02  0.41800000000E+01 0.  1.
        -11    1    1    2    0    0 -0.53949896227E+01 -0.31500562426E+02 -0.25035173460E+02  0.40597429184E+02  0.00000000000E+00 0. -1.
         11    1    1    2    0    0  0.38547860516E+02  0.48420145360E+02 -0.29582103810E+01  0.61961270450E+02  0.00000000000E+00 0.  1.
</event>
<event>
 7    1  0.2855090E-009  0.1280306E+03  0.7561462E-02  0.1230408E+00
          1   -1    0    0  501    0  0.00000000000E+00  0.00000000000E+00  0.12721179368E+03  0.12721179368E+03  0.00000000000E+00 0. -1.
         -1   -1    0    0    0  501 -0.00000000000E+00 -0.00000000000E+00 -0.17658922896E+03  0.17658922896E+03  0.00000000000E+00 0.  1.
         25    2    1    2    0    0  0.87975636681E+02  0.31498665575E+02  0.17630478319E+02  0.15713087955E+03  0.12508957175E+03 0.  0.
          5    1    3    3  502    0  0.11350764143E+03  0.13407064009E+02  0.36859453212E+02  0.12016582593E+03  0.41800000000E+01 0.  1.
         -5    1    3    3    0  502 -0.25532004753E+02  0.18091601565E+02 -0.19228974893E+02  0.36965053623E+02  0.41800000000E+01 0.  1.
        -11    1    1    2    0    0 -0.62280009358E+02  0.82120267525E+01  0.21833890009E+01  0.62857013424E+02  0.00000000000E+00 0. -1.
         11    1    1    2    0    0 -0.25695627323E+02 -0.39710692327E+02 -0.69191302598E+02  0.83813129663E+02  0.00000000000E+00 0.  1.
</event>
<event>
 7    1  0.2855090E-009  0.3067220E+03  0.7561462E-02  0.1081928E+00
          1   -1    0    0  501    0  0.00000000000E+00  0.00000000000E+00  0.46311403627E+03  0.46311403627E+03  0.00000000000E+00 0. -1.
         -1   -1    0    0    0  501 -0.00000000000E+00 -0.00000000000E+00 -0.22230113804E+03  0.22230113804E+03  0.00000000000E+00 0.  1.
         25    2    1    2    0    0 -0.61000901169E+02  0.29372760458E+03  0.92771759740E+02  0.33800274346E+03  0.12506893918E+03 0.  0.
          5    1    3    3  502    0 -0.81877279851E+01  0.22912905569E+03  0.25473404592E+02  0.23072392549E+03  0.41800000000E+01 0. -1.
         -5    1    3    3    0  502 -0.52813173184E+02  0.64598548891E+02  0.67298355149E+02  0.10727881798E+03  0.41800000000E+01 0. -1.
        -11    1    1    2    0    0  0.37771935213E+02 -0.13564266720E+03  0.19101188649E+02  0.14209330618E+03  0.00000000000E+00 0.  1.
         11    1    1    2    0    0  0.23228965956E+02 -0.15808493739E+03  0.12893994984E+03  0.20531912466E+03  0.00000000000E+00 0. -1.
</event>
<event>
 7    1  0.2855090E-009  0.1610833E+03  0.7561462E-02  0.1187479E+00
         -1   -1    0    0    0  501 -0.00000000000E+00  0.00000000000E+00  0.34991039918E+03  0.34991039918E+03  0.00000000000E+00 0.  1.
          1   -1    0    0  501    0  0.00000000000E+00 -0.00000000000E+00 -0.10920776682E+03  0.10920776682E+03  0.00000000000E+00 0. -1.
         25    2    1    2    0    0  0.97877717472E+02  0.92079636612E+02  0.23585501625E+03  0.29888790944E+03  0.12509071374E+03 0.  0.
          5    1    3    3  502    0 -0.93158840664E+01  0.60319755617E+02  0.13519105694E+03  0.14838919398E+03  0.41800000000E+01 0. -1.
         -5    1    3    3    0  502  0.10719360154E+03  0.31759880995E+02  0.10066395931E+03  0.15049871546E+03  0.41800000000E+01 0. -1.
        -11    1    1    2    0    0 -0.17339124821E+02  0.92666987309E+01  0.22163155355E+02  0.29626380309E+02  0.00000000000E+00 0.  1.
         11    1    1    2    0    0 -0.80538592651E+02 -0.10134633534E+03 -0.17315539243E+02  0.13060387626E+03  0.00000000000E+00 0. -1.
</event>
<event>
 7    1  0.2855090E-009  0.1137028E+03  0.7561462E-02  0.1253863E+00
          1   -1    0    0  501    0  0.00000000000E+00  0.00000000000E+00  0.10814737306E+03  0.10814737306E+03  0.00000000000E+00 0. -1.
         -1   -1    0    0    0  501 -0.00000000000E+00 -0.00000000000E+00 -0.18765601117E+03  0.18765601117E+03  0.00000000000E+00 0.  1.
         25    2    1    2    0    0  0.18629200845E+02  0.93109459514E+02 -0.26349073037E+02  0.15924252971E+03  0.12508993182E+03 0.  0.
          5    1    3    3  502    0  0.38703736200E+02  0.68281609545E+02 -0.69828721423E+02  0.10513743450E+03  0.41800000000E+01 0.  1.
         -5    1    3    3    0  502 -0.20074535355E+02  0.24827849969E+02  0.43479648386E+02  0.54105095209E+02  0.41800000000E+01 0.  1.
        -11    1    1    2    0    0  0.25783221454E+02 -0.33927447526E+02 -0.45233772940E+02  0.62144512377E+02  0.00000000000E+00 0.  1.
         11    1    1    2    0    0 -0.44412422299E+02 -0.59182011988E+02 -0.79257921309E+01  0.74416342145E+02  0.00000000000E+00 0. -1.
</event>
<event>
 7    1  0.2855090E-009  0.1386478E+03  0.7561462E-02  0.1215160E+00
         -2   -1    0    0    0  501 -0.00000000000E+00  0.00000000000E+00  0.54285176446E+02  0.54285176446E+02  0.00000000000E+00 0.  1.
          2   -1    0    0  501    0  0.00000000000E+00 -0.00000000000E+00 -0.46147483300E+03  0.46147483300E+03  0.00000000000E+00 0. -1.
         25    2    1    2    0    0  0.29673257548E+02 -0.86205241233E+02 -0.10457611658E+03  0.18680298013E+03  0.12508934166E+03 0.  0.
          5    1    3    3  502    0  0.73749489087E+02 -0.35945571631E+02 -0.32321802523E+02  0.88279344010E+02  0.41800000000E+01 0. -1.
         -5    1    3    3    0  502 -0.44076231539E+02 -0.50259669602E+02 -0.72254314055E+02  0.98523636122E+02  0.41800000000E+01 0. -1.
        -11    1    1    2    0    0  0.22891468515E+02  0.69249740126E+02 -0.15359342368E+03  0.17003083731E+03  0.00000000000E+00 0.  1.
         11    1    1    2    0    0 -0.52564726063E+02  0.16955501107E+02 -0.14902011629E+03  0.15892619200E+03  0.00000000000E+00 0. -1.
</event>
<event>
 7    1  0.2855090E-009  0.1087016E+03  0.7561462E-02  0.1262993E+00
          3   -1    0    0  501    0  0.00000000000E+00  0.00000000000E+00  0.25416780917E+02  0.25416780917E+02  0.00000000000E+00 0. -1.
         -3   -1    0    0    0  501 -0.00000000000E+00 -0.00000000000E+00 -0.69575296033E+03  0.69575296033E+03  0.00000000000E+00 0.  1.
         25    2    1    2    0    0  0.31422468385E+00 -0.27115198007E+02 -0.17153454818E+03  0.21401823270E+03  0.12507745604E+03 0.  0.
          5    1    3    3  502    0 -0.44135955636E+02  0.29973799092E+02 -0.54651143351E+02  0.76489418101E+02  0.41800000000E+01 0.  1.
         -5    1    3    3    0  502  0.44450180320E+02 -0.57088997099E+02 -0.11688340483E+03  0.13752881460E+03  0.41800000000E+01 0.  1.
        -11    1    1    2    0    0  0.39401593420E+02  0.32833775254E+02 -0.29771478053E+03  0.30210036893E+03  0.00000000000E+00 0.  1.
         11    1    1    2    0    0 -0.39715818104E+02 -0.57185772470E+01 -0.20108685070E+03  0.20505113961E+03  0.00000000000E+00 0. -1.
</event>
<event>
 7    1  0.2855090E-009  0.1429979E+03  0.7561462E-02  0.1209351E+00
          2   -1    0    0  501    0  0.00000000000E+00  0.00000000000E+00  0.39970999698E+03  0.39970999698E+03  0.00000000000E+00 0. -1.
         -2   -1    0    0    0  501 -0.00000000000E+00 -0.00000000000E+00 -0.98942875877E+02  0.98942875877E+02  0.00000000000E+00 0.  1.
         25    2    1    2    0    0  0.11747039931E+03 -0.85075971181E+01  0.30561160965E+03  0.35059649800E+03  0.12509106496E+03 0.  0.
          5    1    3    3  502    0  0.12539322077E+02  0.47405829851E+02  0.12481418561E+03  0.13416631705E+03  0.41800000000E+01 0. -1.
         -5    1    3    3    0  502  0.10493107723E+03 -0.55913426969E+02  0.18079742405E+03  0.21643018095E+03  0.41800000000E+01 0. -1.
        -11    1    1    2    0    0 -0.82691545563E+02  0.72420182596E+01  0.39301655954E+02  0.91842031210E+02  0.00000000000E+00 0. -1.
         11    1    1    2    0    0 -0.34778853747E+02  0.12655788585E+01 -0.44146144500E+02  0.56214343651E+02  0.00000000000E+00 0.  1.
</event>
<event>
 7    1  0.2855090E-009  0.1338198E+03  0.7561462E-02  0.1221895E+00
         -2   -1    0    0    0  501 -0.00000000000E+00  0.00000000000E+00  0.10540163838E+03  0.10540163838E+03  0.00000000000E+00 0. -1.
          2   -1    0    0  501    0  0.00000000000E+00 -0.00000000000E+00 -0.18160802355E+03  0.18160802355E+03  0.00000000000E+00 0.  1.
         25    2    1    2    0    0 -0.80715870170E+02  0.28441256963E+02 -0.34482947351E+02  0.15543716686E+03  0.12509069666E+03 0.  0.
          5    1    3    3  502    0 -0.11255225931E+03  0.26857616342E+02 -0.40623535058E+02  0.12270732102E+03  0.41800000000E+01 0. -1.
         -5    1    3    3    0  502  0.31836389144E+02  0.15836406212E+01  0.61405877075E+01  0.32729845840E+02  0.41800000000E+01 0. -1.
        -11    1    1    2    0    0 -0.65755470375E+01 -0.31676427477E+02  0.46346304753E+01  0.32682008448E+02  0.00000000000E+00 0. -1.
         11    1    1    2    0    0  0.87291417208E+02  0.32351705141E+01 -0.46358068299E+02  0.98890486614E+02  0.00000000000E+00 0.  1.
</event>
<event>
 7    1  0.2855090E-009  0.1191111E+03  0.7561462E-02  0.1244571E+00
          2   -1    0    0  501    0  0.00000000000E+00  0.00000000000E+00  0.47465828038E+03  0.47465828038E+03  0.00000000000E+00 0. -1.
         -2   -1    0    0    0  501 -0.00000000000E+00 -0.00000000000E+00 -0.42302733906E+02  0.42302733906E+02  0.00000000000E+00 0.  1.
         25    2    1    2    0    0 -0.38098691703E+02  0.55518691352E+02  0.35222543167E+03  0.37979580953E+03  0.12509303266E+03 0.  0.
          5    1    3    3  502    0  0.27663323045E+02  0.63394600984E+02  0.12321016796E+03  0.14135895007E+03  0.41800000000E+01 0. -1.
         -5    1    3    3    0  502 -0.65762014748E+02 -0.78759096319E+01  0.22901526371E+03  0.23843685946E+03  0.41800000000E+01 0. -1.
        -11    1    1    2    0    0  0.61613205595E+02 -0.47228052476E+02  0.34047288234E+02  0.84769651883E+02  0.00000000000E+00 0.  1.
         11    1    1    2    0    0 -0.23514513891E+02 -0.82906388768E+01  0.46082826570E+02  0.52395552876E+02  0.00000000000E+00 0. -1.
</event>
<event>
 7    1  0.2855090E-009  0.1074001E+03  0.7561462E-02  0.1265462E+00
          1   -1    0    0  501    0  0.00000000000E+00  0.00000000000E+00  0.36012931262E+03  0.36012931262E+03  0.00000000000E+00 0. -1.
         -1   -1    0    0    0  501 -0.00000000000E+00 -0.00000000000E+00 -0.49732788784E+02  0.49732788784E+02  0.00000000000E+00 0.  1.
         25    2    1    2    0    0 -0.55769048887E+02 -0.29463655690E+02  0.10095530180E+03  0.17268074842E+03  0.12509346143E+03 0.  0.
          5    1    3    3  502    0 -0.12867869361E+02 -0.56911362736E+02  0.10626707494E+03  0.12130395248E+03  0.41800000000E+01 0.  1.
         -5    1    3    3    0  502 -0.42901179526E+02  0.27447707046E+02 -0.53117731419E+01  0.51376795937E+02  0.41800000000E+01 0.  1.
        -11    1    1    2    0    0  0.38932951791E+02  0.59302325951E+02  0.17391219852E+03  0.18782436847E+03  0.00000000000E+00 0.  1.
         11    1    1    2    0    0  0.16836097097E+02 -0.29838670262E+02  0.35529023515E+02  0.49356984515E+02  0.00000000000E+00 0. -1.
</event>
<event>
 7    1  0.2855090E-009  0.9588990E+02  0.7561462E-02  0.1289184E+00
          3   -1    0    0  501    0  0.00000000000E+00  0.00000000000E+00  0.72477073816E+02  0.72477073816E+02  0.00000000000E+00 0. -1.
         -3   -1    0    0    0  501 -0.00000000000E+00 -0.00000000000E+00 -0.22634196149E+03  0.22634196149E+03  0.00000000000E+00 0.  1.
         25    2    1    2    0    0  0.44262915056E+02 -0.10564388638E-02 -0.14116297232E+03  0.19374031304E+03  0.12509643676E+03 0.  0.
          5    1    3    3  502    0  0.53578072673E+02 -0.31753194038E+02 -0.14716085145E+03  0.15985200594E+03  0.41800000000E+01 0. -1.
         -5    1    3    3    0  502 -0.93151576170E+01  0.31752137599E+02  0.59978791356E+01  0.33888307094E+02  0.41800000000E+01 0. -1.
        -11    1    1    2    0    0 -0.35603554210E+01  0.39280187536E+02 -0.25653832778E+02  0.47050275236E+02  0.00000000000E+00 0.  1.
         11    1    1    2    0    0 -0.40702559635E+02 -0.39279131097E+02  0.12951917421E+02  0.58028447036E+02  0.00000000000E+00 0. -1.
</event>
<event>
 7    1  0.2855090E-009  0.1031388E+03  0.7561462E-02  0.1273831E+00
          4   -1    0    0  501    0  0.00000000000E+00  0.00000000000E+00  0.19907035738E+03  0.19907035738E+03  0.00000000000E+00 0. -1.
         -4   -1    0    0    0  501 -0.00000000000E+00 -0.00000000000E+00 -0.68195182077E+02  0.68195182077E+02  0.00000000000E+00 0.  1.
         25    2    1    2    0    0 -0.33959825814E+02  0.24997615094E+02  0.61713681935E+02  0.14571994941E+03  0.12509026576E+03 0.  0.
          5    1    3    3  502    0  0.37733209294E+02 -0.23655567645E+02  0.27269400703E+02  0.52387723552E+02  0.41800000000E+01 0. -1.
         -5    1    3    3    0  502 -0.71693035108E+02  0.48653182740E+02  0.34444281231E+02  0.93332225856E+02  0.41800000000E+01 0. -1.
        -11    1    1    2    0    0 -0.17583838781E+02 -0.15439027671E+00  0.61321140776E+02  0.63792613434E+02  0.00000000000E+00 0. -1.
         11    1    1    2    0    0  0.51543664594E+02 -0.24843224817E+02  0.78403525917E+01  0.57752976615E+02  0.00000000000E+00 0.  1.
</event>
<event>
 7    1  0.2855090E-009  0.8472298E+02  0.7561462E-02  0.1316159E+00
         -3   -1    0    0    0  501 -0.00000000000E+00  0.00000000000E+00  0.27525388576E+03  0.27525388576E+03  0.00000000000E+00 0.  1.
          3   -1    0    0  501    0  0.00000000000E+00 -0.00000000000E+00 -0.62295461752E+02  0.62295461752E+02  0.00000000000E+00 0. -1.
         25    2    1    2    0    0 -0.53892977690E+02  0.48496774204E+02  0.13281563081E+03  0.19632766051E+03  0.12509263905E+03 0.  0.
          5    1    3    3  502    0 -0.56401585528E+01  0.13587774253E+02 -0.24040746243E+02  0.28493312857E+02  0.41800000000E+01 0.  1.
         -5    1    3    3    0  502 -0.48252819137E+02  0.34908999951E+02  0.15685637705E+03  0.16783434766E+03  0.41800000000E+01 0.  1.
        -11    1    1    2    0    0  0.66818531740E+02 -0.46412654724E+02  0.25837688633E+02  0.85360628256E+02  0.00000000000E+00 0. -1.
         11    1    1    2    0    0 -0.12925554050E+02 -0.20841194805E+01  0.54305104569E+02  0.55861058742E+02  0.00000000000E+00 0.  1.
</event>
<event>
 7    1  0.2855090E-009  0.1191634E+03  0.7561462E-02  0.1244484E+00
          1   -1    0    0  501    0  0.00000000000E+00  0.00000000000E+00  0.23594932509E+03  0.23594932509E+03  0.00000000000E+00 0. -1.
         -1   -1    0    0    0  501 -0.00000000000E+00 -0.00000000000E+00 -0.64960549796E+02  0.64960549796E+02  0.00000000000E+00 0.  1.
         25    2    1    2    0    0  0.31265791094E+02 -0.50706690933E+02  0.93018288294E+02  0.16687912199E+03  0.12509005236E+03 0.  0.
          5    1    3    3  502    0 -0.43781840523E+02 -0.26964524197E+02  0.10279375861E+02  0.52602976083E+02  0.41800000000E+01 0. -1.
         -5    1    3    3    0  502  0.75047631616E+02 -0.23742166737E+02  0.82738912433E+02  0.11427614591E+03  0.41800000000E+01 0. -1.
        -11    1    1    2    0    0  0.20411425464E+02  0.52372370354E+02  0.31074046671E+02  0.64226846743E+02  0.00000000000E+00 0.  1.
         11    1    1    2    0    0 -0.51677216558E+02 -0.16656794209E+01  0.46896440334E+02  0.69803906159E+02  0.00000000000E+00 0. -1.
</event>
<event>
 7    1  0.2855090E-009  0.9274098E+02  0.7561462E-02  0.1296347E+00
          1   -1    0    0  501    0  0.00000000000E+00  0.00000000000E+00  0.12119887213E+03  0.12119887213E+03  0.00000000000E+00 0. -1.
         -1   -1    0    0    0  501 -0.00000000000E+00 -0.00000000000E+00 -0.18589209975E+03  0.18589209975E+03  0.00000000000E+00 0.  1.
         25    2    1    2    0    0 -0.54844076481E+02 -0.41694695122E+02  0.48821415639E+02  0.15092956002E+03  0.12509948495E+03 0.  0.
          5    1    3    3  502    0  0.19019544488E+02 -0.20497516435E+02 -0.29684353947E+02  0.40994201075E+02  0.41800000000E+01 0.  1.
         -5    1    3    3    0  502 -0.73863620969E+02 -0.21197178687E+02  0.78505769587E+02  0.10993535894E+03  0.41800000000E+01 0.  1.
        -11    1    1    2    0    0  0.16286974781E+02 -0.73462840527E+01  0.79943691503E+01  0.19574048508E+02  0.00000000000E+00 0. -1.
         11    1    1    2    0    0  0.38557101701E+02  0.49040979175E+02 -0.12150901242E+03  0.13658736336E+03  0.00000000000E+00 0.  1.
</event>
<event>
 7    1  0.2855090E-009  0.9703083E+02  0.7561462E-02  0.1286667E+00
         -2   -1    0    0    0  501 -0.00000000000E+00  0.00000000000E+00  0.91475591201E+02  0.91475591201E+02  0.00000000000E+00 0.  1.
          2   -1    0    0  501    0  0.00000000000E+00 -0.00000000000E+00 -0.16567787927E+03  0.16567787927E+03  0.00000000000E+00 0. -1.
         25    2    1    2    0    0 -0.23073457122E+02 -0.47949678330E+02 -0.20507146889E+02  0.13747972954E+03  0.12509427200E+03 0.  0.
          5    1    3    3  502    0 -0.25133083125E+02  0.38332017073E+02  0.75267910381E+01  0.46638400312E+02  0.41800000000E+01 0. -1.
         -5    1    3    3    0  502  0.20596260030E+01 -0.86281695403E+02 -0.28033937927E+02  0.90841329232E+02  0.41800000000E+01 0. -1.
        -11    1    1    2    0    0 -0.68546113744E+01  0.18114987366E+02 -0.71307944022E+02  0.73891551243E+02  0.00000000000E+00 0. -1.
         11    1    1    2    0    0  0.29928068497E+02  0.29834690964E+02  0.17612802839E+02  0.45782189689E+02  0.00000000000E+00 0.  1.
</event>
<event>
 7    1  0.2855090E-009  0.9722234E+02  0.7561462E-02  0.1286248E+00
          1   -1    0    0  501    0  0.00000000000E+00  0.00000000000E+00  0.12427634587E+03  0.12427634587E+03  0.00000000000E+00 0. -1.
         -1   -1    0    0    0  501 -0.00000000000E+00 -0.00000000000E+00 -0.16405952747E+03  0.16405952747E+03  0.00000000000E+00 0.  1.
         25    2    1    2    0    0 -0.59872992051E+02  0.35228334895E+02  0.35238562762E+02  0.14735428574E+03  0.12508284640E+03 0.  0.
          5    1    3    3  502    0 -0.74988828790E+02  0.59449711193E+02  0.56774622358E+02  0.11134820496E+03  0.41800000000E+01 0. -1.
         -5    1    3    3    0  502  0.15115836739E+02 -0.24221376298E+02 -0.21536059596E+02  0.36006080779E+02  0.41800000000E+01 0. -1.
        -11    1    1    2    0    0  0.27037373587E+02 -0.11994799441E+02 -0.92507540079E+02  0.97121263148E+02  0.00000000000E+00 0.  1.
         11    1    1    2    0    0  0.32835618464E+02 -0.23233535454E+02  0.17485795712E+02  0.43860324455E+02  0.00000000000E+00 0. -1.
</event>
<event>
 7    1  0.2855090E-009  0.8395484E+02  0.7561462E-02  0.1318189E+00
         -2   -1    0    0    0  501 -0.00000000000E+00  0.00000000000E+00  0.16113491879E+02  0.16113491879E+02  0.00000000000E+00 0. -1.
          2   -1    0    0  501    0  0.00000000000E+00 -0.00000000000E+00 -0.80467916140E+03  0.80467916140E+03  0.00000000000E+00 0.  1.
         25    2    1    2    0    0  0.18587694282E+02 -0.18675078185E+02 -0.35951020158E+03  0.38156178727E+03  0.12509017364E+03 0.  0.
          5    1    3    3  502    0  0.41610085700E+02 -0.26184687545E+02 -0.35259847232E+03  0.35603397615E+03  0.41800000000E+01 0.  1.
         -5    1    3    3    0  502 -0.23022391417E+02  0.75096093603E+01 -0.69117292659E+01  0.25527811124E+02  0.41800000000E+01 0.  1.
        -11    1    1    2    0    0  0.35654034167E+02  0.17554545382E+02 -0.18045259950E+03  0.18477692735E+03  0.00000000000E+00 0.  1.
         11    1    1    2    0    0 -0.54241728450E+02  0.11205328029E+01 -0.24860286845E+03  0.25445393866E+03  0.00000000000E+00 0. -1.
</event>
<event>
 7    1  0.2855090E-009  0.1281140E+03  0.7561462E-02  0.1230281E+00
         -4   -1    0    0    0  501 -0.00000000000E+00  0.00000000000E+00  0.68877223214E+02  0.68877223214E+02  0.00000000000E+00 0. -1.
          4   -1    0    0  501    0  0.00000000000E+00 -0.00000000000E+00 -0.38219327193E+03  0.38219327193E+03  0.00000000000E+00 0.  1.
         25    2    1    2    0    0 -0.86151279022E+02  0.11611416202E+02 -0.27843997416E+03  0.31738667758E+03  0.12509442845E+03 0.  0.
          5    1    3    3  502    0  0.17247756721E+02 -0.22070713592E+02 -0.13161500222E+03  0.13462757043E+03  0.41800000000E+01 0. -1.
         -5    1    3    3    0  502 -0.10339903574E+03  0.33682129794E+02 -0.14682497194E+03  0.18275910715E+03  0.41800000000E+01 0. -1.
        -11    1    1    2    0    0  0.94785757722E+02  0.10477857148E+02 -0.47802149833E+02  0.10667319666E+03  0.00000000000E+00 0.  1.
         11    1    1    2    0    0 -0.86344786996E+01 -0.22089273350E+02  0.12926075279E+02  0.27010620905E+02  0.00000000000E+00 0. -1.
</event>
<event>
 7    1  0.2855090E-009  0.9255869E+02  0.7561462E-02  0.1296771E+00
         -2   -1    0    0    0  501 -0.00000000000E+00  0.00000000000E+00  0.11128301969E+03  0.11128301969E+03  0.00000000000E+00 0.  1.
          2   -1    0    0  501    0  0.00000000000E+00 -0.00000000000E+00 -0.20357905562E+03  0.20357905562E+03  0.00000000000E+00 0. -1.
         25    2    1    2    0    0 -0.21701466482E+01 -0.89740188482E+02 -0.96132125778E+02  0.18151393834E+03  0.12509161938E+03 0.  0.
          5    1    3    3  502    0  0.86093240144E+01 -0.73076712953E+02  0.91767203878E+01  0.74269852787E+02  0.41800000000E+01 0.  1.
         -5    1    3    3    0  502 -0.10779470663E+02 -0.16663475529E+02 -0.10530884617E+03  0.10724408555E+03  0.41800000000E+01 0.  1.
        -11    1    1    2    0    0  0.72560145697E+01  0.21217010179E+02  0.47089665567E+02  0.52155995548E+02  0.00000000000E+00 0.  1.
         11    1    1    2    0    0 -0.50858679214E+01  0.68523178302E+02 -0.43253575715E+02  0.81192141426E+02  0.00000000000E+00 0. -1.
</event>
<event>
 7    1  0.2855090E-009  0.9227936E+02  0.7561462E-02  0.1297424E+00
          2   -1    0    0  501    0  0.00000000000E+00  0.00000000000E+00  0.67013074896E+03  0.67013074896E+03  0.00000000000E+00 0. -1.
         -2   -1    0    0    0  501 -0.00000000000E+00 -0.00000000000E+00 -0.27579026614E+02  0.27579026614E+02  0.00000000000E+00 0.  1.
         25    2    1    2    0    0 -0.73008171532E+02 -0.28224547671E+02  0.51623322831E+03  0.53690572298E+03  0.12507674106E+03 0.  0.
          5    1    3    3  502    0 -0.50816143106E+02  0.14450500384E+02  0.45890428478E+03  0.46195423187E+03  0.41800000000E+01 0. -1.
         -5    1    3    3    0  502 -0.22192028426E+02 -0.42675048055E+02  0.57328943536E+02  0.74951491107E+02  0.41800000000E+01 0. -1.
        -11    1    1    2    0    0  0.15815332532E+02  0.20003743798E+02  0.87635066236E+02  0.91269816167E+02  0.00000000000E+00 0. -1.
         11    1    1    2    0    0  0.57192839000E+02  0.82208038726E+01  0.38683427804E+02  0.69534236430E+02  0.00000000000E+00 0.  1.
</event>
<event>
 7    1  0.2855090E-009  0.1323129E+03  0.7561462E-02  0.1224064E+00
          2   -1    0    0  501    0  0.00000000000E+00  0.00000000000E+00  0.10301664088E+04  0.10301664088E+04  0.00000000000E+00 0. -1.
         -2   -1    0    0    0  501 -0.00000000000E+00 -0.00000000000E+00 -0.23873459964E+02  0.23873459964E+02  0.00000000000E+00 0.  1.
         25    2    1    2    0    0  0.10459607517E+03  0.43150875497E+02  0.50981145237E+03  0.53698911245E+03  0.12508898003E+03 0.  0.
          5    1    3    3  502    0  0.35376792010E+02 -0.76994009672E+01  0.24027824611E+02  0.43653258111E+02  0.41800000000E+01 0. -1.
         -5    1    3    3    0  502  0.69219283164E+02  0.50850276464E+02  0.48578362776E+03  0.49333585434E+03  0.41800000000E+01 0. -1.
        -11    1    1    2    0    0  0.15422171546E+02 -0.60599668453E+01  0.34156349735E+02  0.37963440315E+02  0.00000000000E+00 0.  1.
         11    1    1    2    0    0 -0.12001824672E+03 -0.37090908652E+02  0.46232514672E+03  0.47908731599E+03  0.00000000000E+00 0. -1.
</event>
<event>
 7    1  0.2855090E-009  0.1051865E+03  0.7561462E-02  0.1269753E+00
          1   -1    0    0  501    0  0.00000000000E+00  0.00000000000E+00  0.15805426428E+04  0.15805426428E+04  0.00000000000E+00 0. -1.
         -1   -1    0    0    0  501 -0.00000000000E+00 -0.00000000000E+00 -0.10757739511E+02  0.10757739511E+02  0.00000000000E+00 0.  1.
         25    2    1    2    0    0  0.68644226824E+02 -0.93002525028E+01  0.93374261504E+03  0.94462769917E+03  0.12509074433E+03 0.  0.
          5    1    3    3  502    0  0.20074271974E+02 -0.33594648394E+02  0.78891932005E+03  0.78990046382E+03  0.41800000000E+01 0.  1.
         -5    1    3    3    0  502  0.48569954850E+02  0.24294395891E+02  0.14482329500E+03  0.15472723535E+03  0.41800000000E+01 0.  1.
        -11    1    1    2    0    0 -0.68983874414E+02  0.44015844538E+02  0.42772945772E+03  0.43548669153E+03  0.00000000000E+00 0. -1.
         11    1    1    2    0    0  0.33964759050E+00 -0.34715592035E+02  0.20831283052E+03  0.21118599160E+03  0.00000000000E+00 0.  1.
</event>
<event>
 7    1  0.2855090E-009  0.2419754E+03  0.7561462E-02  0.1118484E+00
         -2   -1    0    0    0  501 -0.00000000000E+00  0.00000000000E+00  0.51854109567E+02  0.51854109567E+02  0.00000000000E+00 0.  1.
          2   -1    0    0  501    0  0.00000000000E+00 -0.00000000000E+00 -0.13875639882E+04  0.13875639882E+04  0.00000000000E+00 0. -1.
         25    2    1    2    0    0 -0.22224111130E+03  0.54584679813E+02 -0.92429144982E+03  0.96038131167E+03  0.12508789219E+03 0.  0.
          5    1    3    3  502    0 -0.97007502558E+02  0.66700222978E+02 -0.61975492116E+03  0.63085102045E+03  0.41800000000E+01 0. -1.
         -5    1    3    3    0  502 -0.12523360875E+03 -0.12115543165E+02 -0.30453652865E+03  0.32953029122E+03  0.41800000000E+01 0. -1.
        -11    1    1    2    0    0  0.81030686711E+02 -0.56934692367E+02 -0.21900433841E+03  0.24035480362E+03  0.00000000000E+00 0. -1.
         11    1    1    2    0    0  0.14121042459E+03  0.23500125545E+01 -0.19241409044E+03  0.23868198250E+03  0.00000000000E+00 0.  1.
</event>
<event>
 7    1  0.2855090E-009  0.9998266E+02  0.7561462E-02  0.1280332E+00
         -2   -1    0    0    0  501 -0.00000000000E+00  0.00000000000E+00  0.22081670227E+03  0.22081670227E+03  0.00000000000E+00 0.  1.
          2   -1    0    0  501    0  0.00000000000E+00 -0.00000000000E+00 -0.78405390125E+02  0.78405390125E+02  0.00000000000E+00 0. -1.
         25    2    1    2    0    0  0.94866527358E+01 -0.44196540662E+02  0.14856287194E+03  0.19940514469E+03  0.12509258182E+03 0.  0.
          5    1    3    3  502    0 -0.74781358814E+01 -0.82201176656E+02  0.62171070531E+02  0.10341987416E+03  0.41800000000E+01 0.  1.
         -5    1    3    3    0  502  0.16964788617E+02  0.38004635994E+02  0.86391801405E+02  0.95985270536E+02  0.41800000000E+01 0.  1.
        -11    1    1    2    0    0 -0.34349756394E+02  0.34837817377E+02 -0.35336861866E+02  0.60351247629E+02  0.00000000000E+00 0. -1.
         11    1    1    2    0    0  0.24863103658E+02  0.93587232858E+01  0.29185302076E+02  0.39465700074E+02  0.00000000000E+00 0.  1.
</event>
<event>
 7    1  0.2855090E-009  0.1294368E+03  0.7561462E-02  0.1228294E+00
          2   -1    0    0  501    0  0.00000000000E+00  0.00000000000E+00  0.11399073620E+04  0.11399073620E+04  0.00000000000E+00 0. -1.
         -2   -1    0    0    0  501 -0.00000000000E+00 -0.00000000000E+00 -0.22179400302E+02  0.22179400302E+02  0.00000000000E+00 0.  1.
         25    2    1    2    0    0 -0.29431461429E+02 -0.86111719050E+02  0.85217138661E+03  0.86609560288E+03  0.12507630504E+03 0.  0.
          5    1    3    3  502    0 -0.65574373709E+02 -0.80753516095E+02  0.43408612168E+03  0.44639597028E+03  0.41800000000E+01 0.  1.
         -5    1    3    3    0  502  0.36142912279E+02 -0.53582029548E+01  0.41808526493E+03  0.41969963260E+03  0.41800000000E+01 0.  1.
        -11    1    1    2    0    0  0.32058607380E+02  0.22261978098E+00  0.25329671991E+02  0.40858244577E+02  0.00000000000E+00 0.  1.
         11    1    1    2    0    0 -0.26271459502E+01  0.85889099269E+02  0.24022690312E+03  0.25513291488E+03  0.00000000000E+00 0. -1.
</event>
<event>
 7    1  0.2855090E-009  0.1559770E+03  0.7561462E-02  0.1193315E+00
          1   -1    0    0  501    0  0.00000000000E+00  0.00000000000E+00  0.14362072222E+04  0.14362072222E+04  0.00000000000E+00 0. -1.
         -1   -1    0    0    0  501 -0.00000000000E+00 -0.00000000000E+00 -0.26741703894E+02  0.26741703894E+02  0.00000000000E+00 0.  1.
         25    2    1    2    0    0 -0.13087932566E+03  0.31356227127E+02  0.10832686295E+04  0.10987405757E+04  0.12508924109E+03 0.  0.
          5    1    3    3  502    0 -0.13743421633E+03  0.58123130910E+02  0.99611530520E+03  0.10072386191E+04  0.41800000000E+01 0. -1.
         -5    1    3    3    0  502  0.65548906648E+01 -0.26766903784E+02  0.87153324273E+02  0.91501956600E+02  0.41800000000E+01 0. -1.
        -11    1    1    2    0    0  0.99486226021E+02 -0.20426708688E+02  0.12876441680E+03  0.16399705677E+03  0.00000000000E+00 0.  1.
         11    1    1    2    0    0  0.31393099643E+02 -0.10929518439E+02  0.19743247202E+03  0.20021129361E+03  0.00000000000E+00 0. -1.
</event>
<event>
 7    1  0.2855090E-009  0.9174729E+02  0.7561462E-02  0.1298675E+00
          2   -1    0    0  501    0  0.00000000000E+00  0.00000000000E+00  0.30134725814E+03  0.30134725814E+03  0.00000000000E+00 0. -1.
         -2   -1    0    0    0  501 -0.00000000000E+00 -0.00000000000E+00 -0.52296177898E+02  0.52296177898E+02  0.00000000000E+00 0.  1.
         25    2    1    2    0    0 -0.27365702547E+02 -0.47786652057E+02  0.95051486440E+02  0.16647774615E+03  0.12509040370E+03 0.  0.
          5    1    3    3  502    0 -0.39970719945E+02  0.82949697662E+00 -0.16977004714E+02  0.43635279387E+02  0.41800000000E+01 0.  1.
         -5    1    3    3    0  502  0.12605017399E+02 -0.48616149033E+02  0.11202849115E+03  0.12284246676E+03  0.41800000000E+01 0.  1.
        -11    1    1    2    0    0  0.25371839481E+02 -0.15401402487E+02  0.12537708021E+02  0.32219986959E+02  0.00000000000E+00 0. -1.
         11    1    1    2    0    0  0.19938630653E+01  0.63188054543E+02  0.14146188579E+03  0.15494570293E+03  0.00000000000E+00 0.  1.
</event>
<event>
 7    1  0.2855090E-009  0.8333201E+02  0.7561462E-02  0.1319853E+00
         -1   -1    0    0    0  501 -0.00000000000E+00  0.00000000000E+00  0.86209094118E+02  0.86209094118E+02  0.00000000000E+00 0.  1.
          1   -1    0    0  501    0  0.00000000000E+00 -0.00000000000E+00 -0.16638775463E+03  0.16638775463E+03  0.00000000000E+00 0. -1.
         25    2    1    2    0    0 -0.21728956719E+02  0.23798798503E+02 -0.35685108291E+02  0.13401429318E+03  0.12509146035E+03 0.  0.
          5    1    3    3  502    0 -0.37374021099E+02  0.14059189068E+02  0.39600768538E+02  0.56393009488E+02  0.41800000000E+01 0.  1.
         -5    1    3    3    0  502  0.15645064380E+02  0.97396094348E+01 -0.75285876829E+02  0.77621283688E+02  0.41800000000E+01 0.  1.
        -11    1    1    2    0    0  0.62736034060E+01  0.40757352458E+02 -0.29012787369E+02  0.50420845987E+02  0.00000000000E+00 0. -1.
         11    1    1    2    0    0  0.15455353313E+02 -0.64556150961E+02 -0.15480764848E+02  0.68161709583E+02  0.00000000000E+00 0.  1.
</event>
<event>
 7    1  0.2855090E-009  0.2970993E+03  0.7561462E-02  0.1086700E+00
         -2   -1    0    0    0  501 -0.00000000000E+00  0.00000000000E+00  0.10724961522E+04  0.10724961522E+04  0.00000000000E+00 0.  1.
          2   -1    0    0  501    0  0.00000000000E+00 -0.00000000000E+00 -0.10129979516E+03  0.10129979516E+03  0.00000000000E+00 0. -1.
         25    2    1    2    0    0  0.26571920240E+03  0.10315423311E+03  0.27236004757E+03  0.41361254434E+03  0.12509137054E+03 0.  0.
          5    1    3    3  502    0  0.19792771517E+03  0.11607148610E+03  0.25350361047E+03  0.34194959166E+03  0.41800000000E+01 0.  1.
         -5    1    3    3    0  502  0.67791487229E+02 -0.12917252986E+02  0.18856437107E+02  0.71662952672E+02  0.41800000000E+01 0.  1.
        -11    1    1    2    0    0 -0.15300627959E+03 -0.10005340796E+03  0.37306423034E+03  0.41544978757E+03  0.00000000000E+00 0. -1.
         11    1    1    2    0    0 -0.11271292282E+03 -0.31008251579E+01  0.32577207908E+03  0.34473361541E+03  0.00000000000E+00 0.  1.
</event>
<event>
 7    1  0.2855090E-009  0.1002963E+03  0.7561462E-02  0.1279674E+00
          1   -1    0    0  501    0  0.00000000000E+00  0.00000000000E+00  0.64885212188E+02  0.64885212188E+02  0.00000000000E+00 0. -1.
         -1   -1    0    0    0  501 -0.00000000000E+00 -0.00000000000E+00 -0.20235739057E+03  0.20235739057E+03  0.00000000000E+00 0.  1.
         25    2    1    2    0    0 -0.32845435871E+02 -0.10701318802E+02 -0.63268522377E+02  0.14437430497E+03  0.12509073959E+03 0.  0.
          5    1    3    3  502    0 -0.49349246699E+02  0.38310954984E+02 -0.67802570498E+02  0.92291594350E+02  0.41800000000E+01 0. -1.
         -5    1    3    3    0  502  0.16503810828E+02 -0.49012273786E+02  0.45340481215E+01  0.52082710623E+02  0.41800000000E+01 0. -1.
        -11    1    1    2    0    0  0.42299515694E+02 -0.25017952056E+02 -0.70214598212E+02  0.85704356687E+02  0.00000000000E+00 0.  1.
         11    1    1    2    0    0 -0.94540798227E+01  0.35719270858E+02 -0.39890577958E+01  0.37163941099E+02  0.00000000000E+00 0. -1.
</event>
<event>
 7    1  0.2855090E-009  0.2543786E+03  0.7561462E-02  0.1110569E+00
         -1   -1    0    0    0  501 -0.00000000000E+00  0.00000000000E+00  0.68265414589E+03  0.68265414589E+03  0.00000000000E+00 0.  1.
          1   -1    0    0  501    0  0.00000000000E+00 -0.00000000000E+00 -0.13038506446E+03  0.13038506446E+03  0.00000000000E+00 0. -1.
         25    2    1    2    0    0  0.23871066078E+03  0.13220091955E+02  0.47418518701E+03  0.54557923589E+03  0.12509021007E+03 0.  0.
          5    1    3    3  502    0  0.17893282113E+03 -0.45896486341E+02  0.30482584789E+03  0.35645436156E+03  0.41800000000E+01 0.  1.
         -5    1    3    3    0  502  0.59777839652E+02  0.59116578296E+02  0.16935933912E+03  0.18912487433E+03  0.41800000000E+01 0.  1.
        -11    1    1    2    0    0 -0.87775328658E+02  0.41708668593E+01 -0.15192722744E+02  0.89178042565E+02  0.00000000000E+00 0.  1.
         11    1    1    2    0    0 -0.15093533212E+03 -0.17390958814E+02  0.93276617166E+02  0.17828193190E+03  0.00000000000E+00 0. -1.
</event>
<event>
 7    1  0.2855090E-009  0.9778873E+02  0.7561462E-02  0.1285016E+00
         -2   -1    0    0    0  501 -0.00000000000E+00  0.00000000000E+00  0.64711317671E+02  0.64711317671E+02  0.00000000000E+00 0.  1.
          2   -1    0    0  501    0  0.00000000000E+00 -0.00000000000E+00 -0.24165122955E+03  0.24165122955E+03  0.00000000000E+00 0. -1.
         25    2    1    2    0    0  0.20365991334E+02 -0.32858072358E+02 -0.15973774343E+03  0.20653837719E+03  0.12509007976E+03 0.  0.
          5    1    3    3  502    0  0.55456211836E+02 -0.58969627242E+02 -0.72016568847E+02  0.10842816496E+03  0.41800000000E+01 0.  1.
         -5    1    3    3    0  502 -0.35090220502E+02  0.26111554884E+02 -0.87721174582E+02  0.98110212228E+02  0.41800000000E+01 0.  1.
        -11    1    1    2    0    0  0.10260878777E+02  0.38145599051E+02  0.25493915343E+02  0.47013956223E+02  0.00000000000E+00 0.  1.
         11    1    1    2    0    0 -0.30626870111E+02 -0.52875266925E+01 -0.42696083792E+02  0.52810213809E+02  0.00000000000E+00 0. -1.
</event>
<event>
 7    1  0.2855090E-009  0.1040840E+03  0.7561462E-02  0.1271935E+00
          1   -1    0    0  501    0  0.00000000000E+00  0.00000000000E+00  0.38889687112E+02  0.38889687112E+02  0.00000000000E+00 0. -1.
         -1   -1    0    0    0  501 -0.00000000000E+00 -0.00000000000E+00 -0.34755274403E+03  0.34755274403E+03  0.00000000000E+00 0.  1.
         25    2    1    2    0    0 -0.10833244930E+02 -0.35838815042E+02 -0.22521088665E+03  0.26032943561E+03  0.12509872790E+03 0.  0.
          5    1    3    3  502    0  0.34408139216E+02 -0.54605971491E+02 -0.18759330742E+03  0.19842997142E+03  0.41800000000E+01 0.  1.
         -5    1    3    3    0  502 -0.45241384146E+02  0.18767156450E+02 -0.37617579225E+02  0.61899464193E+02  0.41800000000E+01 0.  1.
        -11    1    1    2    0    0 -0.14861876235E+02 -0.24553708436E+02 -0.21509028381E+02  0.35866394649E+02  0.00000000000E+00 0.  1.
         11    1    1    2    0    0  0.25695121165E+02  0.60392523478E+02 -0.61943141884E+02  0.90246600878E+02  0.00000000000E+00 0. -1.
</event>
<event>
 7    1  0.2855090E-009  0.2132561E+03  0.7561462E-02  0.1139013E+00
         -2   -1    0    0    0  501 -0.00000000000E+00  0.00000000000E+00  0.22402915683E+03  0.22402915683E+03  0.00000000000E+00 0.  1.
          2   -1    0    0  501    0  0.00000000000E+00 -0.00000000000E+00 -0.46261493388E+03  0.46261493388E+03  0.00000000000E+00 0. -1.
         25    2    1    2    0    0 -0.11291938030E+03  0.14340045864E+03 -0.37736340818E+03  0.43745139464E+03  0.12508438295E+03 0.  0.
          5    1    3    3  502    0 -0.38361693087E+02  0.14015422566E+03 -0.26974671361E+03  0.30642387043E+03  0.41800000000E+01 0.  1.
         -5    1    3    3    0  502 -0.74557687214E+02  0.32462329796E+01 -0.10761669458E+03  0.13102752422E+03  0.41800000000E+01 0.  1.
        -11    1    1    2    0    0  0.10751248564E+03 -0.60589421692E+02  0.92009822222E+02  0.15393446649E+03  0.00000000000E+00 0.  1.
         11    1    1    2    0    0  0.54068946602E+01 -0.82811036945E+02  0.46767808907E+02  0.95258229565E+02  0.00000000000E+00 0. -1.
</event>
<event>
 7    1  0.2855090E-009  0.1612611E+03  0.7561462E-02  0.1187280E+00
         -1   -1    0    0    0  501 -0.00000000000E+00  0.00000000000E+00  0.53356779824E+02  0.53356779824E+02  0.00000000000E+00 0.  1.
          1   -1    0    0  501    0  0.00000000000E+00 -0.00000000000E+00 -0.57836933238E+03  0.57836933238E+03  0.00000000000E+00 0. -1.
         25    2    1    2    0    0  0.99320265525E+02 -0.92747257385E+02 -0.28075636133E+03  0.33606281182E+03  0.12509000826E+03 0.  0.
          5    1    3    3  502    0 -0.89059953684E+01 -0.46404845539E+02 -0.23120061705E+02  0.52770598786E+02  0.41800000000E+01 0. -1.
         -5    1    3    3    0  502  0.10822626089E+03 -0.46342411846E+02 -0.25763629963E+03  0.28329221304E+03  0.41800000000E+01 0. -1.
        -11    1    1    2    0    0 -0.10816897103E+03  0.60703773799E+02 -0.22583784823E+03  0.25765909287E+03  0.00000000000E+00 0. -1.
         11    1    1    2    0    0  0.88487055030E+01  0.32043483586E+02 -0.18418342987E+02  0.38004207501E+02  0.00000000000E+00 0.  1.
</event>
<event>
 7    1  0.2855090E-009  0.1396320E+03  0.7561462E-02  0.1213825E+00
          1   -1    0    0  501    0  0.00000000000E+00  0.00000000000E+00  0.65176708627E+03  0.65176708627E+03  0.00000000000E+00 0.  1.
         -1   -1    0    0    0  501 -0.00000000000E+00 -0.00000000000E+00 -0.34160533195E+02  0.34160533195E+02  0.00000000000E+00 0. -1.
         25    2    1    2    0    0 -0.96706892954E+02 -0.29851583798E+02  0.37242355218E+03  0.40569644793E+03  0.12508783094E+03 0.  0.
          5    1    3    3  502    0 -0.11514084466E+03 -0.40633877467E+02  0.36101328847E+03  0.38112542943E+03  0.41800000000E+01 0.  1.
         -5    1    3    3    0  502  0.18433951708E+02  0.10782293669E+02  0.11410263707E+02  0.24571018502E+02  0.41800000000E+01 0.  1.
        -11    1    1    2    0    0  0.22628245165E+02 -0.31748170585E+02  0.61544196245E+02  0.72853770706E+02  0.00000000000E+00 0. -1.
         11    1    1    2    0    0  0.74078647789E+02  0.61599754383E+02  0.18363880465E+03  0.20737740082E+03  0.00000000000E+00 0.  1.
</event>
<event>
 7    1  0.2855090E-009  0.1290183E+03  0.7561462E-02  0.1228920E+00
          2   -1    0    0  501    0  0.00000000000E+00  0.00000000000E+00  0.97438000467E+03  0.97438000467E+03  0.00000000000E+00 0. -1.
         -2   -1    0    0    0  501 -0.00000000000E+00 -0.00000000000E+00 -0.20028080899E+02  0.20028080899E+02  0.00000000000E+00 0.  1.
         25    2    1    2    0    0 -0.15939059171E+02  0.83916514940E+02  0.45218060716E+03  0.47687477069E+03  0.12508481261E+03 0.  0.
          5    1    3    3  502    0 -0.57659195980E+02  0.65357089051E+02  0.17095352921E+03  0.19193413849E+03  0.41800000000E+01 0.  1.
         -5    1    3    3    0  502  0.41720136810E+02  0.18559425889E+02  0.28122707795E+03  0.28494063220E+03  0.41800000000E+01 0.  1.
        -11    1    1    2    0    0  0.13363909937E+02  0.18310238214E+02  0.79581074956E+02  0.82746639831E+02  0.00000000000E+00 0. -1.
         11    1    1    2    0    0  0.25751492336E+01 -0.10222675315E+03  0.42259024166E+03  0.43478667505E+03  0.00000000000E+00 0.  1.
</event>
<event>
 7    1  0.2855090E-009  0.1309731E+03  0.7561462E-02  0.1226019E+00
          2   -1    0    0  501    0  0.00000000000E+00  0.00000000000E+00  0.22158580912E+03  0.22158580912E+03  0.00000000000E+00 0. -1.
         -2   -1    0    0    0  501 -0.00000000000E+00 -0.00000000000E+00 -0.85783242876E+02  0.85783242876E+02  0.00000000000E+00 0.  1.
         25    2    1    2    0    0  0.36713044747E+02  0.75900848882E+02  0.79471459977E+02  0.17052624965E+03  0.12511875300E+03 0.  0.
          5    1    3    3  502    0  0.55721792743E+02 -0.10387913071E+02  0.54186413011E+02  0.78526853238E+02  0.41800000000E+01 0. -1.
         -5    1    3    3    0  502 -0.19008747996E+02  0.86288761953E+02  0.25285046966E+02  0.91999396410E+02  0.41800000000E+01 0. -1.
        -11    1    1    2    0    0 -0.21792397193E+01 -0.81620598263E+02  0.15581926087E+02  0.83123207152E+02  0.00000000000E+00 0. -1.
         11    1    1    2    0    0 -0.34533805028E+02  0.57197493815E+01  0.40749180181E+02  0.53719595197E+02  0.00000000000E+00 0.  1.
</event>
<event>
 7    1  0.2855090E-009  0.1022916E+03  0.7561462E-02  0.1275550E+00
         -1   -1    0    0    0  501 -0.00000000000E+00  0.00000000000E+00  0.32964254709E+02  0.32964254709E+02  0.00000000000E+00 0.  1.
          1   -1    0    0  501    0  0.00000000000E+00 -0.00000000000E+00 -0.44411124426E+03  0.44411124426E+03  0.00000000000E+00 0. -1.
         25    2    1    2    0    0 -0.15973916696E+02  0.42047870609E+02 -0.17253859142E+03  0.21780851512E+03  0.12509114394E+03 0.  0.
          5    1    3    3  502    0 -0.32495593935E+02  0.73356879595E+02 -0.16168574401E+03  0.18054624789E+03  0.41800000000E+01 0. -1.
         -5    1    3    3    0  502  0.16521677239E+02 -0.31309008986E+02 -0.10852847406E+02  0.37262267232E+02  0.41800000000E+01 0. -1.
        -11    1    1    2    0    0  0.35636554452E+02 -0.54648859744E+02 -0.21980834436E+03  0.22928621881E+03  0.00000000000E+00 0. -1.
         11    1    1    2    0    0 -0.19662637756E+02  0.12600989135E+02 -0.18800053773E+02  0.29980765044E+02  0.00000000000E+00 0.  1.
</event>
<event>
 7    1  0.3555170E-009  0.3095058E+03  0.7561462E-02  0.1080583E+00
          2   -1    0    0  501    0  0.00000000000E+00  0.00000000000E+00  0.28629695245E+04  0.28629695245E+04  0.00000000000E+00 0. -1.
         -2   -1    0    0    0  501 -0.00000000000E+00 -0.00000000000E+00 -0.35465879819E+02  0.35465879819E+02  0.00000000000E+00 0.  1.
         25    2    1    2    0    0 -0.19051960564E+03 -0.23055379563E+03  0.14024671696E+04  0.14394498479E+04  0.12509568400E+03 0.  0.
          5    1    3    3  502    0 -0.85390941390E+01 -0.46030910039E+02  0.88967336592E+02  0.10062017784E+03  0.41800000000E+01 0. -1.
         -5    1    3    3    0  502 -0.18198051150E+03 -0.18452288559E+03  0.13134998330E+04  0.13388296701E+04  0.41800000000E+01 0. -1.
        -11    1    1    2    0    0  0.17823288634E+02  0.85328154297E+02  0.41327881720E+03  0.42237180811E+03  0.00000000000E+00 0.  1.
         11    1    1    2    0    0  0.17269631700E+03  0.14522564133E+03  0.10117576579E+04  0.10366137483E+04  0.00000000000E+00 0. -1.
</event>
<event>
 7    1  0.2855090E-009  0.9110086E+02  0.7561462E-02  0.1300207E+00
          2   -1    0    0  501    0  0.00000000000E+00  0.00000000000E+00  0.34266390608E+03  0.34266390608E+03  0.00000000000E+00 0. -1.
         -2   -1    0    0    0  501 -0.00000000000E+00 -0.00000000000E+00 -0.50085389122E+02  0.50085389122E+02  0.00000000000E+00 0.  1.
         25    2    1    2    0    0  0.43703777924E+02 -0.47702458685E+02  0.21378214123E+03  0.25599730030E+03  0.12508504739E+03 0.  0.
          5    1    3    3  502    0  0.25130463454E+02  0.51701938282E+01  0.19503094233E+03  0.19675571647E+03  0.41800000000E+01 0. -1.
         -5    1    3    3    0  502  0.18573314470E+02 -0.52872652514E+02  0.18751198904E+02  0.59241583829E+02  0.41800000000E+01 0. -1.
        -11    1    1    2    0    0  0.18684874157E+02 -0.38517649343E+01  0.45314137566E+02  0.49166367353E+02  0.00000000000E+00 0. -1.
         11    1    1    2    0    0 -0.62388652081E+02  0.51554223620E+02  0.33482238162E+02  0.87585627553E+02  0.00000000000E+00 0.  1.
</event>
<event>
 7    1  0.2855090E-009  0.1408851E+03  0.7561462E-02  0.1212143E+00
          2   -1    0    0  501    0  0.00000000000E+00  0.00000000000E+00  0.38718095241E+03  0.38718095241E+03  0.00000000000E+00 0. -1.
         -2   -1    0    0    0  501 -0.00000000000E+00 -0.00000000000E+00 -0.74248867893E+02  0.74248867893E+02  0.00000000000E+00 0.  1.
         25    2    1    2    0    0  0.55029126233E+02  0.99574207200E+02  0.25342396420E+03  0.30465358867E+03  0.12508747334E+03 0.  0.
          5    1    3    3  502    0  0.82953965464E+02  0.33238672283E+02  0.94439733623E+02  0.13008653046E+03  0.41800000000E+01 0. -1.
         -5    1    3    3    0  502 -0.27924839231E+02  0.66335534918E+02  0.15898423058E+03  0.17456705821E+03  0.41800000000E+01 0. -1.
        -11    1    1    2    0    0 -0.58892103588E+02 -0.75111555547E+02  0.34700343384E+01  0.95509511464E+02  0.00000000000E+00 0. -1.
         11    1    1    2    0    0  0.38629773550E+01 -0.24462651653E+02  0.56038085980E+02  0.61266720169E+02  0.00000000000E+00 0.  1.
</event>
<event>
 7    1  0.2855090E-009  0.1234572E+03  0.7561462E-02  0.1237500E+00
          2   -1    0    0  501    0  0.00000000000E+00  0.00000000000E+00  0.54824679958E+03  0.54824679958E+03  0.00000000000E+00 0. -1.
         -2   -1    0    0    0  501 -0.00000000000E+00 -0.00000000000E+00 -0.31521683736E+02  0.31521683736E+02  0.00000000000E+00 0.  1.
         25    2    1    2    0    0  0.33730435912E+02 -0.62224758641E+02  0.32684354846E+03  0.35704624096E+03  0.12508257319E+03 0.  0.
          5    1    3    3  502    0 -0.37992213472E+02 -0.46034734377E+02  0.21470795119E+03  0.22288916923E+03  0.41800000000E+01 0. -1.
         -5    1    3    3    0  502  0.71722649384E+02 -0.16190024264E+02  0.11213559727E+03  0.13415707173E+03  0.41800000000E+01 0. -1.
        -11    1    1    2    0    0  0.29603983577E+02  0.30844653267E+02  0.48475694919E+02  0.64634986475E+02  0.00000000000E+00 0. -1.
         11    1    1    2    0    0 -0.63334419489E+02  0.31380105373E+02  0.14140587247E+03  0.15808725588E+03  0.00000000000E+00 0.  1.
</event>
<event>
 7    1  0.2855090E-009  0.1253116E+03  0.7561462E-02  0.1234583E+00
          2   -1    0    0  501    0  0.00000000000E+00  0.00000000000E+00  0.38680584899E+03  0.38680584899E+03  0.00000000000E+00 0.  1.
         -2   -1    0    0    0  501 -0.00000000000E+00 -0.00000000000E+00 -0.56941540938E+02  0.56941540938E+02  0.00000000000E+00 0. -1.
         25    2    1    2    0    0 -0.58452416963E+01  0.95863211226E+02  0.22364142700E+03  0.27365509655E+03  0.12509077457E+03 0.  0.
          5    1    3    3  502    0  0.24489513612E+02  0.76340741007E+01  0.15647475903E+03  0.15861852974E+03  0.41800000000E+01 0.  1.
         -5    1    3    3    0  502 -0.30334755308E+02  0.88229137125E+02  0.67166667968E+02  0.11503656681E+03  0.41800000000E+01 0.  1.
        -11    1    1    2    0    0  0.36537860188E+02 -0.93584198778E+02  0.91856445636E+02  0.13612723494E+03  0.00000000000E+00 0.  1.
         11    1    1    2    0    0 -0.30692618492E+02 -0.22790124475E+01  0.14366435414E+02  0.33965058430E+02  0.00000000000E+00 0. -1.
</event>
<event>
 7    1  0.2855090E-009  0.1005307E+03  0.7561462E-02  0.1279184E+00
          1   -1    0    0  501    0  0.00000000000E+00  0.00000000000E+00  0.77807788859E+02  0.77807788859E+02  0.00000000000E+00 0. -1.
         -1   -1    0    0    0  501 -0.00000000000E+00 -0.00000000000E+00 -0.16506060503E+03  0.16506060503E+03  0.00000000000E+00 0.  1.
         25    2    1    2    0    0 -0.35581846262E+02  0.94033388939E+01 -0.45132238088E+02  0.13798534280E+03  0.12509414594E+03 0.  0.
          5    1    3    3  502    0  0.28055289493E+02 -0.39996127777E+02 -0.10226342804E+02  0.50088321921E+02  0.41800000000E+01 0. -1.
         -5    1    3    3    0  502 -0.63637135754E+02  0.49399466671E+02 -0.34905895285E+02  0.87897020882E+02  0.41800000000E+01 0. -1.
        -11    1    1    2    0    0  0.22807068874E+02  0.25488313912E+02  0.14508162044E+02  0.37152433334E+02  0.00000000000E+00 0. -1.
         11    1    1    2    0    0  0.12774777387E+02 -0.34891652806E+02 -0.56628740124E+02  0.67730617750E+02  0.00000000000E+00 0.  1.
</event>
<event>
 7    1  0.2855090E-009  0.8647012E+02  0.7561462E-02  0.1311632E+00
          2   -1    0    0  501    0  0.00000000000E+00  0.00000000000E+00  0.68814181002E+02  0.68814181002E+02  0.00000000000E+00 0. -1.
         -2   -1    0    0    0  501 -0.00000000000E+00 -0.00000000000E+00 -0.20314146831E+03  0.20314146831E+03  0.00000000000E+00 0.  1.
         25    2    1    2    0    0 -0.43019324925E+02 -0.71495910555E+01 -0.46045831316E+02  0.14025036494E+03  0.12509263494E+03 0.  0.
          5    1    3    3  502    0 -0.78733869125E+02 -0.12320582348E+02 -0.61521674909E+02  0.10076312709E+03  0.41800000000E+01 0. -1.
         -5    1    3    3    0  502  0.35714544201E+02  0.51709912926E+01  0.15475843593E+02  0.39487237854E+02  0.41800000000E+01 0. -1.
        -11    1    1    2    0    0  0.37116833663E+02 -0.10192927929E+02  0.29962041115E+01  0.38607413278E+02  0.00000000000E+00 0. -1.
         11    1    1    2    0    0  0.59024912612E+01  0.17342518984E+02 -0.91277660107E+02  0.93097871095E+02  0.00000000000E+00 0.  1.
</event>
<event>
 7    1  0.2855090E-009  0.9170319E+02  0.7561462E-02  0.1298779E+00
          1   -1    0    0  501    0  0.00000000000E+00  0.00000000000E+00  0.58157787786E+02  0.58157787786E+02  0.00000000000E+00 0. -1.
         -1   -1    0    0    0  501 -0.00000000000E+00 -0.00000000000E+00 -0.26616326916E+03  0.26616326916E+03  0.00000000000E+00 0.  1.
         25    2    1    2    0    0  0.36705680604E+02  0.48194764176E+02 -0.11843247891E+03  0.18260400429E+03  0.12509167853E+03 0.  0.
          5    1    3    3  502    0  0.58739349952E+02  0.54052993662E+02 -0.21271335008E+02  0.82716258678E+02  0.41800000000E+01 0. -1.
         -5    1    3    3    0  502 -0.22033669348E+02 -0.58582294857E+01 -0.97161143905E+02  0.99887745608E+02  0.41800000000E+01 0. -1.
        -11    1    1    2    0    0 -0.33742666611E+02 -0.59610925798E+02 -0.10309346625E+03  0.12377517040E+03  0.00000000000E+00 0.  1.
         11    1    1    2    0    0 -0.29630139924E+01  0.11416161622E+02  0.13520463786E+02  0.17941882261E+02  0.00000000000E+00 0. -1.
</event>
<event>
 7    1  0.2855090E-009  0.7165995E+02  0.7561462E-02  0.1354538E+00
          1   -1    0    0  501    0  0.00000000000E+00  0.00000000000E+00  0.96588829190E+02  0.96588829190E+02  0.00000000000E+00 0. -1.
         -1   -1    0    0    0  501 -0.00000000000E+00 -0.00000000000E+00 -0.15177357596E+03  0.15177357596E+03  0.00000000000E+00 0.  1.
         25    2    1    2    0    0  0.80849028496E+00  0.27810705302E+02  0.28189641315E+02  0.13121099250E+03  0.12509028615E+03 0.  0.
          5    1    3    3  502    0  0.38247756209E+02  0.22832377303E+02 -0.35455068437E+02  0.57085397311E+02  0.41800000000E+01 0. -1.
         -5    1    3    3    0  502 -0.37439265924E+02  0.49783279992E+01  0.63644709752E+02  0.74125595188E+02  0.41800000000E+01 0. -1.
        -11    1    1    2    0    0 -0.84984222027E+01  0.14916008216E+02  0.56770033730E+01  0.18081450393E+02  0.00000000000E+00 0. -1.
         11    1    1    2    0    0  0.76899319177E+01 -0.42726713518E+02 -0.89051391454E+02  0.99069962253E+02  0.00000000000E+00 0.  1.
</event>
<event>
 7    1  0.2855090E-009  0.1078811E+03  0.7561462E-02  0.1264545E+00
          2   -1    0    0  501    0  0.00000000000E+00  0.00000000000E+00  0.30846385634E+03  0.30846385634E+03  0.00000000000E+00 0. -1.
         -2   -1    0    0    0  501 -0.00000000000E+00 -0.00000000000E+00 -0.57088322618E+02  0.57088322618E+02  0.00000000000E+00 0.  1.
         25    2    1    2    0    0  0.69719760934E+02  0.36910442092E+02  0.14803171651E+03  0.20924570445E+03  0.12508856838E+03 0.  0.
          5    1    3    3  502    0  0.77722022877E+02  0.54185410036E+02  0.46066552047E+02  0.10543420279E+03  0.41800000000E+01 0.  1.
         -5    1    3    3    0  502 -0.80022619428E+01 -0.17274967944E+02  0.10196516446E+03  0.10381150166E+03  0.41800000000E+01 0.  1.
        -11    1    1    2    0    0 -0.29354759783E+02 -0.50861237883E+02  0.96628990837E+02  0.11307399927E+03  0.00000000000E+00 0.  1.
         11    1    1    2    0    0 -0.40365001151E+02  0.13950795791E+02  0.67148263706E+01  0.43232475228E+02  0.00000000000E+00 0. -1.
</event>
<event>
 7    1  0.2855090E-009  0.9843280E+02  0.7561462E-02  0.1283626E+00
          2   -1    0    0  501    0  0.00000000000E+00  0.00000000000E+00  0.19806279394E+03  0.19806279394E+03  0.00000000000E+00 0. -1.
         -2   -1    0    0    0  501 -0.00000000000E+00 -0.00000000000E+00 -0.11251204867E+03  0.11251204867E+03  0.00000000000E+00 0.  1.
         25    2    1    2    0    0  0.54075581693E+02  0.68170480411E+02 -0.12136685428E+02  0.15285853523E+03  0.12508816781E+03 0.  0.
          5    1    3    3  502    0  0.64887709838E+02  0.64945799773E+02  0.39359712949E+02  0.99975152911E+02  0.41800000000E+01 0. -1.
         -5    1    3    3    0  502 -0.10812128145E+02  0.32246806383E+01 -0.51496398376E+02  0.52883382324E+02  0.41800000000E+01 0. -1.
        -11    1    1    2    0    0 -0.32026717663E+02 -0.62402743811E+02  0.14711805675E+02  0.71667637784E+02  0.00000000000E+00 0.  1.
         11    1    1    2    0    0 -0.22048864030E+02 -0.57677366008E+01  0.82975625027E+02  0.86048669595E+02  0.00000000000E+00 0. -1.
</event>
<event>
 7    1  0.2855090E-009  0.1313205E+03  0.7561462E-02  0.1225509E+00
          2   -1    0    0  501    0  0.00000000000E+00  0.00000000000E+00  0.82919391737E+03  0.82919391737E+03  0.00000000000E+00 0. -1.
         -2   -1    0    0    0  501 -0.00000000000E+00 -0.00000000000E+00 -0.25028446902E+02  0.25028446902E+02  0.00000000000E+00 0.  1.
         25    2    1    2    0    0 -0.70205037609E+02 -0.58569739608E+02  0.50209529092E+03  0.52545803149E+03  0.12508916815E+03 0.  0.
          5    1    3    3  502    0 -0.36031689310E+02 -0.96364729374E+02  0.30868972745E+03  0.32540937899E+03  0.41800000000E+01 0. -1.
         -5    1    3    3    0  502 -0.34173348299E+02  0.37794989766E+02  0.19340556347E+03  0.20004865250E+03  0.41800000000E+01 0. -1.
        -11    1    1    2    0    0  0.54381907263E+02  0.70281690878E+02  0.29459595647E+03  0.30770714239E+03  0.00000000000E+00 0.  1.
         11    1    1    2    0    0  0.15823130346E+02 -0.11711951270E+02  0.74742230756E+01  0.21057190389E+02  0.00000000000E+00 0. -1.
</event>
<event>
 7    1  0.2855090E-009  0.9088804E+02  0.7561462E-02  0.1300715E+00
         -3   -1    0    0    0  501 -0.00000000000E+00  0.00000000000E+00  0.43276386295E+02  0.43276386295E+02  0.00000000000E+00 0.  1.
          3   -1    0    0  501    0  0.00000000000E+00 -0.00000000000E+00 -0.31122984322E+03  0.31122984322E+03  0.00000000000E+00 0. -1.
         25    2    1    2    0    0  0.14012550628E+02 -0.31979540538E+02 -0.13307260321E+03  0.18594301587E+03  0.12508974712E+03 0.  0.
          5    1    3    3  502    0  0.62383143826E+02 -0.22147011477E+02 -0.11585600510E+03  0.13349993658E+03  0.41800000000E+01 0.  1.
         -5    1    3    3    0  502 -0.48370593197E+02 -0.98325290611E+01 -0.17216598116E+02  0.52443079283E+02  0.41800000000E+01 0.  1.
        -11    1    1    2    0    0 -0.34126630661E+02  0.88453351125E+01 -0.13328220906E+03  0.13786592808E+03  0.00000000000E+00 0. -1.
         11    1    1    2    0    0  0.20114080033E+02  0.23134205425E+02 -0.15986446465E+01  0.30697285563E+02  0.00000000000E+00 0.  1.
</event>
<event>
 7    1  0.3313568E-009  0.9513056E+02  0.7561462E-02  0.1290882E+00
         -1   -1    0    0    0  501 -0.00000000000E+00  0.00000000000E+00  0.26639875798E+03  0.26639875798E+03  0.00000000000E+00 0.  1.
          1   -1    0    0  501    0  0.00000000000E+00 -0.00000000000E+00 -0.56513228692E+02  0.56513228692E+02  0.00000000000E+00 0. -1.
         25    2    1    2    0    0 -0.24710689865E+02  0.49251288510E+02  0.96428782807E+02  0.16728134235E+03  0.12509288442E+03 0.  0.
          5    1    3    3  502    0 -0.10439012900E+02 -0.40244734168E+02  0.12311082744E+02  0.43561987753E+02  0.41800000000E+01 0.  1.
         -5    1    3    3    0  502 -0.14271676965E+02  0.89496022678E+02  0.84117700063E+02  0.12371935460E+03  0.41800000000E+01 0.  1.
        -11    1    1    2    0    0  0.41978401058E+01 -0.27634117535E+02  0.12157278847E+03  0.12474457587E+03  0.00000000000E+00 0.  1.
         11    1    1    2    0    0  0.20512849759E+02 -0.21617170975E+02 -0.81160419937E+01  0.30886068442E+02  0.00000000000E+00 0. -1.
</event>
<event>
 7    1  0.2855090E-009  0.9394008E+02  0.7561462E-02  0.1293581E+00
          4   -1    0    0  501    0  0.00000000000E+00  0.00000000000E+00  0.21348360628E+03  0.21348360628E+03  0.00000000000E+00 0. -1.
         -4   -1    0    0    0  501 -0.00000000000E+00 -0.00000000000E+00 -0.89857734680E+02  0.89857734680E+02  0.00000000000E+00 0.  1.
         25    2    1    2    0    0  0.22761910337E+02  0.71622319482E+02  0.11333351031E+03  0.18477233475E+03  0.12509384445E+03 0.  0.
          5    1    3    3  502    0 -0.30105435760E+02  0.33715013175E+02 -0.88866962605E+01  0.46254568922E+02  0.41800000000E+01 0.  1.
         -5    1    3    3    0  502  0.52867346097E+02  0.37907306306E+02  0.12222020657E+03  0.13851776583E+03  0.41800000000E+01 0.  1.
        -11    1    1    2    0    0 -0.58932715879E+01 -0.47502540828E+02  0.49949864203E+02  0.69182446972E+02  0.00000000000E+00 0. -1.
         11    1    1    2    0    0 -0.16868638750E+02 -0.24119778654E+02 -0.39657502919E+02  0.49386559237E+02  0.00000000000E+00 0.  1.
</event>
<event>
 7    1  0.2855090E-009  0.1672825E+03  0.7561462E-02  0.1180712E+00
         -2   -1    0    0    0  501 -0.00000000000E+00  0.00000000000E+00  0.68398740603E+02  0.68398740603E+02  0.00000000000E+00 0.  1.
          2   -1    0    0  501    0  0.00000000000E+00 -0.00000000000E+00 -0.69984665024E+03  0.69984665024E+03  0.00000000000E+00 0. -1.
         25    2    1    2    0    0 -0.81882175162E+02 -0.14356924136E+03 -0.16518764352E+03  0.26504751087E+03  0.12508560178E+03 0.  0.
          5    1    3    3  502    0 -0.85363177125E+01 -0.34737756268E+02  0.17520735303E+02  0.40050330787E+02  0.41800000000E+01 0. -1.
         -5    1    3    3    0  502 -0.73345857449E+02 -0.10883148509E+03 -0.18270837882E+03  0.22499718008E+03  0.41800000000E+01 0. -1.
        -11    1    1    2    0    0  0.18238545632E+01  0.19514047997E+02 -0.70379916128E+01  0.20824452949E+02  0.00000000000E+00 0.  1.
         11    1    1    2    0    0  0.80058320599E+02  0.12405519336E+03 -0.45922227451E+03  0.48237342703E+03  0.00000000000E+00 0. -1.
</event>
<event>
 7    1  0.2855090E-009  0.1040742E+03  0.7561462E-02  0.1271954E+00
          2   -1    0    0  501    0  0.00000000000E+00  0.00000000000E+00  0.44629774142E+02  0.44629774142E+02  0.00000000000E+00 0.  1.
         -2   -1    0    0    0  501 -0.00000000000E+00 -0.00000000000E+00 -0.32142817275E+03  0.32142817275E+03  0.00000000000E+00 0. -1.
         25    2    1    2    0    0  0.40125715208E+02  0.12353820335E+01 -0.80956279154E+02  0.15431600904E+03  0.12509161572E+03 0.  0.
          5    1    3    3  502    0  0.38800389338E+02 -0.59083963575E+02 -0.40838556965E+02  0.81741330424E+02  0.41800000000E+01 0.  1.
         -5    1    3    3    0  502  0.13253258700E+01  0.60319345608E+02 -0.40117722188E+02  0.72574678620E+02  0.41800000000E+01 0.  1.
        -11    1    1    2    0    0 -0.20937065214E+02 -0.33392941818E+02 -0.13167242890E+03  0.13744481727E+03  0.00000000000E+00 0. -1.
         11    1    1    2    0    0 -0.19188649994E+02  0.32157559785E+02 -0.64169690558E+02  0.74297120578E+02  0.00000000000E+00 0.  1.
</event>
<event>
 7    1  0.2855090E-009  0.8372770E+02  0.7561462E-02  0.1318794E+00
          1   -1    0    0  501    0  0.00000000000E+00  0.00000000000E+00  0.85544800203E+02  0.85544800203E+02  0.00000000000E+00 0. -1.
         -1   -1    0    0    0  501 -0.00000000000E+00 -0.00000000000E+00 -0.15914186739E+03  0.15914186739E+03  0.00000000000E+00 0.  1.
         25    2    1    2    0    0 -0.20971692653E+02 -0.37482726134E+02 -0.38354846418E+02  0.13770750001E+03  0.12508994630E+03 0.  0.
          5    1    3    3  502    0  0.10236976529E+02  0.11396029163E+02  0.38320556038E+02  0.41480146868E+02  0.41800000000E+01 0. -1.
         -5    1    3    3    0  502 -0.31208669182E+02 -0.48878755297E+02 -0.76675402456E+02  0.96227353145E+02  0.41800000000E+01 0. -1.
        -11    1    1    2    0    0  0.20318550511E+02 -0.24284226776E+02 -0.32160946487E+02  0.45131958122E+02  0.00000000000E+00 0.  1.
         11    1    1    2    0    0  0.65314214209E+00  0.61766952910E+02 -0.30812742812E+01  0.61847209457E+02  0.00000000000E+00 0. -1.
</event>
<event>
 7    1  0.2855090E-009  0.1172575E+03  0.7561462E-02  0.1247691E+00
         -2   -1    0    0    0  501 -0.00000000000E+00  0.00000000000E+00  0.40941916942E+03  0.40941916942E+03  0.00000000000E+00 0.  1.
          2   -1    0    0  501    0  0.00000000000E+00 -0.00000000000E+00 -0.49445434127E+02  0.49445434127E+02  0.00000000000E+00 0. -1.
         25    2    1    2    0    0  0.39189217509E+02 -0.40451541641E+02  0.79309253510E+02  0.15845944067E+03  0.12508922677E+03 0.  0.
          5    1    3    3  502    0 -0.21000392482E+02  0.30277077448E+02  0.47370643036E+02  0.60159522312E+02  0.41800000000E+01 0. -1.
         -5    1    3    3    0  502  0.60189609992E+02 -0.70728619089E+02  0.31938610475E+02  0.98299918353E+02  0.41800000000E+01 0. -1.
        -11    1    1    2    0    0  0.27930927559E+02  0.19808189763E+02  0.63149693203E+02  0.71835818695E+02  0.00000000000E+00 0. -1.
         11    1    1    2    0    0 -0.67120145068E+02  0.20643351879E+02  0.21751478858E+03  0.22856934418E+03  0.00000000000E+00 0.  1.
</event>
<event>
 7    1  0.2855090E-009  0.1272328E+03  0.7561462E-02  0.1231620E+00
         -1   -1    0    0    0  501 -0.00000000000E+00  0.00000000000E+00  0.32559163203E+03  0.32559163203E+03  0.00000000000E+00 0.  1.
          1   -1    0    0  501    0  0.00000000000E+00 -0.00000000000E+00 -0.73106669009E+02  0.73106669009E+02  0.00000000000E+00 0. -1.
         25    2    1    2    0    0  0.82628851609E+02 -0.72304375442E+02  0.13388149370E+03  0.21360599907E+03  0.12509124132E+03 0.  0.
          5    1    3    3  502    0  0.35182797868E+01 -0.14309283107E+02 -0.23535721853E+02  0.28080891703E+02  0.41800000000E+01 0.  1.
         -5    1    3    3    0  502  0.79110571822E+02 -0.57995092336E+02  0.15741721555E+03  0.18552510736E+03  0.41800000000E+01 0.  1.
        -11    1    1    2    0    0 -0.80971494531E+02  0.91224045521E+02  0.10996842452E+03  0.16422930250E+03  0.00000000000E+00 0.  1.
         11    1    1    2    0    0 -0.16573570779E+01 -0.18919670078E+02  0.86350447984E+01  0.20862999473E+02  0.00000000000E+00 0. -1.
</event>
<event>
 7    1  0.2855090E-009  0.1339588E+03  0.7561462E-02  0.1221697E+00
          1   -1    0    0  501    0  0.00000000000E+00  0.00000000000E+00  0.47764469419E+03  0.47764469419E+03  0.00000000000E+00 0. -1.
         -1   -1    0    0    0  501 -0.00000000000E+00 -0.00000000000E+00 -0.55534313947E+02  0.55534313947E+02  0.00000000000E+00 0.  1.
         25    2    1    2    0    0  0.10521401273E+03  0.51370227586E+02  0.18094994846E+03  0.24919622551E+03  0.12508791389E+03 0.  0.
          5    1    3    3  502    0  0.46993100403E+02  0.32459714592E+02 -0.90035213700E+00  0.57273620375E+02  0.41800000000E+01 0.  1.
         -5    1    3    3    0  502  0.58220912330E+02  0.18910512994E+02  0.18185030059E+03  0.19192260513E+03  0.41800000000E+01 0.  1.
        -11    1    1    2    0    0 -0.11714379407E+02 -0.54496763796E+02  0.77376371244E+02  0.95363655425E+02  0.00000000000E+00 0.  1.
         11    1    1    2    0    0 -0.93499633326E+02  0.31265362097E+01  0.16378406054E+03  0.18861912721E+03  0.00000000000E+00 0. -1.
</event>
<event>
 7    1  0.2855090E-009  0.1353817E+03  0.7561462E-02  0.1219682E+00
          2   -1    0    0  501    0  0.00000000000E+00  0.00000000000E+00  0.71312793596E+03  0.71312793596E+03  0.00000000000E+00 0. -1.
         -2   -1    0    0    0  501 -0.00000000000E+00 -0.00000000000E+00 -0.34375438477E+02  0.34375438477E+02  0.00000000000E+00 0.  1.
         25    2    1    2    0    0 -0.77851222998E+02  0.70879376160E+02  0.27009770317E+03  0.31573006494E+03  0.12509198919E+03 0.  0.
          5    1    3    3  502    0 -0.48068748210E+01 -0.19057601921E+02 -0.17716807465E+01  0.20171997650E+02  0.41800000000E+01 0. -1.
         -5    1    3    3    0  502 -0.73044348177E+02  0.89936978081E+02  0.27186938392E+03  0.29555806729E+03  0.41800000000E+01 0. -1.
        -11    1    1    2    0    0  0.25171621425E+02  0.18323604150E+02  0.54378815480E+02  0.62661156765E+02  0.00000000000E+00 0.  1.
         11    1    1    2    0    0  0.52679601573E+02 -0.89202980310E+02  0.35427597883E+03  0.36911215273E+03  0.00000000000E+00 0. -1.
</event>
<event>
 7    1  0.2855090E-009  0.1051819E+03  0.7561462E-02  0.1269762E+00
          2   -1    0    0  501    0  0.00000000000E+00  0.00000000000E+00  0.22792913011E+03  0.22792913011E+03  0.00000000000E+00 0. -1.
         -2   -1    0    0    0  501 -0.00000000000E+00 -0.00000000000E+00 -0.92306026426E+02  0.92306026426E+02  0.00000000000E+00 0.  1.
         25    2    1    2    0    0  0.46161793301E+02  0.85942823357E+02  0.59162396126E+02  0.16930237470E+03  0.12508407140E+03 0.  0.
          5    1    3    3  502    0  0.10498469476E+02  0.32995525979E+02 -0.38881880907E+02  0.52232132436E+02  0.41800000000E+01 0.  1.
         -5    1    3    3    0  502  0.35663323825E+02  0.52947297378E+02  0.98044277033E+02  0.11707024227E+03  0.41800000000E+01 0.  1.
        -11    1    1    2    0    0  0.12399807200E+02 -0.17265253901E+02 -0.12121462716E+02  0.24469860426E+02  0.00000000000E+00 0.  1.
         11    1    1    2    0    0 -0.58561600501E+02 -0.68677569456E+02  0.88582170272E+02  0.12646292140E+03  0.00000000000E+00 0. -1.
</event>
<event>
 7    1  0.2855090E-009  0.1369258E+03  0.7561462E-02  0.1217526E+00
          2   -1    0    0  501    0  0.00000000000E+00  0.00000000000E+00  0.18298390417E+02  0.18298390417E+02  0.00000000000E+00 0. -1.
         -2   -1    0    0    0  501 -0.00000000000E+00 -0.00000000000E+00 -0.12516131708E+04  0.12516131708E+04  0.00000000000E+00 0.  1.
         25    2    1    2    0    0 -0.10309335301E+03 -0.20614229509E+02 -0.62150731732E+03  0.64262768245E+03  0.12508319980E+03 0.  0.
          5    1    3    3  502    0  0.21505847181E+02 -0.11363692491E+02 -0.23761944074E+03  0.23889768938E+03  0.41800000000E+01 0.  1.
         -5    1    3    3    0  502 -0.12459920019E+03 -0.92505370174E+01 -0.38388787658E+03  0.40372999307E+03  0.41800000000E+01 0.  1.
        -11    1    1    2    0    0  0.93876889936E+02 -0.78846381243E+01 -0.55620910758E+03  0.56413084417E+03  0.00000000000E+00 0.  1.
         11    1    1    2    0    0  0.92164630712E+01  0.28498867633E+02 -0.55598355513E+02  0.63153034636E+02  0.00000000000E+00 0. -1.
</event>
<event>
 7    1  0.3272559E-009  0.5882036E+02  0.7561462E-02  0.1402850E+00
          2   -1    0    0  501    0  0.00000000000E+00  0.00000000000E+00  0.17306930304E+03  0.17306930304E+03  0.00000000000E+00 0. -1.
         -2   -1    0    0    0  501 -0.00000000000E+00 -0.00000000000E+00 -0.84712586269E+02  0.84712586269E+02  0.00000000000E+00 0.  1.
         25    2    1    2    0    0  0.53702545538E+01 -0.53075508368E+02  0.41341701467E+02  0.14213632624E+03  0.12509096584E+03 0.  0.
          5    1    3    3  502    0  0.15136025449E+02 -0.39552928459E+02 -0.40356173405E+02  0.58648329456E+02  0.41800000000E+01 0. -1.
         -5    1    3    3    0  502 -0.97657708956E+01 -0.13522579909E+02  0.81697874872E+02  0.83487996785E+02  0.41800000000E+01 0. -1.
        -11    1    1    2    0    0  0.73753979066E+01  0.73202378242E+01 -0.26306208998E+02  0.28284253710E+02  0.00000000000E+00 0.  1.
         11    1    1    2    0    0 -0.12745652460E+02  0.45755270544E+02  0.73321224300E+02  0.87361309354E+02  0.00000000000E+00 0. -1.
</event>
<event>
 7    1  0.2855090E-009  0.7287431E+02  0.7561462E-02  0.1350583E+00
          2   -1    0    0  501    0  0.00000000000E+00  0.00000000000E+00  0.28093712174E+03  0.28093712174E+03  0.00000000000E+00 0. -1.
         -2   -1    0    0    0  501 -0.00000000000E+00 -0.00000000000E+00 -0.61946416329E+02  0.61946416329E+02  0.00000000000E+00 0.  1.
         25    2    1    2    0    0  0.16911000932E+02  0.46475943354E+02  0.13054814436E+03  0.18744696321E+03  0.12509017050E+03 0.  0.
          5    1    3    3  502    0  0.11426335183E+02 -0.66082354659E+01 -0.21879873382E+02  0.25892685664E+02  0.41800000000E+01 0.  1.
         -5    1    3    3    0  502  0.54846657487E+01  0.53084178820E+02  0.15242801775E+03  0.16155427755E+03  0.41800000000E+01 0.  1.
        -11    1    1    2    0    0 -0.39365817491E+02 -0.21759744599E+02 -0.14463727793E+02  0.47247788239E+02  0.00000000000E+00 0.  1.
         11    1    1    2    0    0  0.22454816559E+02 -0.24716198755E+02  0.10290628884E+03  0.10818878662E+03  0.00000000000E+00 0. -1.
</event>
<event>
 7    1  0.2855090E-009  0.9156452E+02  0.7561462E-02  0.1299107E+00
         -1   -1    0    0    0  501 -0.00000000000E+00  0.00000000000E+00  0.27209870468E+02  0.27209870468E+02  0.00000000000E+00 0.  1.
          1   -1    0    0  501    0  0.00000000000E+00 -0.00000000000E+00 -0.75140932899E+03  0.75140932899E+03  0.00000000000E+00 0. -1.
         25    2    1    2    0    0 -0.32060108309E+02  0.48797540640E+01 -0.62642128211E+03  0.63961120615E+03  0.12508880768E+03 0.  0.
          5    1    3    3  502    0 -0.47874937614E+02  0.39074247315E+02 -0.55770126367E+03  0.56113009040E+03  0.41800000000E+01 0. -1.
         -5    1    3    3    0  502  0.15814829305E+02 -0.34194493251E+02 -0.68720018441E+02  0.78481115749E+02  0.41800000000E+01 0. -1.
        -11    1    1    2    0    0  0.34368816747E+02  0.31626746483E+02 -0.15913713244E+02  0.49342810286E+02  0.00000000000E+00 0.  1.
         11    1    1    2    0    0 -0.23087084384E+01 -0.36506500547E+02 -0.81864463165E+02  0.89665183021E+02  0.00000000000E+00 0. -1.
</event>
<event>
 7    1  0.2855090E-009  0.1322311E+03  0.7561462E-02  0.1224182E+00
          4   -1    0    0  501    0  0.00000000000E+00  0.00000000000E+00  0.15479692867E+04  0.15479692867E+04  0.00000000000E+00 0. -1.
         -4   -1    0    0    0  501 -0.00000000000E+00 -0.00000000000E+00 -0.19652411575E+02  0.19652411575E+02  0.00000000000E+00 0.  1.
         25    2    1    2    0    0  0.71188602570E+02 -0.57978355284E+02  0.12658830307E+04  0.12753576130E+04  0.12509151374E+03 0.  0.
          5    1    3    3  502    0 -0.10925792508E+02 -0.65376047745E+02  0.39224074984E+03  0.39782367803E+03  0.41800000000E+01 0.  1.
         -5    1    3    3    0  502  0.82114395078E+02  0.73976924610E+01  0.87364228090E+03  0.87753393501E+03  0.41800000000E+01 0.  1.
        -11    1    1    2    0    0 -0.62827092660E+01  0.49662686997E+02  0.18101176288E+03  0.18780605213E+03  0.00000000000E+00 0. -1.
         11    1    1    2    0    0 -0.64905893304E+02  0.83156682879E+01  0.81422081533E+02  0.10445803313E+03  0.00000000000E+00 0.  1.
</event>
<event>
 7    1  0.2855090E-009  0.1901215E+03  0.7561462E-02  0.1158352E+00
          1   -1    0    0  501    0  0.00000000000E+00  0.00000000000E+00  0.15268750049E+03  0.15268750049E+03  0.00000000000E+00 0. -1.
         -1   -1    0    0    0  501 -0.00000000000E+00 -0.00000000000E+00 -0.40692377785E+03  0.40692377785E+03  0.00000000000E+00 0.  1.
         25    2    1    2    0    0  0.16484406175E+03 -0.76869304776E+02 -0.27978457499E+03  0.35637665679E+03  0.12506981409E+03 0.  0.
          5    1    3    3  502    0  0.16193581257E+03 -0.89006716822E+02 -0.18795828332E+03  0.26361182011E+03  0.41800000000E+01 0.  1.
         -5    1    3    3    0  502  0.29082491773E+01  0.12137412045E+02 -0.91826291665E+02  0.92764836686E+02  0.41800000000E+01 0.  1.
        -11    1    1    2    0    0 -0.60472404331E+02  0.22137906288E+02 -0.32195643038E+02  0.71996930567E+02  0.00000000000E+00 0.  1.
         11    1    1    2    0    0 -0.10437165741E+03  0.54731398488E+02  0.57743940663E+02  0.13123769099E+03  0.00000000000E+00 0. -1.
</event>
<event>
 7    1  0.2855090E-009  0.1480225E+03  0.7561462E-02  0.1202924E+00
         -2   -1    0    0    0  501 -0.00000000000E+00  0.00000000000E+00  0.31111300333E+02  0.31111300333E+02  0.00000000000E+00 0.  1.
          2   -1    0    0  501    0  0.00000000000E+00 -0.00000000000E+00 -0.11997542431E+04  0.11997542431E+04  0.00000000000E+00 0. -1.
         25    2    1    2    0    0 -0.74068529686E+02  0.11714902734E+03 -0.84368610294E+03  0.86409720398E+03  0.12509075080E+03 0.  0.
          5    1    3    3  502    0 -0.49891147440E+02  0.86246449646E+02 -0.79590949003E+03  0.80213276045E+03  0.41800000000E+01 0.  1.
         -5    1    3    3    0  502 -0.24177382245E+02  0.30902577696E+02 -0.47776612903E+02  0.61964443522E+02  0.41800000000E+01 0.  1.
        -11    1    1    2    0    0  0.89147100268E+02 -0.10241595908E+03 -0.31586038596E+03  0.34380811157E+03  0.00000000000E+00 0. -1.
         11    1    1    2    0    0 -0.15078570582E+02 -0.14733068258E+02 -0.90964538500E+01  0.22960227868E+02  0.00000000000E+00 0.  1.
</event>
<event>
 7    1  0.2855090E-009  0.1307273E+03  0.7561462E-02  0.1226381E+00
         -1   -1    0    0    0  501 -0.00000000000E+00  0.00000000000E+00  0.34213901979E+03  0.34213901979E+03  0.00000000000E+00 0.  1.
          1   -1    0    0  501    0  0.00000000000E+00 -0.00000000000E+00 -0.67889435113E+02  0.67889435113E+02  0.00000000000E+00 0. -1.
         25    2    1    2    0    0 -0.78262938399E+02 -0.32327502609E+02  0.23678826984E+03  0.28086857524E+03  0.12509323273E+03 0.  0.
          5    1    3    3  502    0 -0.86936935577E+02 -0.68161280723E+02  0.20056051333E+03  0.22901087936E+03  0.41800000000E+01 0. -1.
         -5    1    3    3    0  502  0.86739971781E+01  0.35833778114E+02  0.36227756510E+02  0.51857695887E+02  0.41800000000E+01 0. -1.
        -11    1    1    2    0    0  0.73429831019E+02  0.54284219422E+02  0.73924167409E+01  0.91615306510E+02  0.00000000000E+00 0. -1.
         11    1    1    2    0    0  0.48331073797E+01 -0.21956716812E+02  0.30068898103E+02  0.37544573154E+02  0.00000000000E+00 0.  1.
</event>
<event>
 7    1  0.2855090E-009  0.1288739E+03  0.7561462E-02  0.1229136E+00
          1   -1    0    0  501    0  0.00000000000E+00  0.00000000000E+00  0.42796653492E+02  0.42796653492E+02  0.00000000000E+00 0. -1.
         -1   -1    0    0    0  501 -0.00000000000E+00 -0.00000000000E+00 -0.47647555243E+03  0.47647555243E+03  0.00000000000E+00 0.  1.
         25    2    1    2    0    0  0.89908960874E+02 -0.16382374576E+02 -0.25560825001E+03  0.29889196021E+03  0.12509525557E+03 0.  0.
          5    1    3    3  502    0  0.63565158470E+02 -0.52840935250E+02 -0.71658447812E+02  0.10947647853E+03  0.41800000000E+01 0.  1.
         -5    1    3    3    0  502  0.26343802405E+02  0.36458560674E+02 -0.18394980220E+03  0.18941548168E+03  0.41800000000E+01 0.  1.
        -11    1    1    2    0    0 -0.76423554769E+02 -0.29549603856E+02 -0.11472896214E+03  0.14098394790E+03  0.00000000000E+00 0. -1.
         11    1    1    2    0    0 -0.13485406105E+02  0.45931978433E+02 -0.63341686786E+02  0.79396297807E+02  0.00000000000E+00 0.  1.
</event>
<event>
 7    1  0.2855090E-009  0.6776715E+02  0.7561462E-02  0.1367855E+00
          2   -1    0    0  501    0  0.00000000000E+00  0.00000000000E+00  0.12848890647E+04  0.12848890647E+04  0.00000000000E+00 0. -1.
         -2   -1    0    0    0  501 -0.00000000000E+00 -0.00000000000E+00 -0.11595049554E+02  0.11595049554E+02  0.00000000000E+00 0.  1.
         25    2    1    2    0    0 -0.30882013063E+02  0.32473417793E+01  0.94744368082E+03  0.95616972216E+03  0.12508703087E+03 0.  0.
          5    1    3    3  502    0 -0.38472727513E+02  0.88264108848E+01  0.86588007496E+02  0.95252358152E+02  0.41800000000E+01 0. -1.
         -5    1    3    3    0  502  0.75907144504E+01 -0.55790691055E+01  0.86085567333E+03  0.86091736401E+03  0.41800000000E+01 0. -1.
        -11    1    1    2    0    0  0.80356032607E+01 -0.40797309747E+02  0.76037827247E+02  0.86664540469E+02  0.00000000000E+00 0.  1.
         11    1    1    2    0    0  0.22846409802E+02  0.37549967967E+02  0.24981250708E+03  0.25364985162E+03  0.00000000000E+00 0. -1.
</event>
<event>
 7    1  0.2855090E-009  0.8660517E+02  0.7561462E-02  0.1311287E+00
          2   -1    0    0  501    0  0.00000000000E+00  0.00000000000E+00  0.42503682928E+02  0.42503682928E+02  0.00000000000E+00 0. -1.
         -2   -1    0    0    0  501 -0.00000000000E+00 -0.00000000000E+00 -0.33189730530E+03  0.33189730530E+03  0.00000000000E+00 0.  1.
         25    2    1    2    0    0 -0.40278255042E+02  0.48745024741E+01 -0.11878769458E+03  0.17721156481E+03  0.12508926299E+03 0.  0.
          5    1    3    3  502    0 -0.22112397577E+02 -0.36994664521E+02 -0.12375505301E+03  0.13111197076E+03  0.41800000000E+01 0. -1.
         -5    1    3    3    0  502 -0.18165857465E+02  0.41869166995E+02  0.49673584318E+01  0.46099594056E+02  0.41800000000E+01 0. -1.
        -11    1    1    2    0    0  0.59072776367E+02  0.10247076646E+02 -0.15995129992E+03  0.17081865774E+03  0.00000000000E+00 0.  1.
         11    1    1    2    0    0 -0.18794521325E+02 -0.15121579120E+02 -0.10654627868E+02  0.26370765669E+02  0.00000000000E+00 0. -1.
</event>
<event>
 7    1  0.2855090E-009  0.1531104E+03  0.7561462E-02  0.1196702E+00
         -1   -1    0    0    0  501 -0.00000000000E+00  0.00000000000E+00  0.41197296557E+02  0.41197296557E+02  0.00000000000E+00 0.  1.
          1   -1    0    0  501    0  0.00000000000E+00 -0.00000000000E+00 -0.60140232726E+03  0.60140232726E+03  0.00000000000E+00 0. -1.
         25    2    1    2    0    0  0.14714798506E+02 -0.11368157574E+03 -0.28724192488E+03  0.33360979972E+03  0.12509016390E+03 0.  0.
          5    1    3    3  502    0 -0.34961333406E+02 -0.10533201978E+03 -0.14494724351E+03  0.18260423058E+03  0.41800000000E+01 0.  1.
         -5    1    3    3    0  502  0.49676131912E+02 -0.83495559675E+01 -0.14229468137E+03  0.15100556914E+03  0.41800000000E+01 0.  1.
        -11    1    1    2    0    0 -0.35403608957E+02  0.11824165275E+03 -0.23822091463E+03  0.26829779749E+03  0.00000000000E+00 0. -1.
         11    1    1    2    0    0  0.20688810451E+02 -0.45600770044E+01 -0.34742191197E+02  0.40692026607E+02  0.00000000000E+00 0.  1.
</event>
<event>
 7    1  0.2855090E-009  0.1543137E+03  0.7561462E-02  0.1195270E+00
          1   -1    0    0  501    0  0.00000000000E+00  0.00000000000E+00  0.33402783050E+03  0.33402783050E+03  0.00000000000E+00 0. -1.
         -1   -1    0    0    0  501 -0.00000000000E+00 -0.00000000000E+00 -0.74321047913E+02  0.74321047913E+02  0.00000000000E+00 0.  1.
         25    2    1    2    0    0 -0.45793123632E+02 -0.17246541615E+02  0.14204184131E+03  0.19549350478E+03  0.12508945743E+03 0.  0.
          5    1    3    3  502    0 -0.39375562832E+01  0.52530414242E+02  0.55439307059E+02  0.76589411391E+02  0.41800000000E+01 0.  1.
         -5    1    3    3    0  502 -0.41855567349E+02 -0.69776955857E+02  0.86602534246E+02  0.11890409339E+03  0.41800000000E+01 0.  1.
        -11    1    1    2    0    0  0.43903365875E+02 -0.72384411976E+02  0.37506232388E+02  0.92594417220E+02  0.00000000000E+00 0.  1.
         11    1    1    2    0    0  0.18897577569E+01  0.89630953592E+02  0.80158708897E+02  0.12026095642E+03  0.00000000000E+00 0. -1.
</event>
<event>
 7    1  0.2855090E-009  0.1186932E+03  0.7561462E-02  0.1245268E+00
         -2   -1    0    0    0  501 -0.00000000000E+00  0.00000000000E+00  0.83613941783E+03  0.83613941783E+03  0.00000000000E+00 0.  1.
          2   -1    0    0  501    0  0.00000000000E+00 -0.00000000000E+00 -0.32716142993E+02  0.32716142993E+02  0.00000000000E+00 0. -1.
         25    2    1    2    0    0  0.18631076421E+02  0.10811361343E+03  0.54303365478E+03  0.56795184736E+03  0.12509228709E+03 0.  0.
          5    1    3    3  502    0  0.18877866187E+02  0.87238027734E+02  0.15185227361E+03  0.17619146607E+03  0.41800000000E+01 0.  1.
         -5    1    3    3    0  502 -0.24678976597E+00  0.20875585694E+02  0.39118138117E+03  0.39176038130E+03  0.41800000000E+01 0.  1.
        -11    1    1    2    0    0 -0.13014123901E+00 -0.10823863992E+03  0.26083041454E+03  0.28239710561E+03  0.00000000000E+00 0.  1.
         11    1    1    2    0    0 -0.18500935182E+02  0.12502649004E+00 -0.44079448037E+00  0.18506607847E+02  0.00000000000E+00 0. -1.
</event>
<event>
 7    1  0.2855090E-009  0.7321884E+02  0.7561462E-02  0.1349477E+00
          1   -1    0    0  501    0  0.00000000000E+00  0.00000000000E+00  0.65028037888E+02  0.65028037888E+02  0.00000000000E+00 0. -1.
         -1   -1    0    0    0  501 -0.00000000000E+00 -0.00000000000E+00 -0.22117020598E+03  0.22117020598E+03  0.00000000000E+00 0.  1.
         25    2    1    2    0    0  0.47293982560E+02  0.15966580611E+02 -0.69966934338E+02  0.15177013245E+03  0.12508856351E+03 0.  0.
          5    1    3    3  502    0 -0.10211888861E+02  0.18735870987E+02 -0.88509327573E+02  0.91141039072E+02  0.41800000000E+01 0.  1.
         -5    1    3    3    0  502  0.57505871421E+02 -0.27692903758E+01  0.18542393235E+02  0.60629093379E+02  0.41800000000E+01 0.  1.
        -11    1    1    2    0    0  0.46312183000E+01 -0.14285585140E+02 -0.80816629819E+02  0.82200083826E+02  0.00000000000E+00 0.  1.
         11    1    1    2    0    0 -0.51925200860E+02 -0.16809954709E+01 -0.53586039366E+01  0.52228027593E+02  0.00000000000E+00 0. -1.
</event>
<event>
 7    1  0.2855090E-009  0.1419287E+03  0.7561462E-02  0.1210757E+00
         -2   -1    0    0    0  501 -0.00000000000E+00  0.00000000000E+00  0.25436908374E+03  0.25436908374E+03  0.00000000000E+00 0.  1.
          2   -1    0    0  501    0  0.00000000000E+00 -0.00000000000E+00 -0.87333414124E+02  0.87333414124E+02  0.00000000000E+00 0. -1.
         25    2    1    2    0    0 -0.64104887119E+02 -0.79382764871E+02  0.85843143688E+02  0.18283884093E+03  0.12509970632E+03 0.  0.
          5    1    3    3  502    0 -0.58586204021E+02 -0.11033228911E+03  0.84920680169E+02  0.15111105732E+03  0.41800000000E+01 0.  1.
         -5    1    3    3    0  502 -0.55186830976E+01  0.30949524243E+02  0.92246351898E+00  0.31727783612E+02  0.41800000000E+01 0.  1.
        -11    1    1    2    0    0  0.41142819233E+01  0.65429945996E+02  0.70640059489E+02  0.96374390547E+02  0.00000000000E+00 0.  1.
         11    1    1    2    0    0  0.59990605196E+02  0.13952818875E+02  0.10552466443E+02  0.62489266393E+02  0.00000000000E+00 0. -1.
</event>
<event>
 7    1  0.2855090E-009  0.1250522E+03  0.7561462E-02  0.1234988E+00
         -2   -1    0    0    0  501 -0.00000000000E+00  0.00000000000E+00  0.11446549591E+03  0.11446549591E+03  0.00000000000E+00 0. -1.
          2   -1    0    0  501    0  0.00000000000E+00 -0.00000000000E+00 -0.14431478444E+03  0.14431478444E+03  0.00000000000E+00 0.  1.
         25    2    1    2    0    0  0.26003379503E+02 -0.63904130557E+02 -0.17292899786E+02  0.14389573204E+03  0.12508806365E+03 0.  0.
          5    1    3    3  502    0 -0.11674661081E+02 -0.89627836688E+02 -0.31695267030E+02  0.95872358753E+02  0.41800000000E+01 0. -1.
         -5    1    3    3    0  502  0.37678040583E+02  0.25723706131E+02  0.14402367244E+02  0.48023373284E+02  0.41800000000E+01 0. -1.
        -11    1    1    2    0    0  0.17357301975E+02 -0.15543637020E+02  0.12209614394E+01  0.23331766554E+02  0.00000000000E+00 0. -1.
         11    1    1    2    0    0 -0.43360681478E+02  0.79447767577E+02 -0.13777350181E+02  0.91552781767E+02  0.00000000000E+00 0.  1.
</event>
<event>
 7    1  0.2855090E-009  0.1064196E+03  0.7561462E-02  0.1267348E+00
          1   -1    0    0  501    0  0.00000000000E+00  0.00000000000E+00  0.79705337798E+03  0.79705337798E+03  0.00000000000E+00 0. -1.
         -1   -1    0    0    0  501 -0.00000000000E+00 -0.00000000000E+00 -0.18557120402E+02  0.18557120402E+02  0.00000000000E+00 0.  1.
         25    2    1    2    0    0  0.53262979069E+02 -0.13376686714E+02  0.48052072189E+03  0.49956354539E+03  0.12509073117E+03 0.  0.
          5    1    3    3  502    0 -0.44923589852E+01  0.36222411071E+02  0.31722191731E+03  0.31934223269E+03  0.41800000000E+01 0. -1.
         -5    1    3    3    0  502  0.57755338054E+02 -0.49599097785E+02  0.16329880458E+03  0.18022131270E+03  0.41800000000E+01 0. -1.
        -11    1    1    2    0    0 -0.76105796014E+02  0.97644657246E+01  0.26417056437E+03  0.27508821141E+03  0.00000000000E+00 0. -1.
         11    1    1    2    0    0  0.22842816945E+02  0.36122209891E+01  0.33804971315E+02  0.40958741583E+02  0.00000000000E+00 0.  1.
</event>
<event>
 7    1  0.2855090E-009  0.7060003E+02  0.7561462E-02  0.1358064E+00
          3   -1    0    0  501    0  0.00000000000E+00  0.00000000000E+00  0.48589663083E+02  0.48589663083E+02  0.00000000000E+00 0. -1.
         -3   -1    0    0    0  501 -0.00000000000E+00 -0.00000000000E+00 -0.23860491459E+03  0.23860491459E+03  0.00000000000E+00 0.  1.
         25    2    1    2    0    0 -0.76592143049E+01 -0.56680593783E+01 -0.15165774379E+03  0.19681935676E+03  0.12508795897E+03 0.  0.
          5    1    3    3  502    0  0.41765174553E+02  0.23615222473E+01 -0.13869666303E+03  0.14492806259E+03  0.41800000000E+01 0.  1.
         -5    1    3    3    0  502 -0.49424388858E+02 -0.80295816256E+01 -0.12961080766E+02  0.51891294161E+02  0.41800000000E+01 0.  1.
        -11    1    1    2    0    0 -0.63260138021E+01 -0.19291755984E+02  0.18024674294E+02  0.27149202253E+02  0.00000000000E+00 0. -1.
         11    1    1    2    0    0  0.13985228107E+02  0.24959815362E+02 -0.56382182012E+02  0.63226018668E+02  0.00000000000E+00 0.  1.
</event>
<event>
 7    1  0.2855090E-009  0.1378612E+03  0.7561462E-02  0.1216236E+00
         -2   -1    0    0    0  501 -0.00000000000E+00  0.00000000000E+00  0.20117957826E+02  0.20117957826E+02  0.00000000000E+00 0.  1.
          2   -1    0    0  501    0  0.00000000000E+00 -0.00000000000E+00 -0.10468700071E+04  0.10468700071E+04  0.00000000000E+00 0. -1.
         25    2    1    2    0    0 -0.36406289483E+02  0.71227955063E+02 -0.71395475319E+03  0.72923126164E+03  0.12509198154E+03 0.  0.
          5    1    3    3  502    0 -0.47410541828E+02 -0.23454649694E+02 -0.25103492578E+03  0.25658114979E+03  0.41800000000E+01 0.  1.
         -5    1    3    3    0  502  0.11004252345E+02  0.94682604757E+02 -0.46291982741E+03  0.47265011184E+03  0.41800000000E+01 0.  1.
        -11    1    1    2    0    0  0.27254972883E+01 -0.89086722849E+02 -0.21080199133E+03  0.22886972730E+03  0.00000000000E+00 0. -1.
         11    1    1    2    0    0  0.33680792195E+02  0.17858767786E+02 -0.10199530476E+03  0.10888697601E+03  0.00000000000E+00 0.  1.
</event>
<event>
 7    1  0.2855090E-009  0.1189454E+03  0.7561462E-02  0.1244847E+00
          1   -1    0    0  501    0  0.00000000000E+00  0.00000000000E+00  0.24513661940E+03  0.24513661940E+03  0.00000000000E+00 0. -1.
         -1   -1    0    0    0  501 -0.00000000000E+00 -0.00000000000E+00 -0.11322099901E+03  0.11322099901E+03  0.00000000000E+00 0.  1.
         25    2    1    2    0    0 -0.90924602768E+02  0.14233741576E+02 -0.23871059017E+02  0.15712165822E+03  0.12508998856E+03 0.  0.
          5    1    3    3  502    0 -0.96654968968E+02  0.24613320403E+02  0.28055738724E+02  0.10369472235E+03  0.41800000000E+01 0.  1.
         -5    1    3    3    0  502  0.57303662008E+01 -0.10379578827E+02 -0.51926797741E+02  0.53426935875E+02  0.41800000000E+01 0.  1.
        -11    1    1    2    0    0  0.84605744660E+02 -0.43790982864E+02  0.13192654781E+03  0.16272798231E+03  0.00000000000E+00 0. -1.
         11    1    1    2    0    0  0.63188581079E+01  0.29557241288E+02  0.23860131595E+02  0.38507977876E+02  0.00000000000E+00 0.  1.
</event>
<event>
 7    1  0.2855090E-009  0.8459628E+02  0.7561462E-02  0.1316492E+00
          2   -1    0    0  501    0  0.00000000000E+00  0.00000000000E+00  0.22017898278E+03  0.22017898278E+03  0.00000000000E+00 0. -1.
         -2   -1    0    0    0  501 -0.00000000000E+00 -0.00000000000E+00 -0.91050113209E+02  0.91050113209E+02  0.00000000000E+00 0.  1.
         25    2    1    2    0    0  0.16911235963E+02  0.64744311904E+02  0.35387712356E+01  0.14190696244E+03  0.12508895740E+03 0.  0.
          5    1    3    3  502    0  0.25705691507E+02  0.47907837605E+02  0.60659442697E+02  0.81565825370E+02  0.41800000000E+01 0. -1.
         -5    1    3    3    0  502 -0.87944555443E+01  0.16836474299E+02 -0.57120671462E+02  0.60341137074E+02  0.41800000000E+01 0. -1.
        -11    1    1    2    0    0  0.26152851857E+02 -0.30621652192E+02  0.10174934210E+03  0.10942845088E+03  0.00000000000E+00 0.  1.
         11    1    1    2    0    0 -0.43064087820E+02 -0.34122659712E+02  0.23840756233E+02  0.59893682666E+02  0.00000000000E+00 0. -1.
</event>
<event>
 7    1  0.2855090E-009  0.1049743E+03  0.7561462E-02  0.1270170E+00
          1   -1    0    0  501    0  0.00000000000E+00  0.00000000000E+00  0.17294716316E+02  0.17294716316E+02  0.00000000000E+00 0. -1.
         -1   -1    0    0    0  501 -0.00000000000E+00 -0.00000000000E+00 -0.12232553516E+04  0.12232553516E+04  0.00000000000E+00 0.  1.
         25    2    1    2    0    0  0.80651532627E+01  0.65164745995E+02 -0.96495561256E+03  0.97524246604E+03  0.12508813904E+03 0.  0.
          5    1    3    3  502    0  0.39777625083E+02  0.22666380963E+02 -0.81203195552E+03  0.81333227741E+03  0.41800000000E+01 0. -1.
         -5    1    3    3    0  502 -0.31712471820E+02  0.42498365033E+02 -0.15292365704E+03  0.16191018863E+03  0.41800000000E+01 0. -1.
        -11    1    1    2    0    0  0.39421460413E+02 -0.16333103609E+02 -0.86377937272E+02  0.96342980347E+02  0.00000000000E+00 0.  1.
         11    1    1    2    0    0 -0.47486613676E+02 -0.48831642386E+02 -0.15462708549E+03  0.16896462158E+03  0.00000000000E+00 0. -1.
</event>
<event>
 7    1  0.2855090E-009  0.1397740E+03  0.7561462E-02  0.1213633E+00
         -2   -1    0    0    0  501 -0.00000000000E+00  0.00000000000E+00  0.10997417493E+03  0.10997417493E+03  0.00000000000E+00 0.  1.
          2   -1    0    0  501    0  0.00000000000E+00 -0.00000000000E+00 -0.20169226208E+03  0.20169226208E+03  0.00000000000E+00 0. -1.
         25    2    1    2    0    0  0.30344555645E+02 -0.96052321826E+02 -0.66712496145E+02  0.17390875577E+03  0.12508739987E+03 0.  0.
          5    1    3    3  502    0 -0.35124103253E+02 -0.73381359209E+02 -0.59803476250E+01  0.81680863526E+02  0.41800000000E+01 0.  1.
         -5    1    3    3    0  502  0.65468658898E+02 -0.22670962618E+02 -0.60732148520E+02  0.92227892244E+02  0.41800000000E+01 0.  1.
        -11    1    1    2    0    0 -0.43514140691E+02  0.10438604342E+03 -0.36001008110E+02  0.11868445174E+03  0.00000000000E+00 0.  1.
         11    1    1    2    0    0  0.13169585046E+02 -0.83337215919E+01  0.10995417111E+02  0.19073229493E+02  0.00000000000E+00 0. -1.
</event>
<event>
 7    1  0.2855090E-009  0.1112388E+03  0.7561462E-02  0.1258293E+00
          1   -1    0    0  501    0  0.00000000000E+00  0.00000000000E+00  0.98703195329E+02  0.98703195329E+02  0.00000000000E+00 0. -1.
         -1   -1    0    0    0  501 -0.00000000000E+00 -0.00000000000E+00 -0.25156455129E+03  0.25156455129E+03  0.00000000000E+00 0.  1.
         25    2    1    2    0    0 -0.69633580721E+02  0.41040764959E+02  0.72180944928E+01  0.14910577889E+03  0.12508897816E+03 0.  0.
          5    1    3    3  502    0 -0.78638805601E+02 -0.12638662148E+02  0.35871453935E+02  0.87453022444E+02  0.41800000000E+01 0. -1.
         -5    1    3    3    0  502  0.90052248799E+01  0.53679427107E+02 -0.28653359443E+02  0.61652756443E+02  0.41800000000E+01 0. -1.
        -11    1    1    2    0    0  0.47681870954E+02 -0.45299340796E+02 -0.16555484804E+03  0.17814039071E+03  0.00000000000E+00 0.  1.
         11    1    1    2    0    0  0.21951709767E+02  0.42585758365E+01  0.54753975822E+01  0.23021577021E+02  0.00000000000E+00 0. -1.
</event>
<event>
 7    1  0.2855090E-009  0.1142213E+03  0.7561462E-02  0.1252947E+00
          2   -1    0    0  501    0  0.00000000000E+00  0.00000000000E+00  0.31509210474E+03  0.31509210474E+03  0.00000000000E+00 0. -1.
         -2   -1    0    0    0  501 -0.00000000000E+00 -0.00000000000E+00 -0.46541988569E+02  0.46541988569E+02  0.00000000000E+00 0.  1.
         25    2    1    2    0    0  0.47401995415E+02 -0.86264026220E+01  0.13758346814E+03  0.19209577602E+03  0.12510080921E+03 0.  0.
          5    1    3    3  502    0  0.22739173138E+02  0.53316960056E+02  0.99422158929E+02  0.11516078460E+03  0.41800000000E+01 0.  1.
         -5    1    3    3    0  502  0.24662822277E+02 -0.61943362678E+02  0.38161309215E+02  0.76934991412E+02  0.41800000000E+01 0.  1.
        -11    1    1    2    0    0 -0.20942811626E+02 -0.41701935880E+02  0.82687603811E+02  0.94946788461E+02  0.00000000000E+00 0. -1.
         11    1    1    2    0    0 -0.26459183789E+02  0.50328338502E+02  0.48279044216E+02  0.74591528833E+02  0.00000000000E+00 0.  1.
</event>
<event>
 7    1  0.2855090E-009  0.2915319E+03  0.7561462E-02  0.1089552E+00
          2   -1    0    0  501    0  0.00000000000E+00  0.00000000000E+00  0.15719195612E+03  0.15719195612E+03  0.00000000000E+00 0. -1.
         -2   -1    0    0    0  501 -0.00000000000E+00 -0.00000000000E+00 -0.81483766190E+03  0.81483766190E+03  0.00000000000E+00 0.  1.
         25    2    1    2    0    0 -0.21188962104E+03 -0.18071505284E+03 -0.60004080576E+03  0.67323941858E+03  0.12508878578E+03 0.  0.
          5    1    3    3  502    0 -0.21648473801E+03 -0.19335631092E+03 -0.58172908052E+03  0.65013729342E+03  0.41800000000E+01 0.  1.
         -5    1    3    3    0  502  0.45951169662E+01  0.12641258088E+02 -0.18311725238E+02  0.23102125165E+02  0.41800000000E+01 0.  1.
        -11    1    1    2    0    0  0.29548851823E+02  0.30158642619E+02  0.24090738966E+02  0.48611131160E+02  0.00000000000E+00 0. -1.
         11    1    1    2    0    0  0.18234076922E+03  0.15055641022E+03 -0.81695638981E+02  0.25017906828E+03  0.00000000000E+00 0.  1.
</event>
<event>
 7    1  0.2855090E-009  0.1225219E+03  0.7561462E-02  0.1238994E+00
          1   -1    0    0  501    0  0.00000000000E+00  0.00000000000E+00  0.24834597127E+03  0.24834597127E+03  0.00000000000E+00 0. -1.
         -1   -1    0    0    0  501 -0.00000000000E+00 -0.00000000000E+00 -0.83842481234E+02  0.83842481234E+02  0.00000000000E+00 0.  1.
         25    2    1    2    0    0 -0.82402258064E+02  0.20998661769E+02  0.41567348930E+02  0.15687845208E+03  0.12510766683E+03 0.  0.
          5    1    3    3  502    0 -0.24214599520E+02 -0.45471930544E+02  0.44770377766E+02  0.68380570505E+02  0.41800000000E+01 0.  1.
         -5    1    3    3    0  502 -0.58187658545E+02  0.66470592313E+02 -0.32030288360E+01  0.88497881574E+02  0.41800000000E+01 0.  1.
        -11    1    1    2    0    0  0.31520626308E+02 -0.39714191748E+02  0.12403932959E+02  0.52197935417E+02  0.00000000000E+00 0.  1.
         11    1    1    2    0    0  0.50881631757E+02  0.18715529979E+02  0.11053220815E+03  0.12311206501E+03  0.00000000000E+00 0. -1.
</event>
<event>
 7    1  0.2855090E-009  0.9646316E+02  0.7561462E-02  0.1287914E+00
          2   -1    0    0  501    0  0.00000000000E+00  0.00000000000E+00  0.35734030386E+03  0.35734030386E+03  0.00000000000E+00 0. -1.
         -2   -1    0    0    0  501 -0.00000000000E+00 -0.00000000000E+00 -0.46261547527E+02  0.46261547527E+02  0.00000000000E+00 0.  1.
         25    2    1    2    0    0 -0.42619708715E+02 -0.15450171501E+01  0.25694170627E+03  0.28893369448E+03  0.12507922582E+03 0.  0.
          5    1    3    3  502    0 -0.37828740400E+00 -0.40300115122E+02  0.21236418536E+03  0.21619496295E+03  0.41800000000E+01 0.  1.
         -5    1    3    3    0  502 -0.42241421311E+02  0.38755097972E+02  0.44577520910E+02  0.72738731524E+02  0.41800000000E+01 0.  1.
        -11    1    1    2    0    0 -0.25648391215E+01  0.37251646882E+02  0.41276273036E+02  0.55659629094E+02  0.00000000000E+00 0. -1.
         11    1    1    2    0    0  0.45184547836E+02 -0.35706629732E+02  0.12860777027E+02  0.59008527822E+02  0.00000000000E+00 0.  1.
</event>
<event>
 7    1  0.2855090E-009  0.1173830E+03  0.7561462E-02  0.1247478E+00
         -1   -1    0    0    0  501 -0.00000000000E+00  0.00000000000E+00  0.20590309924E+02  0.20590309924E+02  0.00000000000E+00 0.  1.
          1   -1    0    0  501    0  0.00000000000E+00 -0.00000000000E+00 -0.12364927905E+04  0.12364927905E+04  0.00000000000E+00 0. -1.
         25    2    1    2    0    0 -0.15798658944E+02  0.59356649357E+02 -0.10428329671E+04  0.10521027681E+04  0.12508728125E+03 0.  0.
          5    1    3    3  502    0 -0.62160133260E+02  0.64234505326E+02 -0.78205907096E+03  0.78716187453E+03  0.41800000000E+01 0. -1.
         -5    1    3    3    0  502  0.46361474316E+02 -0.48778559684E+01 -0.26077389615E+03  0.26494089359E+03  0.41800000000E+01 0. -1.
        -11    1    1    2    0    0 -0.24720160275E+02  0.21611833009E+01 -0.92682588430E+02  0.95946960532E+02  0.00000000000E+00 0. -1.
         11    1    1    2    0    0  0.40518819219E+02 -0.61517832658E+02 -0.80386925055E+02  0.10903337180E+03  0.00000000000E+00 0.  1.
</event>
<event>
 7    1  0.2855090E-009  0.1247168E+03  0.7561462E-02  0.1235513E+00
         -1   -1    0    0    0  501 -0.00000000000E+00  0.00000000000E+00  0.32074517539E+02  0.32074517539E+02  0.00000000000E+00 0.  1.
          1   -1    0    0  501    0  0.00000000000E+00 -0.00000000000E+00 -0.53090973614E+03  0.53090973614E+03  0.00000000000E+00 0. -1.
         25    2    1    2    0    0 -0.34575063912E+02  0.62491872367E+02 -0.26780983162E+03  0.30408900581E+03  0.12508936161E+03 0.  0.
          5    1    3    3  502    0 -0.71499745880E+02  0.68483083897E+02 -0.23137836219E+03  0.25170531447E+03  0.41800000000E+01 0.  1.
         -5    1    3    3    0  502  0.36924681968E+02 -0.59912115300E+01 -0.36431469425E+02  0.52383691341E+02  0.41800000000E+01 0.  1.
        -11    1    1    2    0    0 -0.26090528339E+02 -0.69250705800E+00 -0.87086755888E+02  0.90913685912E+02  0.00000000000E+00 0. -1.
         11    1    1    2    0    0  0.60665592252E+02 -0.61799365309E+02 -0.14393863110E+03  0.16798156196E+03  0.00000000000E+00 0.  1.
</event>
<event>
 7    1  0.2855090E-009  0.1180859E+03  0.7561462E-02  0.1246289E+00
         -2   -1    0    0    0  501 -0.00000000000E+00  0.00000000000E+00  0.40453108306E+02  0.40453108306E+02  0.00000000000E+00 0. -1.
          2   -1    0    0  501    0  0.00000000000E+00 -0.00000000000E+00 -0.43224421458E+03  0.43224421458E+03  0.00000000000E+00 0.  1.
         25    2    1    2    0    0 -0.52233767581E+02  0.17908396855E+02 -0.12316792335E+03  0.18402825629E+03  0.12508790756E+03 0.  0.
          5    1    3    3  502    0  0.23918340764E+02 -0.32959476189E+02 -0.18600034319E+02  0.44964961606E+02  0.41800000000E+01 0.  1.
         -5    1    3    3    0  502 -0.76152108344E+02  0.50867873044E+02 -0.10456788903E+03  0.13906329469E+03  0.41800000000E+01 0.  1.
        -11    1    1    2    0    0  0.36546607984E+02 -0.53427266320E+02 -0.19454511328E+03  0.20503153036E+03  0.00000000000E+00 0. -1.
         11    1    1    2    0    0  0.15687159597E+02  0.35518869465E+02 -0.74078069647E+02  0.83637536232E+02  0.00000000000E+00 0.  1.
</event>
<event>
 7    1  0.2855090E-009  0.1750465E+03  0.7561462E-02  0.1172685E+00
          1   -1    0    0  501    0  0.00000000000E+00  0.00000000000E+00  0.15015390073E+03  0.15015390073E+03  0.00000000000E+00 0. -1.
         -1   -1    0    0    0  501 -0.00000000000E+00 -0.00000000000E+00 -0.25821440623E+03  0.25821440623E+03  0.00000000000E+00 0.  1.
         25    2    1    2    0    0 -0.11613501106E+03  0.10432944267E+03 -0.10931751124E+03  0.22796802264E+03  0.12508847940E+03 0.  0.
          5    1    3    3  502    0  0.16036428124E+02 -0.86253823067E+01 -0.33267657700E+02  0.38154602550E+02  0.41800000000E+01 0.  1.
         -5    1    3    3    0  502 -0.13217143918E+03  0.11295482498E+03 -0.76049853538E+02  0.18981342009E+03  0.41800000000E+01 0.  1.
        -11    1    1    2    0    0  0.87495617313E+02 -0.89823589100E+02 -0.36731322117E+02  0.13066350000E+03  0.00000000000E+00 0.  1.
         11    1    1    2    0    0  0.28639393745E+02 -0.14505853575E+02  0.37988327854E+02  0.49736784327E+02  0.00000000000E+00 0. -1.
</event>
<event>
 7    1  0.2855090E-009  0.3599731E+03  0.7561462E-02  0.1058595E+00
         -1   -1    0    0    0  501 -0.00000000000E+00  0.00000000000E+00  0.32784444522E+03  0.32784444522E+03  0.00000000000E+00 0.  1.
          1   -1    0    0  501    0  0.00000000000E+00 -0.00000000000E+00 -0.42353859655E+03  0.42353859655E+03  0.00000000000E+00 0. -1.
         25    2    1    2    0    0  0.32016981729E+03 -0.13569161242E+03 -0.62090529867E+02  0.37472353956E+03  0.12506626891E+03 0.  0.
          5    1    3    3  502    0  0.15318935306E+02 -0.11257112900E+02 -0.40244313801E+02  0.44704245471E+02  0.41800000000E+01 0. -1.
         -5    1    3    3    0  502  0.30485088198E+03 -0.12443449952E+03 -0.21846216065E+02  0.33001929409E+03  0.41800000000E+01 0. -1.
        -11    1    1    2    0    0 -0.21007126313E+03  0.19275238744E+02  0.80297578204E+01  0.21110648364E+03  0.00000000000E+00 0.  1.
         11    1    1    2    0    0 -0.11009855415E+03  0.11641637367E+03 -0.41633379284E+02  0.16555301857E+03  0.00000000000E+00 0. -1.
</event>
<event>
 7    1  0.2855090E-009  0.1369301E+03  0.7561462E-02  0.1217520E+00
         -1   -1    0    0    0  501 -0.00000000000E+00  0.00000000000E+00  0.13153711523E+03  0.13153711523E+03  0.00000000000E+00 0.  1.
          1   -1    0    0  501    0  0.00000000000E+00 -0.00000000000E+00 -0.18054540609E+03  0.18054540609E+03  0.00000000000E+00 0. -1.
         25    2    1    2    0    0  0.74030013979E+02  0.78670801727E+02 -0.54177708354E+02  0.17392965287E+03  0.12508701792E+03 0.  0.
          5    1    3    3  502    0  0.87187407600E+01 -0.33201490203E+02 -0.19762754121E+02  0.39829564931E+02  0.41800000000E+01 0.  1.
         -5    1    3    3    0  502  0.65311273219E+02  0.11187229193E+03 -0.34414954233E+02  0.13410008794E+03  0.41800000000E+01 0.  1.
        -11    1    1    2    0    0 -0.27391368018E+02 -0.42878777224E+02  0.44355545305E+02  0.67500303536E+02  0.00000000000E+00 0.  1.
         11    1    1    2    0    0 -0.46638645961E+02 -0.35792024503E+02 -0.39186127816E+02  0.70652564910E+02  0.00000000000E+00 0. -1.
</event>
<event>
 7    1  0.2855090E-009  0.9048962E+02  0.7561462E-02  0.1301670E+00
         -2   -1    0    0    0  501 -0.00000000000E+00  0.00000000000E+00  0.76892672285E+02  0.76892672285E+02  0.00000000000E+00 0.  1.
          2   -1    0    0  501    0  0.00000000000E+00 -0.00000000000E+00 -0.27141213673E+03  0.27141213673E+03  0.00000000000E+00 0. -1.
         25    2    1    2    0    0  0.38773625568E+02 -0.71167522696E+02 -0.44485561060E+02  0.15554359483E+03  0.12508650776E+03 0.  0.
          5    1    3    3  502    0  0.36175807564E+01 -0.11144337146E+02 -0.77457746900E+02  0.78450354338E+02  0.41800000000E+01 0.  1.
         -5    1    3    3    0  502  0.35156044811E+02 -0.60023185550E+02  0.32972185840E+02  0.77093240491E+02  0.41800000000E+01 0.  1.
        -11    1    1    2    0    0 -0.52389059411E+02  0.43804624240E+02 -0.14695045836E+03  0.16204288279E+03  0.00000000000E+00 0. -1.
         11    1    1    2    0    0  0.13615433843E+02  0.27362898456E+02 -0.30834450278E+01  0.30718331398E+02  0.00000000000E+00 0.  1.
</event>
<event>
 7    1  0.2855090E-009  0.1323606E+03  0.7561462E-02  0.1223995E+00
         -3   -1    0    0    0  501 -0.00000000000E+00  0.00000000000E+00  0.90853976327E+03  0.90853976327E+03  0.00000000000E+00 0. -1.
          3   -1    0    0  501    0  0.00000000000E+00 -0.00000000000E+00 -0.35228880189E+02  0.35228880189E+02  0.00000000000E+00 0.  1.
         25    2    1    2    0    0 -0.66669405927E+02  0.63630491327E+02  0.74598782039E+03  0.76199461183E+03  0.12507722081E+03 0.  0.
          5    1    3    3  502    0 -0.78103045414E+02  0.83622896986E+02  0.42497821717E+03  0.44013274370E+03  0.41800000000E+01 0. -1.
         -5    1    3    3    0  502  0.11433639486E+02 -0.19992405659E+02  0.32100960322E+03  0.32186186813E+03  0.41800000000E+01 0. -1.
        -11    1    1    2    0    0  0.25032599587E+01 -0.62588844137E+02  0.43753430940E+02  0.76406756506E+02  0.00000000000E+00 0.  1.
         11    1    1    2    0    0  0.64166145969E+02 -0.10416471900E+01  0.83569631752E+02  0.10536727513E+03  0.00000000000E+00 0. -1.
</event>
<event>
 7    1  0.2855090E-009  0.9720129E+02  0.7561462E-02  0.1286294E+00
          2   -1    0    0  501    0  0.00000000000E+00  0.00000000000E+00  0.62104466921E+03  0.62104466921E+03  0.00000000000E+00 0.  1.
         -2   -1    0    0    0  501 -0.00000000000E+00 -0.00000000000E+00 -0.17832497952E+02  0.17832497952E+02  0.00000000000E+00 0. -1.
         25    2    1    2    0    0  0.81675347453E+01 -0.19705459083E+02  0.38585227603E+03  0.40618296217E+03  0.12509039170E+03 0.  0.
          5    1    3    3  502    0 -0.43701404103E+02 -0.44554111816E+02  0.26494432308E+03  0.27222756718E+03  0.41800000000E+01 0.  1.
         -5    1    3    3    0  502  0.51868938848E+02  0.24848652733E+02  0.12090795295E+03  0.13395539499E+03  0.41800000000E+01 0.  1.
        -11    1    1    2    0    0 -0.56107897694E+01 -0.26917081433E+02  0.13718881250E+03  0.13991704867E+03  0.00000000000E+00 0.  1.
         11    1    1    2    0    0 -0.25567449759E+01  0.46622540516E+02  0.80171082728E+02  0.92777156320E+02  0.00000000000E+00 0. -1.
</event>
<event>
 7    1  0.2855090E-009  0.1054368E+03  0.7561462E-02  0.1269261E+00
         -2   -1    0    0    0  501 -0.00000000000E+00  0.00000000000E+00  0.13434420224E+03  0.13434420224E+03  0.00000000000E+00 0. -1.
          2   -1    0    0  501    0  0.00000000000E+00 -0.00000000000E+00 -0.11523266874E+03  0.11523266874E+03  0.00000000000E+00 0.  1.
         25    2    1    2    0    0 -0.40293546666E+02  0.22852146345E+02 -0.24603936156E+02  0.13564166442E+03  0.12509003540E+03 0.  0.
          5    1    3    3  502    0  0.79144963771E+01 -0.46556385919E+02  0.40940923619E+00  0.47410719660E+02  0.41800000000E+01 0.  1.
         -5    1    3    3    0  502 -0.48208043043E+02  0.69408532264E+02 -0.25013345393E+02  0.88230944758E+02  0.41800000000E+01 0.  1.
        -11    1    1    2    0    0  0.28752100920E+02 -0.45275937415E+02  0.62596182493E+02  0.82431037109E+02  0.00000000000E+00 0. -1.
         11    1    1    2    0    0  0.11541445746E+02  0.22423791070E+02 -0.18880712836E+02  0.31504169455E+02  0.00000000000E+00 0.  1.
</event>
<event>
 7    1  0.2855090E-009  0.1702150E+03  0.7561462E-02  0.1177624E+00
         -1   -1    0    0    0  501 -0.00000000000E+00  0.00000000000E+00  0.78692234193E+02  0.78692234193E+02  0.00000000000E+00 0.  1.
          1   -1    0    0  501    0  0.00000000000E+00 -0.00000000000E+00 -0.41205717421E+03  0.41205717421E+03  0.00000000000E+00 0. -1.
         25    2    1    2    0    0  0.24424751746E+02 -0.14094646629E+03 -0.18536996580E+03  0.26546494633E+03  0.12508852326E+03 0.  0.
          5    1    3    3  502    0  0.23203951301E+02  0.65919716221E+01 -0.81186626161E+02  0.84797512424E+02  0.41800000000E+01 0.  1.
         -5    1    3    3    0  502  0.12208004450E+01 -0.14753843791E+03 -0.10418333963E+03  0.18066743390E+03  0.41800000000E+01 0.  1.
        -11    1    1    2    0    0  0.33811554542E+02  0.52867949590E+02 -0.69999279134E+02  0.94011384383E+02  0.00000000000E+00 0.  1.
         11    1    1    2    0    0 -0.58236306288E+02  0.88078516703E+02 -0.77995695091E+02  0.13127307769E+03  0.00000000000E+00 0. -1.
</event>
<event>
 7    1  0.2855090E-009  0.9351697E+02  0.7561462E-02  0.1294552E+00
          2   -1    0    0  501    0  0.00000000000E+00  0.00000000000E+00  0.13123009773E+03  0.13123009773E+03  0.00000000000E+00 0. -1.
         -2   -1    0    0    0  501 -0.00000000000E+00 -0.00000000000E+00 -0.10477198108E+03  0.10477198108E+03  0.00000000000E+00 0.  1.
         25    2    1    2    0    0 -0.24426615865E+02 -0.33450226466E+02 -0.64008188085E+01  0.13192645967E+03  0.12509213831E+03 0.  0.
          5    1    3    3  502    0 -0.60754902321E+02  0.22394480356E+02 -0.18875937747E+00  0.64885891660E+02  0.41800000000E+01 0.  1.
         -5    1    3    3    0  502  0.36328286456E+02 -0.55844706822E+02 -0.62120594310E+01  0.67040568011E+02  0.41800000000E+01 0.  1.
        -11    1    1    2    0    0 -0.98557820181E+01  0.68076254648E+01 -0.27342284025E+02  0.29850974847E+02  0.00000000000E+00 0.  1.
         11    1    1    2    0    0  0.34282397883E+02  0.26642601001E+02  0.60201219489E+02  0.74224644295E+02  0.00000000000E+00 0. -1.
</event>
<event>
 7    1  0.2855090E-009  0.1219152E+03  0.7561462E-02  0.1239971E+00
          1   -1    0    0  501    0  0.00000000000E+00  0.00000000000E+00  0.67130436775E+02  0.67130436775E+02  0.00000000000E+00 0. -1.
         -1   -1    0    0    0  501 -0.00000000000E+00 -0.00000000000E+00 -0.24435993005E+03  0.24435993005E+03  0.00000000000E+00 0.  1.
         25    2    1    2    0    0 -0.31993458507E+01  0.65027966036E+02 -0.62024619950E+02  0.15405630709E+03  0.12508964823E+03 0.  0.
          5    1    3    3  502    0 -0.58395050875E+02  0.49865529459E+01 -0.32989894195E+02  0.67384369077E+02  0.41800000000E+01 0. -1.
         -5    1    3    3    0  502  0.55195705024E+02  0.60041413090E+02 -0.29034725755E+02  0.86671938012E+02  0.41800000000E+01 0. -1.
        -11    1    1    2    0    0 -0.37891994423E+02 -0.21570333772E+02 -0.69980026030E+02  0.82451722745E+02  0.00000000000E+00 0.  1.
         11    1    1    2    0    0  0.41091340274E+02 -0.43457632264E+02 -0.45224847291E+02  0.74982336987E+02  0.00000000000E+00 0. -1.
</event>
<event>
 7    1  0.2855090E-009  0.1612023E+03  0.7561462E-02  0.1187346E+00
          4   -1    0    0  501    0  0.00000000000E+00  0.00000000000E+00  0.29809948612E+03  0.29809948612E+03  0.00000000000E+00 0.  1.
         -4   -1    0    0    0  501 -0.00000000000E+00 -0.00000000000E+00 -0.11281904792E+03  0.11281904792E+03  0.00000000000E+00 0. -1.
         25    2    1    2    0    0  0.13213640420E+03  0.10986818171E+02  0.19920713790E+02  0.18337197887E+03  0.12509080026E+03 0.  0.
          5    1    3    3  502    0 -0.43795658829E+00 -0.31144184017E+02 -0.21606917666E+02  0.38137688643E+02  0.41800000000E+01 0. -1.
         -5    1    3    3    0  502  0.13257436079E+03  0.42131002187E+02  0.41527631456E+02  0.14523429023E+03  0.41800000000E+01 0. -1.
        -11    1    1    2    0    0 -0.50728679411E+02 -0.40812546948E+02  0.98446237367E+02  0.11802849044E+03  0.00000000000E+00 0. -1.
         11    1    1    2    0    0 -0.81407724792E+02  0.29825728778E+02  0.66913487041E+02  0.10951806472E+03  0.00000000000E+00 0.  1.
</event>
<event>
 7    1  0.2855090E-009  0.1404036E+03  0.7561462E-02  0.1212787E+00
         -2   -1    0    0    0  501 -0.00000000000E+00  0.00000000000E+00  0.17879612858E+02  0.17879612858E+02  0.00000000000E+00 0.  1.
          2   -1    0    0  501    0  0.00000000000E+00 -0.00000000000E+00 -0.11574973636E+04  0.11574973636E+04  0.00000000000E+00 0. -1.
         25    2    1    2    0    0  0.47763708524E+02  0.80878370829E+02 -0.63302265761E+03  0.65206390542E+03  0.12508784510E+03 0.  0.
          5    1    3    3  502    0  0.83727192577E+02  0.31828528505E+02 -0.45884986099E+03  0.46752964112E+03  0.41800000000E+01 0. -1.
         -5    1    3    3    0  502 -0.35963484053E+02  0.49049842324E+02 -0.17417279662E+03  0.18453426430E+03  0.41800000000E+01 0. -1.
        -11    1    1    2    0    0 -0.53928909010E+02 -0.51292351398E+01 -0.24400231144E+03  0.24994352215E+03  0.00000000000E+00 0.  1.
         11    1    1    2    0    0  0.61652004865E+01 -0.75749135689E+02 -0.26259278167E+03  0.27336954885E+03  0.00000000000E+00 0. -1.
</event>
<event>
 7    1  0.2855090E-009  0.1267239E+03  0.7561462E-02  0.1232399E+00
         -3   -1    0    0    0  501 -0.00000000000E+00  0.00000000000E+00  0.12090679160E+03  0.12090679160E+03  0.00000000000E+00 0.  1.
          3   -1    0    0  501    0  0.00000000000E+00 -0.00000000000E+00 -0.18811145878E+03  0.18811145878E+03  0.00000000000E+00 0. -1.
         25    2    1    2    0    0 -0.37213973738E+02 -0.80481662311E+02 -0.91650237893E+02  0.17863238557E+03  0.12509030842E+03 0.  0.
          5    1    3    3  502    0 -0.35293233621E+02  0.85056050296E+01 -0.81038101059E+02  0.88896590933E+02  0.41800000000E+01 0. -1.
         -5    1    3    3    0  502 -0.19207401174E+01 -0.88987267341E+02 -0.10612136835E+02  0.89735794639E+02  0.41800000000E+01 0. -1.
        -11    1    1    2    0    0  0.55339596569E+02  0.91246901757E+02  0.23555886685E+02  0.10928562498E+03  0.00000000000E+00 0. -1.
         11    1    1    2    0    0 -0.18125622830E+02 -0.10765239446E+02  0.88968403609E+00  0.21100239833E+02  0.00000000000E+00 0.  1.
</event>
<event>
 7    1  0.2855090E-009  0.2019293E+03  0.7561462E-02  0.1148121E+00
          1   -1    0    0  501    0  0.00000000000E+00  0.00000000000E+00  0.15244657965E+04  0.15244657965E+04  0.00000000000E+00 0. -1.
         -1   -1    0    0    0  501 -0.00000000000E+00 -0.00000000000E+00 -0.28999271357E+02  0.28999271357E+02  0.00000000000E+00 0.  1.
         25    2    1    2    0    0  0.81844642969E+02 -0.15814513434E+03  0.67854061478E+03  0.71258117299E+03  0.12508450384E+03 0.  0.
          5    1    3    3  502    0 -0.14869314243E+02 -0.76201973922E+02  0.14902833891E+03  0.16809150940E+03  0.41800000000E+01 0. -1.
         -5    1    3    3    0  502  0.96713957211E+02 -0.81943160415E+02  0.52951227587E+03  0.54448966359E+03  0.41800000000E+01 0. -1.
        -11    1    1    2    0    0  0.19699920761E+02  0.26423921821E+02  0.13907677355E+03  0.14292886155E+03  0.00000000000E+00 0.  1.
         11    1    1    2    0    0 -0.10154456373E+03  0.13172121252E+03  0.67784913680E+03  0.69795503330E+03  0.00000000000E+00 0. -1.
</event>
<event>
 7    1  0.2855090E-009  0.1016275E+03  0.7561462E-02  0.1276910E+00
          2   -1    0    0  501    0  0.00000000000E+00  0.00000000000E+00  0.90364728631E+03  0.90364728631E+03  0.00000000000E+00 0. -1.
         -2   -1    0    0    0  501 -0.00000000000E+00 -0.00000000000E+00 -0.18084868595E+02  0.18084868595E+02  0.00000000000E+00 0.  1.
         25    2    1    2    0    0 -0.25782922816E+02  0.39331258891E+02  0.66892079246E+03  0.68213929158E+03  0.12508908628E+03 0.  0.
          5    1    3    3  502    0 -0.12516601918E+02 -0.35069143830E+02  0.79603273638E+02  0.87981041972E+02  0.41800000000E+01 0.  1.
         -5    1    3    3    0  502 -0.13266320898E+02  0.74400402721E+02  0.58931751882E+03  0.59415824961E+03  0.41800000000E+01 0.  1.
        -11    1    1    2    0    0  0.53097798028E+02 -0.20495373368E+02  0.18569321748E+03  0.19421999769E+03  0.00000000000E+00 0. -1.
         11    1    1    2    0    0 -0.27314875212E+02 -0.18835885523E+02  0.30948407773E+02  0.45372865624E+02  0.00000000000E+00 0.  1.
</event>
<event>
 7    1  0.2855090E-009  0.1236665E+03  0.7561462E-02  0.1237168E+00
          2   -1    0    0  501    0  0.00000000000E+00  0.00000000000E+00  0.50986250609E+03  0.50986250609E+03  0.00000000000E+00 0.  1.
         -2   -1    0    0    0  501 -0.00000000000E+00 -0.00000000000E+00 -0.60356560076E+02  0.60356560076E+02  0.00000000000E+00 0. -1.
         25    2    1    2    0    0  0.91345674611E+02  0.47518922939E+02  0.30303904263E+03  0.34363114341E+03  0.12509045148E+03 0.  0.
          5    1    3    3  502    0  0.42875841315E+02 -0.15985319631E+02  0.21099650561E+02  0.50562197993E+02  0.41800000000E+01 0. -1.
         -5    1    3    3    0  502  0.48469833297E+02  0.63504242570E+02  0.28193939207E+03  0.29306894541E+03  0.41800000000E+01 0. -1.
        -11    1    1    2    0    0 -0.59138224867E+02  0.54555299991E+01 -0.82051184396E+01  0.59953452083E+02  0.00000000000E+00 0. -1.
         11    1    1    2    0    0 -0.32207449744E+02 -0.52974452938E+02  0.15467202182E+03  0.16663447068E+03  0.00000000000E+00 0.  1.
</event>
<event>
 7    1  0.2855090E-009  0.9013771E+02  0.7561462E-02  0.1302519E+00
         -2   -1    0    0    0  501 -0.00000000000E+00  0.00000000000E+00  0.85805603069E+02  0.85805603069E+02  0.00000000000E+00 0.  1.
          2   -1    0    0  501    0  0.00000000000E+00 -0.00000000000E+00 -0.28514692276E+03  0.28514692276E+03  0.00000000000E+00 0. -1.
         25    2    1    2    0    0  0.68904356785E+01  0.29586037521E+02  0.21312475206E+02  0.13047650501E+03  0.12508830897E+03 0.  0.
          5    1    3    3  502    0 -0.17030531857E+02  0.50659257797E+02 -0.36130560878E+02  0.64647422572E+02  0.41800000000E+01 0. -1.
         -5    1    3    3    0  502  0.23920967535E+02 -0.21073220276E+02  0.57443036084E+02  0.65829082442E+02  0.41800000000E+01 0. -1.
        -11    1    1    2    0    0 -0.18945333341E+02  0.29033759161E+02 -0.64123390218E+02  0.72895088994E+02  0.00000000000E+00 0. -1.
         11    1    1    2    0    0  0.12054897662E+02 -0.58619796682E+02 -0.15653040468E+03  0.16758093182E+03  0.00000000000E+00 0.  1.
</event>
<event>
 7    1  0.2855090E-009  0.1110388E+03  0.7561462E-02  0.1258658E+00
          1   -1    0    0  501    0  0.00000000000E+00  0.00000000000E+00  0.11647776117E+03  0.11647776117E+03  0.00000000000E+00 0. -1.
         -1   -1    0    0    0  501 -0.00000000000E+00 -0.00000000000E+00 -0.13161390777E+03  0.13161390777E+03  0.00000000000E+00 0.  1.
         25    2    1    2    0    0 -0.55355234846E+02 -0.85674609911E+01  0.17115817541E+02  0.13812385998E+03  0.12509055149E+03 0.  0.
          5    1    3    3  502    0 -0.55832464908E+02  0.45010181430E+02 -0.17831745775E+02  0.74017728467E+02  0.41800000000E+01 0.  1.
         -5    1    3    3    0  502  0.47723006215E+00 -0.53577642421E+02  0.34947563316E+02  0.64106131514E+02  0.41800000000E+01 0.  1.
        -11    1    1    2    0    0  0.20984158332E+02 -0.35119058651E+02  0.75487694056E+01  0.41601287252E+02  0.00000000000E+00 0. -1.
         11    1    1    2    0    0  0.34371076514E+02  0.43686519643E+02 -0.39800733542E+02  0.68366521702E+02  0.00000000000E+00 0.  1.
</event>
<event>
 7    1  0.2855090E-009  0.1140624E+03  0.7561462E-02  0.1253227E+00
          1   -1    0    0  501    0  0.00000000000E+00  0.00000000000E+00  0.30451289571E+03  0.30451289571E+03  0.00000000000E+00 0. -1.
         -1   -1    0    0    0  501 -0.00000000000E+00 -0.00000000000E+00 -0.69155748419E+02  0.69155748419E+02  0.00000000000E+00 0.  1.
         25    2    1    2    0    0 -0.66610780884E+02  0.42117698545E+02  0.19723752659E+03  0.24649895711E+03  0.12509275479E+03 0.  0.
          5    1    3    3  502    0 -0.40116215336E+02  0.83391930204E+02  0.15959859013E+03  0.18453375607E+03  0.41800000000E+01 0.  1.
         -5    1    3    3    0  502 -0.26494565549E+02 -0.41274231660E+02  0.37638936460E+02  0.61965201045E+02  0.41800000000E+01 0.  1.
        -11    1    1    2    0    0  0.23775893864E+02 -0.35789694623E+02 -0.25685677805E+02  0.50059458792E+02  0.00000000000E+00 0.  1.
         11    1    1    2    0    0  0.42834887020E+02 -0.63280039217E+01  0.63805298503E+02  0.77110228224E+02  0.00000000000E+00 0. -1.
</event>
<event>
 7    1  0.2855090E-009  0.9020844E+02  0.7561462E-02  0.1302348E+00
          1   -1    0    0  501    0  0.00000000000E+00  0.00000000000E+00  0.35691017480E+02  0.35691017480E+02  0.00000000000E+00 0. -1.
         -1   -1    0    0    0  501 -0.00000000000E+00 -0.00000000000E+00 -0.57791079840E+03  0.57791079840E+03  0.00000000000E+00 0.  1.
         25    2    1    2    0    0 -0.86657651735E+02 -0.20891279639E+02 -0.35744883489E+03  0.38905427712E+03  0.12509023469E+03 0.  0.
          5    1    3    3  502    0 -0.39953964773E+02 -0.98273508561E+00 -0.15086434110E+02  0.42922697533E+02  0.41800000000E+01 0. -1.
         -5    1    3    3    0  502 -0.46703686962E+02 -0.19908544554E+02 -0.34236240078E+03  0.34613157959E+03  0.41800000000E+01 0. -1.
        -11    1    1    2    0    0  0.58668533273E+02  0.11634699556E+02 -0.18565761570E+03  0.19505412915E+03  0.00000000000E+00 0.  1.
         11    1    1    2    0    0  0.27989118462E+02  0.92565800834E+01  0.88666967306E+00  0.29493409606E+02  0.00000000000E+00 0. -1.
</event>
<event>
 7    1  0.2855090E-009  0.1492073E+03  0.7561462E-02  0.1201450E+00
          1   -1    0    0  501    0  0.00000000000E+00  0.00000000000E+00  0.30640578425E+03  0.30640578425E+03  0.00000000000E+00 0. -1.
         -1   -1    0    0    0  501 -0.00000000000E+00 -0.00000000000E+00 -0.11699975102E+03  0.11699975102E+03  0.00000000000E+00 0.  1.
         25    2    1    2    0    0 -0.70686515882E+02  0.93977132485E+02 -0.16940683859E+02  0.17252586506E+03  0.12509956990E+03 0.  0.
          5    1    3    3  502    0  0.13571501844E+02  0.65451850062E+02 -0.43179100263E+02  0.79687122161E+02  0.41800000000E+01 0. -1.
         -5    1    3    3    0  502 -0.84258017726E+02  0.28525282424E+02  0.26238416403E+02  0.92838742903E+02  0.41800000000E+01 0. -1.
        -11    1    1    2    0    0  0.87743395303E+02 -0.66707752804E+02  0.15259441476E+03  0.18823889906E+03  0.00000000000E+00 0.  1.
         11    1    1    2    0    0 -0.17056879421E+02 -0.27269379681E+02  0.53752302322E+02  0.62640771137E+02  0.00000000000E+00 0. -1.
</event>
<event>
 7    1  0.3243108E-009  0.7082324E+02  0.7561462E-02  0.1357316E+00
         -1   -1    0    0    0  501 -0.00000000000E+00  0.00000000000E+00  0.35865295214E+02  0.35865295214E+02  0.00000000000E+00 0.  1.
          1   -1    0    0  501    0  0.00000000000E+00 -0.00000000000E+00 -0.36829339726E+03  0.36829339726E+03  0.00000000000E+00 0. -1.
         25    2    1    2    0    0 -0.30265892887E+02  0.23175723420E+02 -0.19790008495E+03  0.23720364463E+03  0.12509191409E+03 0.  0.
          5    1    3    3  502    0  0.33971964083E+02  0.64938981395E+01 -0.15311644766E+03  0.15702988251E+03  0.41800000000E+01 0. -1.
         -5    1    3    3    0  502 -0.64237856971E+02  0.16681825280E+02 -0.44783637290E+02  0.80173762116E+02  0.41800000000E+01 0. -1.
        -11    1    1    2    0    0  0.25261373215E+02 -0.11803430387E+02 -0.14683970649E+03  0.14946356529E+03  0.00000000000E+00 0. -1.
         11    1    1    2    0    0  0.50045196718E+01 -0.11372293033E+02  0.12311689404E+02  0.17491482554E+02  0.00000000000E+00 0.  1.
</event>
<event>
 7    1  0.2855090E-009  0.7087991E+02  0.7561462E-02  0.1357126E+00
          1   -1    0    0  501    0  0.00000000000E+00  0.00000000000E+00  0.17508688044E+03  0.17508688044E+03  0.00000000000E+00 0. -1.
         -1   -1    0    0    0  501 -0.00000000000E+00 -0.00000000000E+00 -0.94284071080E+02  0.94284071080E+02  0.00000000000E+00 0.  1.
         25    2    1    2    0    0  0.77067860048E+00  0.66454918289E+02  0.72366270036E+02  0.15907150092E+03  0.12510002100E+03 0.  0.
          5    1    3    3  502    0  0.34635842016E+01  0.49760482474E+02 -0.27898170595E+02  0.57305168651E+02  0.41800000000E+01 0. -1.
         -5    1    3    3    0  502 -0.26929056011E+01  0.16694435815E+02  0.10026444063E+03  0.10176633227E+03  0.41800000000E+01 0. -1.
        -11    1    1    2    0    0  0.14935614385E+02 -0.46799248776E+02 -0.34850687984E+02  0.60231326699E+02  0.00000000000E+00 0.  1.
         11    1    1    2    0    0 -0.15706292985E+02 -0.19655669513E+02  0.43287227311E+02  0.50068123907E+02  0.00000000000E+00 0. -1.
</event>
<event>
 7    1  0.2855090E-009  0.8611310E+02  0.7561462E-02  0.1312547E+00
         -2   -1    0    0    0  501 -0.00000000000E+00  0.00000000000E+00  0.36165291029E+02  0.36165291029E+02  0.00000000000E+00 0.  1.
          2   -1    0    0  501    0  0.00000000000E+00 -0.00000000000E+00 -0.64621220416E+03  0.64621220416E+03  0.00000000000E+00 0. -1.
         25    2    1    2    0    0  0.49017918761E+02 -0.68320879896E+02 -0.47589985973E+03  0.49919895418E+03  0.12509364643E+03 0.  0.
          5    1    3    3  502    0  0.30291346635E+02 -0.21794267239E+02 -0.24131259680E+02  0.44635701621E+02  0.41800000000E+01 0.  1.
         -5    1    3    3    0  502  0.18726572126E+02 -0.46526612657E+02 -0.45176860005E+03  0.45456325256E+03  0.41800000000E+01 0.  1.
        -11    1    1    2    0    0 -0.31764216072E+02  0.38677388711E+02 -0.13973461363E+03  0.14842731577E+03  0.00000000000E+00 0. -1.
         11    1    1    2    0    0 -0.17253702689E+02  0.29643491185E+02  0.55875602288E+01  0.34751225236E+02  0.00000000000E+00 0.  1.
</event>
<event>
 7    1  0.2855090E-009  0.9734650E+02  0.7561462E-02  0.1285977E+00
         -3   -1    0    0    0  501 -0.00000000000E+00  0.00000000000E+00  0.30024681728E+02  0.30024681728E+02  0.00000000000E+00 0.  1.
          3   -1    0    0  501    0  0.00000000000E+00 -0.00000000000E+00 -0.41581257630E+03  0.41581257630E+03  0.00000000000E+00 0. -1.
         25    2    1    2    0    0 -0.90915888596E+01  0.21241034952E+02 -0.25346771056E+03  0.28359987039E+03  0.12509663318E+03 0.  0.
          5    1    3    3  502    0  0.56523758419E+02  0.19438690719E+02 -0.14280680222E+03  0.15486785697E+03  0.41800000000E+01 0.  1.
         -5    1    3    3    0  502 -0.65615347278E+02  0.18023442337E+01 -0.11066090834E+03  0.12873201342E+03  0.41800000000E+01 0.  1.
        -11    1    1    2    0    0 -0.28085708100E+02 -0.54523088787E+01 -0.54914389023E+01  0.29132294328E+02  0.00000000000E+00 0.  1.
         11    1    1    2    0    0  0.37177296960E+02 -0.15788726074E+02 -0.12682874511E+03  0.13310509332E+03  0.00000000000E+00 0. -1.
</event>
<event>
 6    1  0.2855090E-009  0.1642168E+03  0.7561462E-02  0.1184017E+00
         -1   -1    0    0    0  501 -0.00000000000E+00  0.00000000000E+00  0.22373396302E+03  0.22373396302E+03  0.00000000000E+00 0.  1.
          1   -1    0    0  501    0  0.00000000000E+00 -0.00000000000E+00 -0.19102723675E+03  0.19102723675E+03  0.00000000000E+00 0. -1.
          5    1    1    2  502    0  0.95021212245E+02  0.10264127879E+03 -0.50489277727E+02  0.14876458736E+03  0.41800000000E+01 0. -1.
         -5    1    1    2    0  502 -0.33124100919E+02  0.24011176897E+02 -0.49197869363E+02  0.64122113405E+02  0.41800000000E+01 0. -1.
        -11    1    1    2    0    0 -0.17931601355E+02 -0.59162523235E+01  0.38012895516E+02  0.42444370584E+02  0.00000000000E+00 0.  1.
         11    1    1    2    0    0 -0.43965509970E+02 -0.12073620336E+03  0.94380977845E+02  0.15943012842E+03  0.00000000000E+00 0. -1.
</event>
<event>
 7    1  0.2855090E-009  0.2080956E+03  0.7561462E-02  0.1143083E+00
          2   -1    0    0  501    0  0.00000000000E+00  0.00000000000E+00  0.15646540309E+04  0.15646540309E+04  0.00000000000E+00 0. -1.
         -2   -1    0    0    0  501 -0.00000000000E+00 -0.00000000000E+00 -0.41186143164E+02  0.41186143164E+02  0.00000000000E+00 0.  1.
         25    2    1    2    0    0 -0.12548162934E+03 -0.13523297011E+03  0.11925888398E+04  0.12132392869E+04  0.12509129035E+03 0.  0.
          5    1    3    3  502    0 -0.14022449682E+02  0.13356264494E+02  0.34303188719E+03  0.34360350249E+03  0.41800000000E+01 0. -1.
         -5    1    3    3    0  502 -0.11145917965E+03 -0.14858923460E+03  0.84955695266E+03  0.86963578444E+03  0.41800000000E+01 0. -1.
        -11    1    1    2    0    0  0.16813086595E+02  0.92178184810E+02  0.13114216014E+03  0.16117618869E+03  0.00000000000E+00 0.  1.
         11    1    1    2    0    0  0.10866854274E+03  0.43054785301E+02  0.19973688774E+03  0.23142469843E+03  0.00000000000E+00 0. -1.
</event>
<event>
 7    1  0.2855090E-009  0.1517837E+03  0.7561462E-02  0.1198298E+00
         -3   -1    0    0    0  501 -0.00000000000E+00  0.00000000000E+00  0.11457260373E+03  0.11457260373E+03  0.00000000000E+00 0.  1.
          3   -1    0    0  501    0  0.00000000000E+00 -0.00000000000E+00 -0.32061614665E+03  0.32061614665E+03  0.00000000000E+00 0. -1.
         25    2    1    2    0    0 -0.51069723587E+02  0.11661595700E+03 -0.52313565375E+01  0.17855660335E+03  0.12509074871E+03 0.  0.
          5    1    3    3  502    0 -0.46648086750E+02  0.27051508190E+02 -0.53970950826E+02  0.76407879344E+02  0.41800000000E+01 0.  1.
         -5    1    3    3    0  502 -0.44216368373E+01  0.89564448814E+02  0.48739594288E+02  0.10214872400E+03  0.41800000000E+01 0.  1.
        -11    1    1    2    0    0  0.80088075729E+02 -0.86872930997E+02 -0.15218225350E+03  0.19266666627E+03  0.00000000000E+00 0.  1.
         11    1    1    2    0    0 -0.29018352142E+02 -0.29743026008E+02 -0.48629932879E+02  0.63965480761E+02  0.00000000000E+00 0. -1.
</event>
<event>
 7    1  0.2855090E-009  0.1144796E+03  0.7561462E-02  0.1252492E+00
         -3   -1    0    0    0  501 -0.00000000000E+00  0.00000000000E+00  0.35020608105E+02  0.35020608105E+02  0.00000000000E+00 0.  1.
          3   -1    0    0  501    0  0.00000000000E+00 -0.00000000000E+00 -0.54965952473E+03  0.54965952473E+03  0.00000000000E+00 0. -1.
         25    2    1    2    0    0 -0.49472146961E+02  0.34814132596E+02 -0.15127620224E+03  0.20540402307E+03  0.12508719428E+03 0.  0.
          5    1    3    3  502    0  0.16423929015E+02 -0.32500012826E+02 -0.14813793077E+02  0.39533746892E+02  0.41800000000E+01 0. -1.
         -5    1    3    3    0  502 -0.65896075977E+02  0.67314145422E+02 -0.13646240917E+03  0.16587027617E+03  0.41800000000E+01 0. -1.
        -11    1    1    2    0    0 -0.12348640913E+02  0.14418985034E+02 -0.22823539543E+02  0.29686866104E+02  0.00000000000E+00 0.  1.
         11    1    1    2    0    0  0.61820787874E+02 -0.49233117630E+02 -0.34053917484E+03  0.34958924366E+03  0.00000000000E+00 0. -1.
</event>
<event>
 7    1  0.2855090E-009  0.1230373E+03  0.7561462E-02  0.1238169E+00
         -2   -1    0    0    0  501 -0.00000000000E+00  0.00000000000E+00  0.28963647061E+02  0.28963647061E+02  0.00000000000E+00 0.  1.
          2   -1    0    0  501    0  0.00000000000E+00 -0.00000000000E+00 -0.56219821194E+03  0.56219821194E+03  0.00000000000E+00 0. -1.
         25    2    1    2    0    0 -0.54930434665E+02 -0.30270554029E+02 -0.24490915503E+03  0.28206683611E+03  0.12509015438E+03 0.  0.
          5    1    3    3  502    0 -0.60139915002E+02  0.35048314776E+02 -0.90283266194E+02  0.11407775550E+03  0.41800000000E+01 0.  1.
         -5    1    3    3    0  502  0.52094803375E+01 -0.65318868805E+02 -0.15462588883E+03  0.16798908061E+03  0.41800000000E+01 0.  1.
        -11    1    1    2    0    0  0.33126774867E+02  0.63102902413E+02 -0.16843846276E+03  0.18289580433E+03  0.00000000000E+00 0.  1.
         11    1    1    2    0    0  0.21803659798E+02 -0.32832348384E+02 -0.11988694709E+03  0.12619921856E+03  0.00000000000E+00 0. -1.
</event>
<event>
 7    1  0.2855090E-009  0.1396259E+03  0.7561462E-02  0.1213833E+00
         -2   -1    0    0    0  501 -0.00000000000E+00  0.00000000000E+00  0.97473753705E+02  0.97473753705E+02  0.00000000000E+00 0.  1.
          2   -1    0    0  501    0  0.00000000000E+00 -0.00000000000E+00 -0.20962524627E+03  0.20962524627E+03  0.00000000000E+00 0. -1.
         25    2    1    2    0    0 -0.39892121603E+02  0.82960320001E+02 -0.58486356556E+02  0.16595484883E+03  0.12508621781E+03 0.  0.
          5    1    3    3  502    0 -0.76475171341E+02  0.84406365451E+02 -0.26167310211E+02  0.11694052712E+03  0.41800000000E+01 0. -1.
         -5    1    3    3    0  502  0.36583049738E+02 -0.14460454503E+01 -0.32319046345E+02  0.49014321705E+02  0.41800000000E+01 0. -1.
        -11    1    1    2    0    0  0.44633551199E+02 -0.10065555032E+03 -0.36392810445E+02  0.11596607416E+03  0.00000000000E+00 0.  1.
         11    1    1    2    0    0 -0.47414295956E+01  0.17695230320E+02 -0.17272325568E+02  0.25178076996E+02  0.00000000000E+00 0. -1.
</event>
<event>
 7    1  0.2855090E-009  0.1235977E+03  0.7561462E-02  0.1237277E+00
         -1   -1    0    0    0  501 -0.00000000000E+00  0.00000000000E+00  0.37916457753E+02  0.37916457753E+02  0.00000000000E+00 0.  1.
          1   -1    0    0  501    0  0.00000000000E+00 -0.00000000000E+00 -0.42552246302E+03  0.42552246302E+03  0.00000000000E+00 0. -1.
         25    2    1    2    0    0  0.50200756608E+02 -0.39740380573E+02 -0.19461631504E+03  0.24004820710E+03  0.12509283688E+03 0.  0.
          5    1    3    3  502    0  0.76700451322E+01  0.44267691391E+02 -0.77932078824E+02  0.90051870626E+02  0.41800000000E+01 0. -1.
         -5    1    3    3    0  502  0.42530711475E+02 -0.84008071964E+02 -0.11668423621E+03  0.14999633647E+03  0.41800000000E+01 0. -1.
        -11    1    1    2    0    0 -0.64558531962E+02 -0.10605478670E+01 -0.82681711645E+02  0.10490564452E+03  0.00000000000E+00 0.  1.
         11    1    1    2    0    0  0.14357775354E+02  0.40800928440E+02 -0.11030797858E+03  0.11848506916E+03  0.00000000000E+00 0. -1.
</event>
<event>
 7    1  0.2855090E-009  0.1120393E+03  0.7561462E-02  0.1256839E+00
          2   -1    0    0  501    0  0.00000000000E+00  0.00000000000E+00  0.10364555888E+04  0.10364555888E+04  0.00000000000E+00 0. -1.
         -2   -1    0    0    0  501 -0.00000000000E+00 -0.00000000000E+00 -0.30530074349E+02  0.30530074349E+02  0.00000000000E+00 0.  1.
         25    2    1    2    0    0 -0.84192589709E+00 -0.78694406187E+02  0.88301869391E+03  0.89530063029E+03  0.12509071272E+03 0.  0.
          5    1    3    3  502    0 -0.44823893888E+02  0.10125315989E+02  0.20995669355E+03  0.21496741394E+03  0.41800000000E+01 0. -1.
         -5    1    3    3    0  502  0.43981967991E+02 -0.88819722177E+02  0.67306200035E+03  0.68033321635E+03  0.41800000000E+01 0. -1.
        -11    1    1    2    0    0  0.16720034716E+01  0.56216109291E+02  0.10704981741E+02  0.57250704568E+02  0.00000000000E+00 0.  1.
         11    1    1    2    0    0 -0.83007757454E+00  0.22478296896E+02  0.11220183882E+03  0.11443432831E+03  0.00000000000E+00 0. -1.
</event>
<event>
 7    1  0.2855090E-009  0.1019230E+03  0.7561462E-02  0.1276303E+00
          4   -1    0    0  501    0  0.00000000000E+00  0.00000000000E+00  0.16017154900E+03  0.16017154900E+03  0.00000000000E+00 0. -1.
         -4   -1    0    0    0  501 -0.00000000000E+00 -0.00000000000E+00 -0.12023877779E+03  0.12023877779E+03  0.00000000000E+00 0.  1.
         25    2    1    2    0    0  0.22203196742E+02  0.79669975506E+02 -0.83710827379E+01  0.15019202806E+03  0.12508910154E+03 0.  0.
          5    1    3    3  502    0  0.17491122651E+02  0.60634594969E+02  0.54943801101E+02  0.83778202166E+02  0.41800000000E+01 0. -1.
         -5    1    3    3    0  502  0.47120740910E+01  0.19035380537E+02 -0.63314883839E+02  0.66413825895E+02  0.41800000000E+01 0. -1.
        -11    1    1    2    0    0  0.23654983957E+02 -0.69721855348E+02  0.24453176162E+02  0.77579979399E+02  0.00000000000E+00 0.  1.
         11    1    1    2    0    0 -0.45858180700E+02 -0.99481201580E+01  0.23850677788E+02  0.52638319338E+02  0.00000000000E+00 0. -1.
</event>
<event>
 7    1  0.2855090E-009  0.1389523E+03  0.7561462E-02  0.1214746E+00
         -2   -1    0    0    0  501 -0.00000000000E+00  0.00000000000E+00  0.23039502765E+02  0.23039502765E+02  0.00000000000E+00 0.  1.
          2   -1    0    0  501    0  0.00000000000E+00 -0.00000000000E+00 -0.11132467159E+04  0.11132467159E+04  0.00000000000E+00 0. -1.
         25    2    1    2    0    0 -0.65601041413E+02 -0.90053112416E+02 -0.44737490138E+03  0.47770711569E+03  0.12508687504E+03 0.  0.
          5    1    3    3  502    0 -0.49188726138E+02 -0.56299397461E+01 -0.32077660351E+03  0.32460180030E+03  0.41800000000E+01 0. -1.
         -5    1    3    3    0  502 -0.16412315275E+02 -0.84423172670E+02 -0.12659829787E+03  0.15310531539E+03  0.41800000000E+01 0. -1.
        -11    1    1    2    0    0 -0.20033407982E+02  0.34942576364E+02 -0.21998990510E+03  0.22364677378E+03  0.00000000000E+00 0.  1.
         11    1    1    2    0    0  0.85634449395E+02  0.55110536053E+02 -0.42284240662E+03  0.43493232915E+03  0.00000000000E+00 0. -1.
</event>
<event>
 7    1  0.2855090E-009  0.1052508E+03  0.7561462E-02  0.1269626E+00
          1   -1    0    0  501    0  0.00000000000E+00  0.00000000000E+00  0.11974082067E+03  0.11974082067E+03  0.00000000000E+00 0. -1.
         -1   -1    0    0    0  501 -0.00000000000E+00 -0.00000000000E+00 -0.10366806903E+03  0.10366806903E+03  0.00000000000E+00 0.  1.
         25    2    1    2    0    0  0.25461307135E+02 -0.53352972971E+01  0.17011314268E+02  0.12889300802E+03  0.12508908484E+03 0.  0.
          5    1    3    3  502    0 -0.37503696867E+02  0.29440960035E+02 -0.14847520829E+02  0.50112061235E+02  0.41800000000E+01 0.  1.
         -5    1    3    3    0  502  0.62965004002E+02 -0.34776257332E+02  0.31858835096E+02  0.78780946787E+02  0.41800000000E+01 0.  1.
        -11    1    1    2    0    0  0.39138903407E+00 -0.39141401503E+02 -0.13770896461E+02  0.41495060987E+02  0.00000000000E+00 0.  1.
         11    1    1    2    0    0 -0.25852696169E+02  0.44476698800E+02  0.12832333835E+02  0.53020820693E+02  0.00000000000E+00 0. -1.
</event>
<event>
 7    1  0.3150267E-009  0.1126752E+03  0.7561462E-02  0.1255694E+00
         -2   -1    0    0    0  501 -0.00000000000E+00  0.00000000000E+00  0.86530086321E+02  0.86530086321E+02  0.00000000000E+00 0.  1.
          2   -1    0    0  501    0  0.00000000000E+00 -0.00000000000E+00 -0.37247879266E+03  0.37247879266E+03  0.00000000000E+00 0. -1.
         25    2    1    2    0    0 -0.37039842940E+02  0.70931107829E+02 -0.14464854212E+00  0.14848817962E+03  0.12508215917E+03 0.  0.
          5    1    3    3  502    0  0.38642828249E+02  0.25836938396E+02  0.29766661731E+02  0.55356500173E+02  0.41800000000E+01 0.  1.
         -5    1    3    3    0  502 -0.75682671189E+02  0.45094169433E+02 -0.29911310273E+02  0.93131679451E+02  0.41800000000E+01 0.  1.
        -11    1    1    2    0    0 -0.39608619911E+01 -0.37137586536E+02 -0.26413968868E+02  0.45744797658E+02  0.00000000000E+00 0.  1.
         11    1    1    2    0    0  0.41000704931E+02 -0.33793521294E+02 -0.25939008893E+03  0.26477590170E+03  0.00000000000E+00 0. -1.
</event>
<event>
 7    1  0.2855090E-009  0.9152973E+02  0.7561462E-02  0.1299189E+00
          2   -1    0    0  501    0  0.00000000000E+00  0.00000000000E+00  0.39236579201E+03  0.39236579201E+03  0.00000000000E+00 0. -1.
         -2   -1    0    0    0  501 -0.00000000000E+00 -0.00000000000E+00 -0.39101583930E+02  0.39101583930E+02  0.00000000000E+00 0.  1.
         25    2    1    2    0    0  0.16309038675E+01  0.59668918485E+02  0.21421309306E+03  0.25514406357E+03  0.12509278260E+03 0.  0.
          5    1    3    3  502    0  0.29097295771E+02  0.17524090846E+02  0.19971351937E+03  0.20262455084E+03  0.41800000000E+01 0.  1.
         -5    1    3    3    0  502 -0.27466391903E+02  0.42144827639E+02  0.14499573683E+02  0.52519512735E+02  0.41800000000E+01 0.  1.
        -11    1    1    2    0    0 -0.36992794330E+02 -0.49050553282E+02  0.47658574748E+02  0.77754506985E+02  0.00000000000E+00 0.  1.
         11    1    1    2    0    0  0.35361890462E+02 -0.10618365204E+02  0.91392540273E+02  0.98568805381E+02  0.00000000000E+00 0. -1.
</event>
<event>
 7    1  0.2855090E-009  0.8573834E+02  0.7561462E-02  0.1313513E+00
         -1   -1    0    0    0  501 -0.00000000000E+00  0.00000000000E+00  0.40284990197E+02  0.40284990197E+02  0.00000000000E+00 0.  1.
          1   -1    0    0  501    0  0.00000000000E+00 -0.00000000000E+00 -0.39652233609E+03  0.39652233609E+03  0.00000000000E+00 0. -1.
         25    2    1    2    0    0 -0.26809107288E+01  0.50774825004E+02 -0.25426444278E+03  0.28789497900E+03  0.12509133436E+03 0.  0.
          5    1    3    3  502    0 -0.18671020749E+02  0.81567748393E+02 -0.23148077653E+03  0.24617621107E+03  0.41800000000E+01 0.  1.
         -5    1    3    3    0  502  0.15990110020E+02 -0.30792923390E+02 -0.22783666252E+02  0.41718767926E+02  0.41800000000E+01 0.  1.
        -11    1    1    2    0    0  0.77890153049E+01 -0.18536202773E+02  0.16509636889E+02  0.26015912109E+02  0.00000000000E+00 0.  1.
         11    1    1    2    0    0 -0.51081045762E+01 -0.32238622230E+02 -0.11848254000E+03  0.12289643518E+03  0.00000000000E+00 0. -1.
</event>
<event>
 7    1  0.2855090E-009  0.1572109E+03  0.7561462E-02  0.1191882E+00
         -1   -1    0    0    0  501 -0.00000000000E+00  0.00000000000E+00  0.25916599647E+03  0.25916599647E+03  0.00000000000E+00 0.  1.
          1   -1    0    0  501    0  0.00000000000E+00 -0.00000000000E+00 -0.13649577491E+03  0.13649577491E+03  0.00000000000E+00 0. -1.
         25    2    1    2    0    0  0.13016460209E+03 -0.24112796615E+02  0.14580423543E+03  0.23330109292E+03  0.12508506820E+03 0.  0.
          5    1    3    3  502    0 -0.19627006286E+02  0.16673339398E+02  0.14005483830E+02  0.29611578812E+02  0.41800000000E+01 0.  1.
         -5    1    3    3    0  502  0.14979160838E+03 -0.40786136013E+02  0.13179875160E+03  0.20368951411E+03  0.41800000000E+01 0.  1.
        -11    1    1    2    0    0 -0.61003404689E+02  0.17979500910E+02 -0.56733723832E+02  0.85225543450E+02  0.00000000000E+00 0. -1.
         11    1    1    2    0    0 -0.69161197406E+02  0.61332957052E+01  0.33599709959E+02  0.77135135005E+02  0.00000000000E+00 0.  1.
</event>
<event>
 7    1  0.2855090E-009  0.8787971E+02  0.7561462E-02  0.1308069E+00
          1   -1    0    0  501    0  0.00000000000E+00  0.00000000000E+00  0.38005688996E+03  0.38005688996E+03  0.00000000000E+00 0. -1.
         -1   -1    0    0    0  501 -0.00000000000E+00 -0.00000000000E+00 -0.35266275950E+02  0.35266275950E+02  0.00000000000E+00 0.  1.
         25    2    1    2    0    0 -0.19258048228E+02 -0.43839553962E+01  0.25683578907E+03  0.28636250465E+03  0.12509504400E+03 0.  0.
          5    1    3    3  502    0 -0.59821906656E+02  0.14964633167E+01  0.22878774550E+03  0.23652104517E+03  0.41800000000E+01 0. -1.
         -5    1    3    3    0  502  0.40563858427E+02 -0.58804187129E+01  0.28048043574E+02  0.49841459480E+02  0.41800000000E+01 0. -1.
        -11    1    1    2    0    0  0.46403326492E+02  0.83201797607E+01  0.12642787031E+02  0.48809160663E+02  0.00000000000E+00 0.  1.
         11    1    1    2    0    0 -0.27145278263E+02 -0.39362243645E+01  0.75312037911E+02  0.80151500601E+02  0.00000000000E+00 0. -1.
</event>
<event>
 7    1  0.2855090E-009  0.1125467E+03  0.7561462E-02  0.1255925E+00
          1   -1    0    0  501    0  0.00000000000E+00  0.00000000000E+00  0.68307552439E+02  0.68307552439E+02  0.00000000000E+00 0. -1.
         -1   -1    0    0    0  501 -0.00000000000E+00 -0.00000000000E+00 -0.22286738140E+03  0.22286738140E+03  0.00000000000E+00 0.  1.
         25    2    1    2    0    0  0.31395112312E+02  0.64043833267E+02 -0.96020935258E+02  0.17307904510E+03  0.12509624370E+03 0.  0.
          5    1    3    3  502    0  0.73643975575E+02  0.10380701104E+02 -0.60612540175E+02  0.96034090407E+02  0.41800000000E+01 0.  1.
         -5    1    3    3    0  502 -0.42248863263E+02  0.53663132163E+02 -0.35408395083E+02  0.77044954689E+02  0.41800000000E+01 0.  1.
        -11    1    1    2    0    0 -0.40643017591E+02 -0.42876698365E+02 -0.44082641938E+01  0.59242712082E+02  0.00000000000E+00 0. -1.
         11    1    1    2    0    0  0.92479052797E+01 -0.21167134902E+02 -0.54130629511E+02  0.58853176663E+02  0.00000000000E+00 0.  1.
</event>
<event>
 7    1  0.2855090E-009  0.1030745E+03  0.7561462E-02  0.1273960E+00
          1   -1    0    0  501    0  0.00000000000E+00  0.00000000000E+00  0.48114388931E+03  0.48114388931E+03  0.00000000000E+00 0. -1.
         -1   -1    0    0    0  501 -0.00000000000E+00 -0.00000000000E+00 -0.36996284691E+02  0.36996284691E+02  0.00000000000E+00 0.  1.
         25    2    1    2    0    0 -0.49974207889E+02 -0.35652753065E+01  0.35533942001E+03  0.38003109499E+03  0.12508955634E+03 0.  0.
          5    1    3    3  502    0 -0.13427378033E+02 -0.44028967800E+02  0.43626626979E+02  0.63557843481E+02  0.41800000000E+01 0. -1.
         -5    1    3    3    0  502 -0.36546829856E+02  0.40463692493E+02  0.31171279303E+03  0.31647325151E+03  0.41800000000E+01 0. -1.
        -11    1    1    2    0    0 -0.27465196351E+02 -0.24301752297E+01  0.29534261753E+02  0.40404398023E+02  0.00000000000E+00 0. -1.
         11    1    1    2    0    0  0.77439404240E+02  0.59954505362E+01  0.59273922858E+02  0.97704680989E+02  0.00000000000E+00 0.  1.
</event>
<event>
 7    1  0.2855090E-009  0.2079960E+03  0.7561462E-02  0.1143163E+00
          1   -1    0    0  501    0  0.00000000000E+00  0.00000000000E+00  0.20819307684E+03  0.20819307684E+03  0.00000000000E+00 0. -1.
         -1   -1    0    0    0  501 -0.00000000000E+00 -0.00000000000E+00 -0.21560470944E+03  0.21560470944E+03  0.00000000000E+00 0.  1.
         25    2    1    2    0    0 -0.17704013569E+03 -0.38700767796E+02  0.13686983949E+02  0.22062470669E+03  0.12508784353E+03 0.  0.
          5    1    3    3  502    0 -0.18715412944E+02  0.39188507778E+02  0.50054360569E+01  0.43915061353E+02  0.41800000000E+01 0.  1.
         -5    1    3    3    0  502 -0.15832472274E+03 -0.77889275574E+02  0.86815478920E+01  0.17670964534E+03  0.41800000000E+01 0.  1.
        -11    1    1    2    0    0  0.15399649073E+03  0.37980743629E+01  0.45514271037E+01  0.15411054479E+03  0.00000000000E+00 0.  1.
         11    1    1    2    0    0  0.23043644955E+02  0.34902693433E+02 -0.25650043653E+02  0.49062534801E+02  0.00000000000E+00 0. -1.
</event>
<event>
 7    1  0.2855090E-009  0.1478375E+03  0.7561462E-02  0.1203156E+00
          2   -1    0    0  501    0  0.00000000000E+00  0.00000000000E+00  0.32298472012E+03  0.32298472012E+03  0.00000000000E+00 0. -1.
         -2   -1    0    0    0  501 -0.00000000000E+00 -0.00000000000E+00 -0.92447746840E+02  0.92447746840E+02  0.00000000000E+00 0.  1.
         25    2    1    2    0    0  0.72299192461E+02  0.10054809339E+03  0.18570480364E+03  0.25587178972E+03  0.12508799449E+03 0.  0.
          5    1    3    3  502    0  0.57691035330E+02  0.19908759098E+02  0.15772842158E+03  0.16917547583E+03  0.41800000000E+01 0. -1.
         -5    1    3    3    0  502  0.14608157130E+02  0.80639334293E+02  0.27976382061E+02  0.86696313896E+02  0.41800000000E+01 0. -1.
        -11    1    1    2    0    0 -0.78439271128E+01 -0.86013501925E+02  0.17882195212E+02  0.88202168973E+02  0.00000000000E+00 0.  1.
         11    1    1    2    0    0 -0.64455265348E+02 -0.14534591467E+02  0.26949974424E+02  0.71358508264E+02  0.00000000000E+00 0. -1.
</event>
<event>
 7    1  0.2855090E-009  0.1099578E+03  0.7561462E-02  0.1260648E+00
          2   -1    0    0  501    0  0.00000000000E+00  0.00000000000E+00  0.74923278325E+03  0.74923278325E+03  0.00000000000E+00 0. -1.
         -2   -1    0    0    0  501 -0.00000000000E+00 -0.00000000000E+00 -0.19652360961E+02  0.19652360961E+02  0.00000000000E+00 0.  1.
         25    2    1    2    0    0 -0.14268244132E+02 -0.54372667590E+02  0.41669139343E+03  0.43867908144E+03  0.12509056466E+03 0.  0.
          5    1    3    3  502    0  0.15900015418E+02  0.31508734412E+02  0.53482013826E+02  0.64213776073E+02  0.41800000000E+01 0.  1.
         -5    1    3    3    0  502 -0.30168259551E+02 -0.85881402002E+02  0.36320937960E+03  0.37446530537E+03  0.41800000000E+01 0.  1.
        -11    1    1    2    0    0  0.43275527498E+02  0.18353602731E+02  0.80156329373E+02  0.92922888203E+02  0.00000000000E+00 0.  1.
         11    1    1    2    0    0 -0.29007283366E+02  0.36019064859E+02  0.23273269949E+03  0.23728317457E+03  0.00000000000E+00 0. -1.
</event>
<event>
 7    1  0.2855090E-009  0.1777842E+03  0.7561462E-02  0.1169965E+00
         -4   -1    0    0    0  501 -0.00000000000E+00  0.00000000000E+00  0.22243597037E+03  0.22243597037E+03  0.00000000000E+00 0.  1.
          4   -1    0    0  501    0  0.00000000000E+00 -0.00000000000E+00 -0.14770579281E+03  0.14770579281E+03  0.00000000000E+00 0. -1.
         25    2    1    2    0    0 -0.62217175287E+02 -0.13274728217E+03  0.73393023091E+01  0.19285776679E+03  0.12508970793E+03 0.  0.
          5    1    3    3  502    0 -0.21856035036E+02  0.22357231156E+02 -0.55020481083E+01  0.32019946687E+02  0.41800000000E+01 0. -1.
         -5    1    3    3    0  502 -0.40361140251E+02 -0.15510451332E+03  0.12841350417E+02  0.16083782011E+03  0.41800000000E+01 0. -1.
        -11    1    1    2    0    0  0.29003205064E+02  0.23035947240E+01  0.81185289708E+01  0.30206008762E+02  0.00000000000E+00 0.  1.
         11    1    1    2    0    0  0.33213970223E+02  0.13044368744E+03  0.59272346281E+02  0.14707798763E+03  0.00000000000E+00 0. -1.
</event>
<event>
 7    1  0.2855090E-009  0.9468437E+02  0.7561462E-02  0.1291889E+00
         -2   -1    0    0    0  501 -0.00000000000E+00  0.00000000000E+00  0.30452227102E+02  0.30452227102E+02  0.00000000000E+00 0.  1.
          2   -1    0    0  501    0  0.00000000000E+00 -0.00000000000E+00 -0.49761639428E+03  0.49761639428E+03  0.00000000000E+00 0. -1.
         25    2    1    2    0    0 -0.21127344455E+02 -0.82704068427E+01 -0.37488692890E+03  0.39585626889E+03  0.12508881583E+03 0.  0.
          5    1    3    3  502    0 -0.57478879023E+02  0.21926312194E+02 -0.30639705407E+03  0.31253993640E+03  0.41800000000E+01 0.  1.
         -5    1    3    3    0  502  0.36351534568E+02 -0.30196719036E+02 -0.68489874830E+02  0.83316332494E+02  0.41800000000E+01 0.  1.
        -11    1    1    2    0    0  0.34289393613E+02  0.35910414233E+02 -0.19654189533E+02  0.53400445044E+02  0.00000000000E+00 0.  1.
         11    1    1    2    0    0 -0.13162049158E+02 -0.27640007390E+02 -0.72623048747E+02  0.78811907450E+02  0.00000000000E+00 0. -1.
</event>
<event>
 6    1  0.2855090E-009  0.1209927E+03  0.7561462E-02  0.1241468E+00
         -2   -1    0    0    0  501 -0.00000000000E+00  0.00000000000E+00  0.11614668583E+04  0.11614668583E+04  0.00000000000E+00 0. -1.
          2   -1    0    0  501    0  0.00000000000E+00 -0.00000000000E+00 -0.33876948698E+02  0.33876948698E+02  0.00000000000E+00 0.  1.
          5    1    1    2  502    0 -0.81878119649E+02  0.12549227662E+02  0.90476019642E+03  0.90855379314E+03  0.41800000000E+01 0. -1.
         -5    1    1    2    0  502  0.10292966831E+02 -0.39965925145E+02  0.12701415848E+03  0.13361620109E+03  0.41800000000E+01 0. -1.
        -11    1    1    2    0    0 -0.83530752965E+01 -0.22036024801E+02  0.31237848404E+02  0.39130083425E+02  0.00000000000E+00 0. -1.
         11    1    1    2    0    0  0.79938228114E+02  0.49452722283E+02  0.64577706316E+02  0.11404372937E+03  0.00000000000E+00 0.  1.
</event>
<event>
 7    1  0.2855090E-009  0.1295854E+03  0.7561462E-02  0.1228072E+00
          1   -1    0    0  501    0  0.00000000000E+00  0.00000000000E+00  0.50325096439E+02  0.50325096439E+02  0.00000000000E+00 0. -1.
         -1   -1    0    0    0  501 -0.00000000000E+00 -0.00000000000E+00 -0.34151121901E+03  0.34151121901E+03  0.00000000000E+00 0.  1.
         25    2    1    2    0    0 -0.45595305812E+02  0.54059612108E+02 -0.13480555316E+03  0.19703089367E+03  0.12508901761E+03 0.  0.
          5    1    3    3  502    0  0.12445857528E+02 -0.34571229666E+02 -0.26718736581E+02  0.45622719940E+02  0.41800000000E+01 0.  1.
         -5    1    3    3    0  502 -0.58041163341E+02  0.88630841775E+02 -0.10808681658E+03  0.15140817373E+03  0.41800000000E+01 0.  1.
        -11    1    1    2    0    0  0.71520384817E+02 -0.21782096677E+02 -0.10106982498E+03  0.12571688312E+03  0.00000000000E+00 0. -1.
         11    1    1    2    0    0 -0.25925079004E+02 -0.32277515432E+02 -0.55310744433E+02  0.69088538655E+02  0.00000000000E+00 0.  1.
</event>
<event>
 7    1  0.2855090E-009  0.1161902E+03  0.7561462E-02  0.1249518E+00
          1   -1    0    0  501    0  0.00000000000E+00  0.00000000000E+00  0.16513905356E+03  0.16513905356E+03  0.00000000000E+00 0. -1.
         -1   -1    0    0    0  501 -0.00000000000E+00 -0.00000000000E+00 -0.10092617013E+03  0.10092617013E+03  0.00000000000E+00 0.  1.
         25    2    1    2    0    0 -0.62936750055E+02 -0.16358611382E+02  0.49996132733E+02  0.14958655590E+03  0.12509150948E+03 0.  0.
          5    1    3    3  502    0 -0.99991428770E+02 -0.18796133551E+02  0.46837815454E+02  0.11208404802E+03  0.41800000000E+01 0.  1.
         -5    1    3    3    0  502  0.37054678716E+02  0.24375221695E+01  0.31583172788E+01  0.37502507877E+02  0.41800000000E+01 0.  1.
        -11    1    1    2    0    0  0.58342790124E+02 -0.16001953143E+02  0.41945338795E+02  0.73616269333E+02  0.00000000000E+00 0. -1.
         11    1    1    2    0    0  0.45939599304E+01  0.32360564524E+02 -0.27728588095E+02  0.42862398462E+02  0.00000000000E+00 0.  1.
</event>
<event>
 7    1  0.2855090E-009  0.1045105E+03  0.7561462E-02  0.1271087E+00
         -2   -1    0    0    0  501 -0.00000000000E+00  0.00000000000E+00  0.14188855585E+03  0.14188855585E+03  0.00000000000E+00 0.  1.
          2   -1    0    0  501    0  0.00000000000E+00 -0.00000000000E+00 -0.11579442071E+03  0.11579442071E+03  0.00000000000E+00 0. -1.
         25    2    1    2    0    0 -0.39274620887E+02 -0.43456034732E+02  0.49885235278E+02  0.14685615496E+03  0.12508905128E+03 0.  0.
          5    1    3    3  502    0  0.13445037110E+02  0.20247975993E+02 -0.25073609275E+02  0.35169700550E+02  0.41800000000E+01 0. -1.
         -5    1    3    3    0  502 -0.52719657997E+02 -0.63704010725E+02  0.74958844553E+02  0.11168645441E+03  0.41800000000E+01 0. -1.
        -11    1    1    2    0    0  0.24122276256E+02  0.68316118964E+02  0.11972537443E+01  0.72459711141E+02  0.00000000000E+00 0.  1.
         11    1    1    2    0    0  0.15152344631E+02 -0.24860084232E+02 -0.24988353874E+02  0.38367110461E+02  0.00000000000E+00 0. -1.
</event>
<event>
 7    1  0.2855090E-009  0.1309448E+03  0.7561462E-02  0.1226060E+00
         -1   -1    0    0    0  501 -0.00000000000E+00  0.00000000000E+00  0.16463656678E+02  0.16463656678E+02  0.00000000000E+00 0.  1.
          1   -1    0    0  501    0  0.00000000000E+00 -0.00000000000E+00 -0.13356444033E+04  0.13356444033E+04  0.00000000000E+00 0. -1.
         25    2    1    2    0    0  0.97934250104E+02 -0.19176040341E+02 -0.72230190717E+03  0.73981586882E+03  0.12509451143E+03 0.  0.
          5    1    3    3  502    0  0.69918536035E+02  0.24905708033E+02 -0.17666337951E+03  0.19166720646E+03  0.41800000000E+01 0. -1.
         -5    1    3    3    0  502  0.28015714068E+02 -0.44081748375E+02 -0.54563852766E+03  0.54814866236E+03  0.41800000000E+01 0. -1.
        -11    1    1    2    0    0 -0.76191334170E+02 -0.29607984277E+02 -0.31748417571E+03  0.32783830460E+03  0.00000000000E+00 0. -1.
         11    1    1    2    0    0 -0.21742915934E+02  0.48784024618E+02 -0.27939466373E+03  0.28445388655E+03  0.00000000000E+00 0.  1.
</event>
<event>
 7    1  0.2855090E-009  0.1243882E+03  0.7561462E-02  0.1236028E+00
         -2   -1    0    0    0  501 -0.00000000000E+00  0.00000000000E+00  0.12950742292E+03  0.12950742292E+03  0.00000000000E+00 0. -1.
          2   -1    0    0  501    0  0.00000000000E+00 -0.00000000000E+00 -0.15687782262E+03  0.15687782262E+03  0.00000000000E+00 0.  1.
         25    2    1    2    0    0 -0.36410737835E+01  0.70407792253E+02 -0.72990235602E+02  0.16107743379E+03  0.12509136883E+03 0.  0.
          5    1    3    3  502    0 -0.20443485646E+02 -0.31121960235E+02 -0.35074727776E+02  0.51324667002E+02  0.41800000000E+01 0.  1.
         -5    1    3    3    0  502  0.16802411862E+02  0.10152975249E+03 -0.37915507825E+02  0.10975276679E+03  0.41800000000E+01 0.  1.
        -11    1    1    2    0    0  0.41375894026E+02 -0.21775588507E+02  0.43273463568E+02  0.63708190293E+02  0.00000000000E+00 0. -1.
         11    1    1    2    0    0 -0.37734820243E+02 -0.48632203746E+02  0.23463723307E+01  0.61599621452E+02  0.00000000000E+00 0.  1.
</event>
<event>
 7    1  0.2855090E-009  0.1887174E+03  0.7561462E-02  0.1159623E+00
          1   -1    0    0  501    0  0.00000000000E+00  0.00000000000E+00  0.15581481011E+04  0.15581481011E+04  0.00000000000E+00 0.  1.
         -1   -1    0    0    0  501 -0.00000000000E+00 -0.00000000000E+00 -0.28751522500E+02  0.28751522500E+02  0.00000000000E+00 0. -1.
         25    2    1    2    0    0 -0.78197872296E+02 -0.15177325289E+03  0.10235444888E+04  0.10452009261E+04  0.12510646582E+03 0.  0.
          5    1    3    3  502    0 -0.55557201282E+02 -0.15270313695E+03  0.61855825945E+03  0.63955972621E+03  0.41800000000E+01 0.  1.
         -5    1    3    3    0  502 -0.22640671014E+02  0.92988406338E+00  0.40498622936E+03  0.40564119988E+03  0.41800000000E+01 0.  1.
        -11    1    1    2    0    0 -0.18246917140E+02  0.11346546515E+02  0.85022620379E+02  0.87695724406E+02  0.00000000000E+00 0.  1.
         11    1    1    2    0    0  0.96444789436E+02  0.14042670637E+03  0.42082946944E+03  0.45400297314E+03  0.00000000000E+00 0. -1.
</event>
<event>
 7    1  0.2855090E-009  0.1152824E+03  0.7561462E-02  0.1251089E+00
         -1   -1    0    0    0  501 -0.00000000000E+00  0.00000000000E+00  0.28702715746E+02  0.28702715746E+02  0.00000000000E+00 0.  1.
          1   -1    0    0  501    0  0.00000000000E+00 -0.00000000000E+00 -0.64286539601E+03  0.64286539601E+03  0.00000000000E+00 0. -1.
         25    2    1    2    0    0 -0.12618778647E+02 -0.44613538941E+02 -0.49844147113E+03  0.51598524264E+03  0.12508904449E+03 0.  0.
          5    1    3    3  502    0  0.13657825079E+02 -0.84060193507E+02 -0.34195097912E+03  0.35242105051E+03  0.41800000000E+01 0.  1.
         -5    1    3    3    0  502 -0.26276603726E+02  0.39446654566E+02 -0.15649049201E+03  0.16356419213E+03  0.41800000000E+01 0.  1.
        -11    1    1    2    0    0 -0.34504240361E+02  0.26270544391E+01 -0.68548082392E+02  0.76787262079E+02  0.00000000000E+00 0. -1.
         11    1    1    2    0    0  0.47123019008E+02  0.41986484502E+02 -0.47173126743E+02  0.78795607035E+02  0.00000000000E+00 0.  1.
</event>
<event>
 7    1  0.3709049E-009  0.1621334E+03  0.7561462E-02  0.1186309E+00
         -2   -1    0    0    0  501 -0.00000000000E+00  0.00000000000E+00  0.18188258444E+02  0.18188258444E+02  0.00000000000E+00 0.  1.
          2   -1    0    0  501    0  0.00000000000E+00 -0.00000000000E+00 -0.17477205811E+04  0.17477205811E+04  0.00000000000E+00 0. -1.
         25    2    1    2    0    0  0.99603474643E+02  0.89089942463E+02 -0.11423324345E+04  0.11569046127E+04  0.12508805682E+03 0.  0.
          5    1    3    3  502    0  0.80819412273E+02 -0.97501647204E+01 -0.56645730833E+03  0.57229205627E+03  0.41800000000E+01 0.  1.
         -5    1    3    3    0  502  0.18784062370E+02  0.98840107184E+02 -0.57587512617E+03  0.58461255643E+03  0.41800000000E+01 0.  1.
        -11    1    1    2    0    0 -0.48460323022E+02 -0.12645015390E+02 -0.86720070941E+02  0.10014324753E+03  0.00000000000E+00 0.  1.
         11    1    1    2    0    0 -0.51143151621E+02 -0.76444927073E+02 -0.50047981721E+03  0.50886097932E+03  0.00000000000E+00 0. -1.
</event>
<event>
 7    1  0.2855090E-009  0.1688707E+03  0.7561462E-02  0.1179031E+00
         -1   -1    0    0    0  501 -0.00000000000E+00  0.00000000000E+00  0.41142179558E+02  0.41142179558E+02  0.00000000000E+00 0. -1.
          1   -1    0    0  501    0  0.00000000000E+00 -0.00000000000E+00 -0.91010806811E+03  0.91010806811E+03  0.00000000000E+00 0.  1.
         25    2    1    2    0    0 -0.15564586703E+03 -0.36648980035E+02 -0.43263763438E+03  0.47790392485E+03  0.12509218617E+03 0.  0.
          5    1    3    3  502    0 -0.12532949452E+03 -0.60055852708E+02 -0.20933742088E+03  0.25130422962E+03  0.41800000000E+01 0.  1.
         -5    1    3    3    0  502 -0.30316372505E+02  0.23406872673E+02 -0.22330021350E+03  0.22659969523E+03  0.41800000000E+01 0.  1.
        -11    1    1    2    0    0  0.11243091762E+03  0.30740537543E+02 -0.18788084443E+03  0.22109930708E+03  0.00000000000E+00 0. -1.
         11    1    1    2    0    0  0.43214949405E+02  0.59084424917E+01 -0.24844740974E+03  0.25224701574E+03  0.00000000000E+00 0.  1.
</event>
<event>
 7    1  0.2855090E-009  0.8763988E+02  0.7561462E-02  0.1308670E+00
         -3   -1    0    0    0  501 -0.00000000000E+00  0.00000000000E+00  0.46992689384E+03  0.46992689384E+03  0.00000000000E+00 0.  1.
          3   -1    0    0  501    0  0.00000000000E+00 -0.00000000000E+00 -0.29412579592E+02  0.29412579592E+02  0.00000000000E+00 0. -1.
         25    2    1    2    0    0  0.10595339897E+02 -0.66262847931E+01  0.33286996173E+03  0.35581868011E+03  0.12509337638E+03 0.  0.
          5    1    3    3  502    0 -0.39045129765E+02 -0.38104018223E+01  0.31886013406E+02  0.50727029988E+02  0.41800000000E+01 0. -1.
         -5    1    3    3    0  502  0.49640469663E+02 -0.28158829708E+01  0.30098394833E+03  0.30509165012E+03  0.41800000000E+01 0. -1.
        -11    1    1    2    0    0 -0.42390314868E+02 -0.17660279398E+02  0.26426237198E+02  0.52982735636E+02  0.00000000000E+00 0. -1.
         11    1    1    2    0    0  0.31794974971E+02  0.24286564192E+02  0.81218115319E+02  0.90538057686E+02  0.00000000000E+00 0.  1.
</event>
<event>
 7    1  0.2855090E-009  0.5551036E+02  0.7561462E-02  0.1417701E+00
          1   -1    0    0  501    0  0.00000000000E+00  0.00000000000E+00  0.57565748453E+03  0.57565748453E+03  0.00000000000E+00 0. -1.
         -1   -1    0    0    0  501 -0.00000000000E+00 -0.00000000000E+00 -0.21284844964E+02  0.21284844964E+02  0.00000000000E+00 0.  1.
         25    2    1    2    0    0  0.40311462321E+01 -0.12484473525E+02  0.36221700492E+03  0.38343046993E+03  0.12508259032E+03 0.  0.
          5    1    3    3  502    0 -0.91594803423E+01  0.25995065035E+01 -0.77054187662E+01  0.12942155638E+02  0.41800000000E+01 0. -1.
         -5    1    3    3    0  502  0.13190626574E+02 -0.15083980029E+02  0.36992242369E+03  0.37048831430E+03  0.41800000000E+01 0. -1.
        -11    1    1    2    0    0  0.20299589927E+02  0.39122740456E+02  0.49116491293E+02  0.65993120012E+02  0.00000000000E+00 0.  1.
         11    1    1    2    0    0 -0.24330736160E+02 -0.26638266930E+02  0.14303914335E+03  0.14751873955E+03  0.00000000000E+00 0. -1.
</event>
<event>
 7    1  0.2855090E-009  0.1318036E+03  0.7561462E-02  0.1224804E+00
         -2   -1    0    0    0  501 -0.00000000000E+00  0.00000000000E+00  0.18342149684E+03  0.18342149684E+03  0.00000000000E+00 0.  1.
          2   -1    0    0  501    0  0.00000000000E+00 -0.00000000000E+00 -0.10684103064E+03  0.10684103064E+03  0.00000000000E+00 0. -1.
         25    2    1    2    0    0 -0.78807840462E+02  0.29551853589E+02  0.67898798454E+02  0.16535355546E+03  0.12509022225E+03 0.  0.
          5    1    3    3  502    0  0.20180536156E+02  0.42395950328E+02  0.52530163158E+01  0.47431394921E+02  0.41800000000E+01 0. -1.
         -5    1    3    3    0  502 -0.98988376618E+02 -0.12844096740E+02  0.62645782138E+02  0.11792216054E+03  0.41800000000E+01 0. -1.
        -11    1    1    2    0    0  0.92786878990E+02 -0.11152624262E+02  0.24855634389E+02  0.96703611626E+02  0.00000000000E+00 0.  1.
         11    1    1    2    0    0 -0.13979038528E+02 -0.18399229326E+02 -0.16173966647E+02  0.28205360396E+02  0.00000000000E+00 0. -1.
</event>
<event>
 7    1  0.2855090E-009  0.6571367E+02  0.7561462E-02  0.1375307E+00
          1   -1    0    0  501    0  0.00000000000E+00  0.00000000000E+00  0.31941775639E+02  0.31941775639E+02  0.00000000000E+00 0. -1.
         -1   -1    0    0    0  501 -0.00000000000E+00 -0.00000000000E+00 -0.38708784734E+03  0.38708784734E+03  0.00000000000E+00 0.  1.
         25    2    1    2    0    0 -0.15247712812E+02 -0.19401514749E+02 -0.23692776854E+03  0.26905717473E+03  0.12509230292E+03 0.  0.
          5    1    3    3  502    0  0.13401795094E+02 -0.28981386766E+01  0.11516470242E+02  0.18387735216E+02  0.41800000000E+01 0. -1.
         -5    1    3    3    0  502 -0.28649507906E+02 -0.16503376072E+02 -0.24844423878E+03  0.25066943952E+03  0.41800000000E+01 0. -1.
        -11    1    1    2    0    0 -0.33058380087E+02  0.10161053080E+02 -0.19554934116E+02  0.39730327735E+02  0.00000000000E+00 0. -1.
         11    1    1    2    0    0  0.48306092898E+02  0.92404616688E+01 -0.98663369051E+02  0.11024212051E+03  0.00000000000E+00 0.  1.
</event>
<event>
 7    1  0.2855090E-009  0.1055121E+03  0.7561462E-02  0.1269114E+00
          1   -1    0    0  501    0  0.00000000000E+00  0.00000000000E+00  0.54055409331E+03  0.54055409331E+03  0.00000000000E+00 0. -1.
         -1   -1    0    0    0  501 -0.00000000000E+00 -0.00000000000E+00 -0.22538757476E+02  0.22538757476E+02  0.00000000000E+00 0.  1.
         25    2    1    2    0    0 -0.50883712578E+01 -0.22917041583E+02  0.29987830717E+03  0.32576888940E+03  0.12508911973E+03 0.  0.
          5    1    3    3  502    0 -0.34817389693E+02  0.40886236260E+02  0.96526714701E+02  0.11053874430E+03  0.41800000000E+01 0.  1.
         -5    1    3    3    0  502  0.29729018436E+02 -0.63803277843E+02  0.20335159247E+03  0.21523014510E+03  0.41800000000E+01 0.  1.
        -11    1    1    2    0    0  0.30959222448E+02  0.43634783609E+02  0.17455751047E+03  0.18257270403E+03  0.00000000000E+00 0. -1.
         11    1    1    2    0    0 -0.25870851190E+02 -0.20717742025E+02  0.43579518192E+02  0.54751257353E+02  0.00000000000E+00 0.  1.
</event>
<event>
 7    1  0.2855090E-009  0.8418033E+02  0.7561462E-02  0.1317590E+00
          1   -1    0    0  501    0  0.00000000000E+00  0.00000000000E+00  0.85385406388E+02  0.85385406388E+02  0.00000000000E+00 0. -1.
         -1   -1    0    0    0  501 -0.00000000000E+00 -0.00000000000E+00 -0.14796460864E+03  0.14796460864E+03  0.00000000000E+00 0.  1.
         25    2    1    2    0    0  0.15581064023E+02  0.41871665695E+02 -0.37528762084E+02  0.13802952065E+03  0.12509090552E+03 0.  0.
          5    1    3    3  502    0 -0.29204902596E+02  0.18307886130E+02 -0.69733281605E+02  0.77899345271E+02  0.41800000000E+01 0. -1.
         -5    1    3    3    0  502  0.44785966619E+02  0.23563779565E+02  0.32204519521E+02  0.60130175378E+02  0.41800000000E+01 0. -1.
        -11    1    1    2    0    0 -0.40167306543E+02 -0.42215689950E+02 -0.35902155743E+02  0.68443712493E+02  0.00000000000E+00 0.  1.
         11    1    1    2    0    0  0.24586242520E+02  0.34402425426E+00  0.10851715571E+02  0.26876781891E+02  0.00000000000E+00 0. -1.
</event>
<event>
 7    1  0.2855090E-009  0.4912523E+03  0.7561462E-02  0.1016088E+00
         -1   -1    0    0    0  501 -0.00000000000E+00  0.00000000000E+00  0.81792910741E+03  0.81792910741E+03  0.00000000000E+00 0.  1.
          1   -1    0    0  501    0  0.00000000000E+00 -0.00000000000E+00 -0.32368948249E+03  0.32368948249E+03  0.00000000000E+00 0. -1.
         25    2    1    2    0    0  0.45597047379E+03  0.17180876198E+03  0.38643460060E+03  0.63435489945E+03  0.12508842575E+03 0.  0.
          5    1    3    3  502    0  0.13815392199E+03  0.94468462551E+02  0.77765684944E+02  0.18459623705E+03  0.41800000000E+01 0.  1.
         -5    1    3    3    0  502  0.31781655180E+03  0.77340299427E+02  0.30866891565E+03  0.44975866240E+03  0.41800000000E+01 0.  1.
        -11    1    1    2    0    0 -0.32558435282E+03 -0.10989772339E+03  0.11602765621E+03  0.36269146311E+03  0.00000000000E+00 0.  1.
         11    1    1    2    0    0 -0.13038612098E+03 -0.61911038589E+02 -0.82226318827E+01  0.14457222734E+03  0.00000000000E+00 0. -1.
</event>
<event>
 7    1  0.2855090E-009  0.1169284E+03  0.7561462E-02  0.1248252E+00
         -3   -1    0    0    0  501 -0.00000000000E+00  0.00000000000E+00  0.80364819224E+02  0.80364819224E+02  0.00000000000E+00 0.  1.
          3   -1    0    0  501    0  0.00000000000E+00 -0.00000000000E+00 -0.17305072707E+03  0.17305072707E+03  0.00000000000E+00 0. -1.
         25    2    1    2    0    0  0.38956751484E+02  0.23955958392E+02 -0.64896767028E+02  0.14815700816E+03  0.12508953700E+03 0.  0.
          5    1    3    3  502    0  0.80167513005E+02 -0.82167870172E+01 -0.41162656024E+02  0.90587981439E+02  0.41800000000E+01 0. -1.
         -5    1    3    3    0  502 -0.41210761521E+02  0.32172745409E+02 -0.23734111004E+02  0.57569026719E+02  0.41800000000E+01 0. -1.
        -11    1    1    2    0    0 -0.53062393947E+02 -0.48833805964E+02 -0.25804114321E+02  0.76591191218E+02  0.00000000000E+00 0. -1.
         11    1    1    2    0    0  0.14105642463E+02  0.24877847572E+02 -0.19850264987E+01  0.28667346918E+02  0.00000000000E+00 0.  1.
</event>
<event>
 7    1  0.2855090E-009  0.3027985E+03  0.7561462E-02  0.1083850E+00
         -1   -1    0    0    0  501 -0.00000000000E+00  0.00000000000E+00  0.11545727226E+03  0.11545727226E+03  0.00000000000E+00 0.  1.
          1   -1    0    0  501    0  0.00000000000E+00 -0.00000000000E+00 -0.85455940039E+03  0.85455940039E+03  0.00000000000E+00 0. -1.
         25    2    1    2    0    0  0.11469659039E+03  0.26822963195E+03 -0.31114323915E+03  0.44447753930E+03  0.12509086446E+03 0.  0.
          5    1    3    3  502    0  0.79085916041E+02  0.26092618591E+03 -0.23489212538E+03  0.35990115251E+03  0.41800000000E+01 0. -1.
         -5    1    3    3    0  502  0.35610674349E+02  0.73034460345E+01 -0.76251113769E+02  0.84576386790E+02  0.41800000000E+01 0. -1.
        -11    1    1    2    0    0 -0.24875525305E+02 -0.12356589328E+03 -0.12216967303E+03  0.17553561106E+03  0.00000000000E+00 0.  1.
         11    1    1    2    0    0 -0.89821065085E+02 -0.14466373867E+03 -0.30578921596E+03  0.35000352229E+03  0.00000000000E+00 0. -1.
</event>
<event>
 7    1  0.2855090E-009  0.2910388E+03  0.7561462E-02  0.1089808E+00
         -1   -1    0    0    0  501 -0.00000000000E+00  0.00000000000E+00  0.56186376725E+03  0.56186376725E+03  0.00000000000E+00 0.  1.
          1   -1    0    0  501    0  0.00000000000E+00 -0.00000000000E+00 -0.18641093145E+03  0.18641093145E+03  0.00000000000E+00 0. -1.
         25    2    1    2    0    0  0.16909156546E+03 -0.21678900869E+03  0.34175537413E+03  0.45610839219E+03  0.12509475561E+03 0.  0.
          5    1    3    3  502    0  0.70976109250E+02 -0.17896712096E+03  0.18310739284E+03  0.26573036744E+03  0.41800000000E+01 0.  1.
         -5    1    3    3    0  502  0.98115456210E+02 -0.37821887731E+02  0.15864798129E+03  0.19037802475E+03  0.41800000000E+01 0.  1.
        -11    1    1    2    0    0 -0.14869968490E+03  0.21794952592E+03  0.14669363229E+02  0.26425136207E+03  0.00000000000E+00 0. -1.
         11    1    1    2    0    0 -0.20391880562E+02 -0.11605172304E+01  0.19028098431E+02  0.27914944438E+02  0.00000000000E+00 0.  1.
</event>
<event>
 7    1  0.2855090E-009  0.9586117E+02  0.7561462E-02  0.1289248E+00
         -1   -1    0    0    0  501 -0.00000000000E+00  0.00000000000E+00  0.14482656772E+03  0.14482656772E+03  0.00000000000E+00 0.  1.
          1   -1    0    0  501    0  0.00000000000E+00 -0.00000000000E+00 -0.91768624821E+02  0.91768624821E+02  0.00000000000E+00 0. -1.
         25    2    1    2    0    0 -0.26170505029E+02  0.24975045017E+02  0.18592279507E+02  0.13153752228E+03  0.12509116157E+03 0.  0.
          5    1    3    3  502    0  0.39336517128E+02 -0.54348519597E+01  0.39569816619E+02  0.56215140156E+02  0.41800000000E+01 0. -1.
         -5    1    3    3    0  502 -0.65507022157E+02  0.30409896977E+02 -0.20977537112E+02  0.75322382127E+02  0.41800000000E+01 0. -1.
        -11    1    1    2    0    0  0.15481478060E+02  0.24419038681E+02  0.44948320319E+02  0.53444523691E+02  0.00000000000E+00 0. -1.
         11    1    1    2    0    0  0.10689026969E+02 -0.49394083698E+02 -0.10482656931E+02  0.51613146564E+02  0.00000000000E+00 0.  1.
</event>
<event>
 7    1  0.3511965E-009  0.1402839E+03  0.7561462E-02  0.1212948E+00
         -1   -1    0    0    0  501 -0.00000000000E+00  0.00000000000E+00  0.44768657654E+02  0.44768657654E+02  0.00000000000E+00 0.  1.
          1   -1    0    0  501    0  0.00000000000E+00 -0.00000000000E+00 -0.61324916696E+03  0.61324916696E+03  0.00000000000E+00 0. -1.
         25    2    1    2    0    0 -0.71930320461E+02  0.10136856341E+03 -0.28038869242E+03  0.33123085974E+03  0.12508599825E+03 0.  0.
          5    1    3    3  502    0 -0.33358809380E+02  0.84358967859E+02 -0.27366444867E+03  0.28833825360E+03  0.41800000000E+01 0.  1.
         -5    1    3    3    0  502 -0.38571511082E+02  0.17009595554E+02 -0.67242437521E+01  0.42892606147E+02  0.41800000000E+01 0.  1.
        -11    1    1    2    0    0  0.72242625685E+02 -0.33685352563E+02 -0.10675496368E+03  0.13323033519E+03  0.00000000000E+00 0.  1.
         11    1    1    2    0    0 -0.31230522346E+00 -0.67683210851E+02 -0.18133685320E+03  0.19355662968E+03  0.00000000000E+00 0. -1.
</event>
<event>
 7    1  0.2855090E-009  0.8449232E+02  0.7561462E-02  0.1316766E+00
          1   -1    0    0  501    0  0.00000000000E+00  0.00000000000E+00  0.11782885675E+03  0.11782885675E+03  0.00000000000E+00 0. -1.
         -1   -1    0    0    0  501 -0.00000000000E+00 -0.00000000000E+00 -0.12373452533E+03  0.12373452533E+03  0.00000000000E+00 0.  1.
         25    2    1    2    0    0  0.39993139942E+02  0.32650438412E+02 -0.10681201593E+02  0.13574834858E+03  0.12509206092E+03 0.  0.
          5    1    3    3  502    0 -0.92883665296E+01  0.15412892567E+02  0.51344305203E+02  0.54566849706E+02  0.41800000000E+01 0. -1.
         -5    1    3    3    0  502  0.49281506471E+02  0.17237545845E+02 -0.62025506796E+02  0.81181498878E+02  0.41800000000E+01 0. -1.
        -11    1    1    2    0    0 -0.64061936108E+02 -0.95437514415E+01  0.21823710074E+02  0.68346829998E+02  0.00000000000E+00 0. -1.
         11    1    1    2    0    0  0.24068796166E+02 -0.23106686970E+02 -0.17048177061E+02  0.37468203489E+02  0.00000000000E+00 0.  1.
</event>
<event>
 7    1  0.2855090E-009  0.1123436E+03  0.7561462E-02  0.1256290E+00
         -3   -1    0    0    0  501 -0.00000000000E+00  0.00000000000E+00  0.27930108763E+03  0.27930108763E+03  0.00000000000E+00 0.  1.
          3   -1    0    0  501    0  0.00000000000E+00 -0.00000000000E+00 -0.63422231359E+02  0.63422231359E+02  0.00000000000E+00 0. -1.
         25    2    1    2    0    0 -0.23643513563E+02  0.50202654341E+02  0.51873291153E+02  0.14634992246E+03  0.12509252269E+03 0.  0.
          5    1    3    3  502    0 -0.61582105647E+02  0.70232737174E+02  0.31423111607E+02  0.98640141170E+02  0.41800000000E+01 0. -1.
         -5    1    3    3    0  502  0.37938592084E+02 -0.20030082834E+02  0.20450179545E+02  0.47709781294E+02  0.41800000000E+01 0. -1.
        -11    1    1    2    0    0 -0.23285971412E+02 -0.70552811871E+01  0.46937806542E+01  0.24779932084E+02  0.00000000000E+00 0. -1.
         11    1    1    2    0    0  0.46929484975E+02 -0.43147373154E+02  0.15931178446E+03  0.17159346444E+03  0.00000000000E+00 0.  1.
</event>
<event>
 7    1  0.2855090E-009  0.1675370E+03  0.7561462E-02  0.1180441E+00
          3   -1    0    0  501    0  0.00000000000E+00  0.00000000000E+00  0.68457318445E+02  0.68457318445E+02  0.00000000000E+00 0. -1.
         -3   -1    0    0    0  501 -0.00000000000E+00 -0.00000000000E+00 -0.60417245032E+03  0.60417245032E+03  0.00000000000E+00 0.  1.
         25    2    1    2    0    0  0.11600346858E+03  0.92518840595E+02 -0.13756564896E+03  0.23786706517E+03  0.12505955513E+03 0.  0.
          5    1    3    3  502    0  0.29461285684E+02  0.81873066716E+02 -0.12086935875E+03  0.14899006911E+03  0.41800000000E+01 0. -1.
         -5    1    3    3    0  502  0.86542182899E+02  0.10645773880E+02 -0.16696290211E+02  0.88876996063E+02  0.41800000000E+01 0. -1.
        -11    1    1    2    0    0 -0.22710214788E+02 -0.56090138617E+02 -0.24045082200E+03  0.24794849326E+03  0.00000000000E+00 0.  1.
         11    1    1    2    0    0 -0.93293253795E+02 -0.36428701978E+02 -0.15769866090E+03  0.18681421033E+03  0.00000000000E+00 0. -1.
</event>
<event>
 7    1  0.2855090E-009  0.1952792E+03  0.7561462E-02  0.1153784E+00
         -1   -1    0    0    0  501 -0.00000000000E+00  0.00000000000E+00  0.11523466714E+04  0.11523466714E+04  0.00000000000E+00 0.  1.
          1   -1    0    0  501    0  0.00000000000E+00 -0.00000000000E+00 -0.37827382722E+02  0.37827382722E+02  0.00000000000E+00 0. -1.
         25    2    1    2    0    0 -0.12769117106E+03  0.11706656225E+03  0.46957913934E+03  0.51590879541E+03  0.12509077468E+03 0.  0.
          5    1    3    3  502    0 -0.22627752360E+02  0.78906468180E+02  0.31213250538E+03  0.32277301500E+03  0.41800000000E+01 0.  1.
         -5    1    3    3    0  502 -0.10506341870E+03  0.38160094072E+02  0.15744663396E+03  0.19313578041E+03  0.41800000000E+01 0.  1.
        -11    1    1    2    0    0  0.11197861565E+03 -0.41652104674E+02  0.37794886905E+03  0.39638296608E+03  0.00000000000E+00 0. -1.
         11    1    1    2    0    0  0.15712555410E+02 -0.75414457578E+02  0.26699128032E+03  0.27788229266E+03  0.00000000000E+00 0.  1.
</event>
<event>
 7    1  0.2855090E-009  0.7232029E+02  0.7561462E-02  0.1352376E+00
         -3   -1    0    0    0  501 -0.00000000000E+00  0.00000000000E+00  0.73936022751E+02  0.73936022751E+02  0.00000000000E+00 0.  1.
          3   -1    0    0  501    0  0.00000000000E+00 -0.00000000000E+00 -0.21313372072E+03  0.21313372072E+03  0.00000000000E+00 0. -1.
         25    2    1    2    0    0  0.24312094307E+02 -0.57424316506E+02 -0.66844549895E+02  0.15493651087E+03  0.12509395867E+03 0.  0.
          5    1    3    3  502    0  0.11298804018E+02 -0.30923716245E+02  0.35346033787E+02  0.48484571805E+02  0.41800000000E+01 0.  1.
         -5    1    3    3    0  502  0.13013290289E+02 -0.26500600261E+02 -0.10219058368E+03  0.10645193907E+03  0.41800000000E+01 0.  1.
        -11    1    1    2    0    0  0.13743802329E+02  0.12725294778E+01 -0.61996599427E+02  0.63514484759E+02  0.00000000000E+00 0. -1.
         11    1    1    2    0    0 -0.38055896636E+02  0.56151787028E+02 -0.10356548649E+02  0.68618747840E+02  0.00000000000E+00 0.  1.
</event>
<event>
 7    1  0.2855090E-009  0.1261233E+03  0.7561462E-02  0.1233324E+00
          4   -1    0    0  501    0  0.00000000000E+00  0.00000000000E+00  0.13154272898E+03  0.13154272898E+03  0.00000000000E+00 0. -1.
         -4   -1    0    0    0  501 -0.00000000000E+00 -0.00000000000E+00 -0.13163491975E+03  0.13163491975E+03  0.00000000000E+00 0.  1.
         25    2    1    2    0    0 -0.77142197713E+02  0.55316286378E+01  0.26680804477E+02  0.14946942810E+03  0.12509087508E+03 0.  0.
          5    1    3    3  502    0 -0.10151168856E+03 -0.23211416329E+02  0.20097735811E+01  0.10423485191E+03  0.41800000000E+01 0. -1.
         -5    1    3    3    0  502  0.24369490848E+02  0.28743044967E+02  0.24671030896E+02  0.45234576196E+02  0.41800000000E+01 0. -1.
        -11    1    1    2    0    0  0.33700201782E+02  0.36493655096E+02 -0.16864992781E+02  0.52458730865E+02  0.00000000000E+00 0.  1.
         11    1    1    2    0    0  0.43441995931E+02 -0.42025283734E+02 -0.99080024663E+01  0.61249489763E+02  0.00000000000E+00 0. -1.
</event>
<event>
 7    1  0.2855090E-009  0.1052149E+03  0.7561462E-02  0.1269697E+00
          2   -1    0    0  501    0  0.00000000000E+00  0.00000000000E+00  0.87918354089E+03  0.87918354089E+03  0.00000000000E+00 0.  1.
         -2   -1    0    0    0  501 -0.00000000000E+00 -0.00000000000E+00 -0.14310699252E+02  0.14310699252E+02  0.00000000000E+00 0. -1.
         25    2    1    2    0    0 -0.15111013142E+02 -0.86510051463E+01  0.63048735743E+03  0.64301319946E+03  0.12509390147E+03 0.  0.
          5    1    3    3  502    0  0.53873936384E+01  0.55426406055E+02  0.21715286983E+03  0.22421853575E+03  0.41800000000E+01 0. -1.
         -5    1    3    3    0  502 -0.20498406781E+02 -0.64077411202E+02  0.41333448760E+03  0.41879466370E+03  0.41800000000E+01 0. -1.
        -11    1    1    2    0    0 -0.22918840930E+02  0.34340403340E+02  0.90943653925E+02  0.99876347352E+02  0.00000000000E+00 0. -1.
         11    1    1    2    0    0  0.38029854073E+02 -0.25689398194E+02  0.14344183028E+03  0.15060469333E+03  0.00000000000E+00 0.  1.
</event>
<event>
 7    1  0.2855090E-009  0.5895056E+02  0.7561462E-02  0.1402289E+00
         -4   -1    0    0    0  501 -0.00000000000E+00  0.00000000000E+00  0.22421255346E+03  0.22421255346E+03  0.00000000000E+00 0.  1.
          4   -1    0    0  501    0  0.00000000000E+00 -0.00000000000E+00 -0.59615430421E+02  0.59615430421E+02  0.00000000000E+00 0. -1.
         25    2    1    2    0    0 -0.25703584960E+02  0.71239557371E+01  0.81329923096E+02  0.15154317515E+03  0.12505739689E+03 0.  0.
          5    1    3    3  502    0 -0.22606596760E+01 -0.26335539149E+02  0.10208087347E+03  0.10553031949E+03  0.41800000000E+01 0.  1.
         -5    1    3    3    0  502 -0.23442925284E+02  0.33459494886E+02 -0.20750950372E+02  0.46012855652E+02  0.41800000000E+01 0.  1.
        -11    1    1    2    0    0  0.37503611831E+02 -0.32130032331E+01  0.10260751561E+03  0.10929385413E+03  0.00000000000E+00 0.  1.
         11    1    1    2    0    0 -0.11800026871E+02 -0.39109525040E+01 -0.19340315668E+02  0.22990954608E+02  0.00000000000E+00 0. -1.
</event>
<event>
 7    1  0.2855090E-009  0.5365592E+02  0.7561462E-02  0.1426564E+00
          1   -1    0    0  501    0  0.00000000000E+00  0.00000000000E+00  0.55259041904E+02  0.55259041904E+02  0.00000000000E+00 0. -1.
         -1   -1    0    0    0  501 -0.00000000000E+00 -0.00000000000E+00 -0.22099978379E+03  0.22099978379E+03  0.00000000000E+00 0.  1.
         25    2    1    2    0    0  0.18080310951E+02 -0.87710907735E+01 -0.10678958561E+03  0.16569886210E+03  0.12509303589E+03 0.  0.
          5    1    3    3  502    0  0.13985742933E+02 -0.56853894506E+01  0.27284470935E+02  0.31461713443E+02  0.41800000000E+01 0. -1.
         -5    1    3    3    0  502  0.40945680184E+01 -0.30857013228E+01 -0.13407405655E+03  0.13423714866E+03  0.41800000000E+01 0. -1.
        -11    1    1    2    0    0 -0.50636021639E+02 -0.21812407540E+01 -0.11482710524E+02  0.51967462316E+02  0.00000000000E+00 0. -1.
         11    1    1    2    0    0  0.32555710688E+02  0.10952331527E+02 -0.47468445753E+02  0.58592501282E+02  0.00000000000E+00 0.  1.
</event>
<event>
 7    1  0.2855090E-009  0.2168957E+03  0.7561462E-02  0.1136219E+00
          1   -1    0    0  501    0  0.00000000000E+00  0.00000000000E+00  0.18839120601E+03  0.18839120601E+03  0.00000000000E+00 0. -1.
         -1   -1    0    0    0  501 -0.00000000000E+00 -0.00000000000E+00 -0.28282563978E+03  0.28282563978E+03  0.00000000000E+00 0.  1.
         25    2    1    2    0    0 -0.14983376729E+02 -0.19674437536E+03 -0.84322417949E+00  0.23362683955E+03  0.12509171963E+03 0.  0.
          5    1    3    3  502    0  0.39510191746E+02 -0.13566158760E+02  0.56345784499E+01  0.42359376643E+02  0.41800000000E+01 0. -1.
         -5    1    3    3    0  502 -0.54493568475E+02 -0.18317821660E+03 -0.64778026294E+01  0.19126746291E+03  0.41800000000E+01 0. -1.
        -11    1    1    2    0    0  0.70332666153E+00  0.17258569356E+03 -0.11040088544E+03  0.20487721151E+03  0.00000000000E+00 0.  1.
         11    1    1    2    0    0  0.14280050068E+02  0.24158681795E+02  0.16809675859E+02  0.32712794722E+02  0.00000000000E+00 0. -1.
</event>
<event>
 6    1  0.2855090E-009  0.1006979E+03  0.7561462E-02  0.1278835E+00
         -2   -1    0    0    0  501 -0.00000000000E+00  0.00000000000E+00  0.49549126148E+02  0.49549126148E+02  0.00000000000E+00 0.  1.
          2   -1    0    0  501    0  0.00000000000E+00 -0.00000000000E+00 -0.25903246638E+03  0.25903246638E+03  0.00000000000E+00 0. -1.
          5    1    1    2  502    0  0.45549256342E+02 -0.11548876637E+02 -0.25508982932E+02  0.53631072291E+02  0.41800000000E+01 0. -1.
         -5    1    1    2    0  502 -0.70308563408E+02  0.11540629885E+02 -0.12248671288E+03  0.14176370290E+03  0.41800000000E+01 0. -1.
        -11    1    1    2    0    0  0.53569581947E+02 -0.41897432255E+01 -0.64462624788E+02  0.83920700979E+02  0.00000000000E+00 0. -1.
         11    1    1    2    0    0 -0.28810274882E+02  0.41979899774E+01  0.29749803693E+01  0.29266116360E+02  0.00000000000E+00 0.  1.
</event>
<event>
 7    1  0.2855090E-009  0.1047745E+03  0.7561462E-02  0.1270564E+00
          2   -1    0    0  501    0  0.00000000000E+00  0.00000000000E+00  0.51086837137E+02  0.51086837137E+02  0.00000000000E+00 0. -1.
         -2   -1    0    0    0  501 -0.00000000000E+00 -0.00000000000E+00 -0.32547085925E+03  0.32547085925E+03  0.00000000000E+00 0.  1.
         25    2    1    2    0    0 -0.62539430769E+02 -0.21054100198E+02 -0.11731254638E+03  0.18374996790E+03  0.12508941454E+03 0.  0.
          5    1    3    3  502    0  0.18279781217E+02  0.26844525132E+02 -0.72555640616E+02  0.79602589883E+02  0.41800000000E+01 0.  1.
         -5    1    3    3    0  502 -0.80819211986E+02 -0.47898625330E+02 -0.44756905760E+02  0.10414737802E+03  0.41800000000E+01 0.  1.
        -11    1    1    2    0    0  0.43837553123E+01  0.24131970081E+02  0.79720092082E+00  0.24539861856E+02  0.00000000000E+00 0. -1.
         11    1    1    2    0    0  0.58155675456E+02 -0.30778698828E+01 -0.15786867665E+03  0.16826786663E+03  0.00000000000E+00 0.  1.
</event>
<event>
 7    1  0.2855090E-009  0.1214760E+03  0.7561462E-02  0.1240682E+00
         -1   -1    0    0    0  501 -0.00000000000E+00  0.00000000000E+00  0.12673871542E+03  0.12673871542E+03  0.00000000000E+00 0.  1.
          1   -1    0    0  501    0  0.00000000000E+00 -0.00000000000E+00 -0.12154305442E+03  0.12154305442E+03  0.00000000000E+00 0. -1.
         25    2    1    2    0    0 -0.31315950838E+02  0.50965752507E+02 -0.68020440423E+01  0.13882548539E+03  0.12509216956E+03 0.  0.
          5    1    3    3  502    0  0.29495560715E+02 -0.23509617999E+02  0.13844503663E+02  0.40395951802E+02  0.41800000000E+01 0. -1.
         -5    1    3    3    0  502 -0.60811511553E+02  0.74475370506E+02 -0.20646547705E+02  0.98429533584E+02  0.41800000000E+01 0. -1.
        -11    1    1    2    0    0  0.47356168363E+02  0.76693519398E+01  0.66523896764E+01  0.48432219954E+02  0.00000000000E+00 0. -1.
         11    1    1    2    0    0 -0.16040217525E+02 -0.58635104447E+02  0.53453153727E+01  0.61024064500E+02  0.00000000000E+00 0.  1.
</event>
<event>
 7    1  0.2855090E-009  0.1489212E+03  0.7561462E-02  0.1201805E+00
          1   -1    0    0  501    0  0.00000000000E+00  0.00000000000E+00  0.63285886078E+02  0.63285886078E+02  0.00000000000E+00 0. -1.
         -1   -1    0    0    0  501 -0.00000000000E+00 -0.00000000000E+00 -0.40361678901E+03  0.40361678901E+03  0.00000000000E+00 0.  1.
         25    2    1    2    0    0  0.96640412481E+02  0.59073891171E+02 -0.22769438337E+03  0.28340900343E+03  0.12508731775E+03 0.  0.
          5    1    3    3  502    0 -0.40602566812E+01  0.67357585608E+02 -0.89599504250E+02  0.11224559495E+03  0.41800000000E+01 0.  1.
         -5    1    3    3    0  502  0.10070066916E+03 -0.82836944377E+01 -0.13809487912E+03  0.17116340848E+03  0.41800000000E+01 0.  1.
        -11    1    1    2    0    0 -0.36546396469E+02  0.96647986261E+01  0.88241224605E+00  0.37813041119E+02  0.00000000000E+00 0. -1.
         11    1    1    2    0    0 -0.60094016013E+02 -0.68738689797E+02 -0.11351893180E+03  0.14568063053E+03  0.00000000000E+00 0.  1.
</event>
<event>
 7    1  0.2855090E-009  0.1262247E+03  0.7561462E-02  0.1233168E+00
          1   -1    0    0  501    0  0.00000000000E+00  0.00000000000E+00  0.13546142747E+04  0.13546142747E+04  0.00000000000E+00 0. -1.
         -1   -1    0    0    0  501 -0.00000000000E+00 -0.00000000000E+00 -0.18102533689E+02  0.18102533689E+02  0.00000000000E+00 0.  1.
         25    2    1    2    0    0 -0.52692103789E+02 -0.40207258862E+02  0.11214121277E+04  0.11303124352E+04  0.12509180402E+03 0.  0.
          5    1    3    3  502    0 -0.92018283261E+02 -0.42887932709E+02  0.83973235108E+03  0.84585733613E+03  0.41800000000E+01 0. -1.
         -5    1    3    3    0  502  0.39326179472E+02  0.26806738474E+01  0.28167977667E+03  0.28445509907E+03  0.41800000000E+01 0. -1.
        -11    1    1    2    0    0 -0.16685221862E+01 -0.25708677511E+02  0.40123420298E+02  0.47682375382E+02  0.00000000000E+00 0.  1.
         11    1    1    2    0    0  0.54360625976E+02  0.65915936373E+02  0.17497619292E+03  0.19472199776E+03  0.00000000000E+00 0. -1.
</event>
<event>
 7    1  0.2855090E-009  0.1153421E+03  0.7561462E-02  0.1250985E+00
          1   -1    0    0  501    0  0.00000000000E+00  0.00000000000E+00  0.17190186978E+04  0.17190186978E+04  0.00000000000E+00 0. -1.
         -1   -1    0    0    0  501 -0.00000000000E+00 -0.00000000000E+00 -0.15186837235E+02  0.15186837235E+02  0.00000000000E+00 0.  1.
         25    2    1    2    0    0  0.45201858519E+02  0.97838290468E+02  0.12702446294E+04  0.12809317000E+04  0.12509621279E+03 0.  0.
          5    1    3    3  502    0  0.21785286096E+02  0.48941827467E+02  0.11176067320E+04  0.11188977527E+04  0.41800000000E+01 0.  1.
         -5    1    3    3    0  502  0.23416572423E+02  0.48896463001E+02  0.15263789739E+03  0.16203394730E+03  0.41800000000E+01 0.  1.
        -11    1    1    2    0    0  0.41483482765E+00 -0.68142207180E+02  0.15348689017E+03  0.16793379035E+03  0.00000000000E+00 0.  1.
         11    1    1    2    0    0 -0.45616693347E+02 -0.29696083288E+02  0.28010034098E+03  0.28534004467E+03  0.00000000000E+00 0. -1.
</event>
<event>
 6    1  0.2855090E-009  0.1178248E+03  0.7561462E-02  0.1246729E+00
          2   -1    0    0  501    0  0.00000000000E+00  0.00000000000E+00  0.12371245319E+03  0.12371245319E+03  0.00000000000E+00 0. -1.
         -2   -1    0    0    0  501 -0.00000000000E+00 -0.00000000000E+00 -0.15025488288E+03  0.15025488288E+03  0.00000000000E+00 0.  1.
          5    1    1    2  502    0 -0.65407711706E+02 -0.15177384088E+02 -0.66881872659E+02  0.94864002808E+02  0.41800000000E+01 0. -1.
         -5    1    1    2    0  502  0.23677124479E+02  0.57073826438E+02 -0.75332942662E+01  0.62387905963E+02  0.41800000000E+01 0. -1.
        -11    1    1    2    0    0 -0.13146851689E+02  0.19865985289E+02  0.11087568902E+02  0.26276058780E+02  0.00000000000E+00 0.  1.
         11    1    1    2    0    0  0.54877438916E+02 -0.61762427639E+02  0.36785168332E+02  0.90439368525E+02  0.00000000000E+00 0. -1.
</event>
<event>
 7    1  0.2855090E-009  0.7204657E+02  0.7561462E-02  0.1353269E+00
          1   -1    0    0  501    0  0.00000000000E+00  0.00000000000E+00  0.23832499388E+03  0.23832499388E+03  0.00000000000E+00 0. -1.
         -1   -1    0    0    0  501 -0.00000000000E+00 -0.00000000000E+00 -0.75111726337E+02  0.75111726337E+02  0.00000000000E+00 0.  1.
         25    2    1    2    0    0 -0.52180856472E+01  0.15222300226E+02  0.18193456932E+03  0.22137372829E+03  0.12508874138E+03 0.  0.
          5    1    3    3  502    0 -0.32472348573E+02  0.14295606132E+02 -0.16156739668E+01  0.35761719463E+02  0.41800000000E+01 0. -1.
         -5    1    3    3    0  502  0.27254262926E+02  0.92669409412E+00  0.18355024329E+03  0.18561200883E+03  0.41800000000E+01 0. -1.
        -11    1    1    2    0    0 -0.35587247914E+02 -0.17998425748E+02 -0.29689911169E+02  0.49718068835E+02  0.00000000000E+00 0.  1.
         11    1    1    2    0    0  0.40805333562E+02  0.27761255218E+01  0.10968609395E+02  0.42344923096E+02  0.00000000000E+00 0. -1.
</event>
<event>
 7    1  0.2855090E-009  0.1230560E+03  0.7561462E-02  0.1238139E+00
          2   -1    0    0  501    0  0.00000000000E+00  0.00000000000E+00  0.16829057956E+02  0.16829057956E+02  0.00000000000E+00 0. -1.
         -2   -1    0    0    0  501 -0.00000000000E+00 -0.00000000000E+00 -0.10140630533E+04  0.10140630533E+04  0.00000000000E+00 0.  1.
         25    2    1    2    0    0  0.44340957112E+02  0.53306188526E+02 -0.62380037638E+03  0.63998589647E+03  0.12508943958E+03 0.  0.
          5    1    3    3  502    0 -0.36807957192E+02 -0.11683946748E+02 -0.15777969779E+03  0.16249075592E+03  0.41800000000E+01 0. -1.
         -5    1    3    3    0  502  0.81148914304E+02  0.64990135274E+02 -0.46602067859E+03  0.47749514055E+03  0.41800000000E+01 0. -1.
        -11    1    1    2    0    0 -0.59760796257E+02 -0.61503449995E+02 -0.35617686783E+03  0.36635500312E+03  0.00000000000E+00 0.  1.
         11    1    1    2    0    0  0.15419839146E+02  0.81972614697E+01 -0.17256751136E+02  0.24551211674E+02  0.00000000000E+00 0. -1.
</event>
<event>
 7    1  0.2855090E-009  0.9200801E+02  0.7561462E-02  0.1298061E+00
         -2   -1    0    0    0  501 -0.00000000000E+00  0.00000000000E+00  0.27340648349E+03  0.27340648349E+03  0.00000000000E+00 0.  1.
          2   -1    0    0  501    0  0.00000000000E+00 -0.00000000000E+00 -0.60539467849E+02  0.60539467849E+02  0.00000000000E+00 0. -1.
         25    2    1    2    0    0 -0.19086759962E+02 -0.11176656854E+02  0.20214389924E+03  0.23874663897E+03  0.12509428265E+03 0.  0.
          5    1    3    3  502    0  0.31596231462E+02  0.42479741435E+02  0.84876770211E+02  0.10012186972E+03  0.41800000000E+01 0. -1.
         -5    1    3    3    0  502 -0.50682991423E+02 -0.53656398289E+02  0.11726712903E+03  0.13862476925E+03  0.41800000000E+01 0. -1.
        -11    1    1    2    0    0  0.29676426217E+02 -0.11600743304E+02  0.43489336559E+02  0.53912799153E+02  0.00000000000E+00 0.  1.
         11    1    1    2    0    0 -0.10589666256E+02  0.22777400159E+02 -0.32766220166E+02  0.41286513214E+02  0.00000000000E+00 0. -1.
</event>
<event>
 7    1  0.2855090E-009  0.1030658E+03  0.7561462E-02  0.1273978E+00
          1   -1    0    0  501    0  0.00000000000E+00  0.00000000000E+00  0.50983853101E+03  0.50983853101E+03  0.00000000000E+00 0. -1.
         -1   -1    0    0    0  501 -0.00000000000E+00 -0.00000000000E+00 -0.26159014833E+02  0.26159014833E+02  0.00000000000E+00 0.  1.
         25    2    1    2    0    0  0.11565546693E+02 -0.12908327996E+02  0.35526211527E+03  0.37704754048E+03  0.12511311057E+03 0.  0.
          5    1    3    3  502    0  0.68393220161E+02 -0.96851896954E+01  0.19035366352E+03  0.20254240317E+03  0.41800000000E+01 0. -1.
         -5    1    3    3    0  502 -0.56827673468E+02 -0.32231383006E+01  0.16490845175E+03  0.17450513732E+03  0.41800000000E+01 0. -1.
        -11    1    1    2    0    0 -0.36074105592E+02 -0.18077864380E+02  0.23164627465E+02  0.46526876538E+02  0.00000000000E+00 0.  1.
         11    1    1    2    0    0  0.24508558899E+02  0.30986192376E+02  0.10525277344E+03  0.11242312882E+03  0.00000000000E+00 0. -1.
</event>
<event>
 7    1  0.2855090E-009  0.8253719E+02  0.7561462E-02  0.1322002E+00
         -4   -1    0    0    0  501 -0.00000000000E+00  0.00000000000E+00  0.28652681761E+03  0.28652681761E+03  0.00000000000E+00 0.  1.
          4   -1    0    0  501    0  0.00000000000E+00 -0.00000000000E+00 -0.49410991940E+02  0.49410991940E+02  0.00000000000E+00 0. -1.
         25    2    1    2    0    0 -0.43942710080E+02 -0.33340861588E+01  0.16728845777E+03  0.21348309707E+03  0.12509007448E+03 0.  0.
          5    1    3    3  502    0 -0.93793223731E+01 -0.56155303683E+02  0.12491294428E+03  0.13733938207E+03  0.41800000000E+01 0. -1.
         -5    1    3    3    0  502 -0.34563387707E+02  0.52821217524E+02  0.42375513492E+02  0.76143715002E+02  0.41800000000E+01 0. -1.
        -11    1    1    2    0    0  0.19766282556E+02 -0.23037005819E+01 -0.20623438745E+02  0.28659015826E+02  0.00000000000E+00 0. -1.
         11    1    1    2    0    0  0.24176427524E+02  0.56377867407E+01  0.90450806650E+02  0.93795696654E+02  0.00000000000E+00 0.  1.
</event>
<event>
 7    1  0.2855090E-009  0.1169298E+03  0.7561462E-02  0.1248250E+00
         -2   -1    0    0    0  501 -0.00000000000E+00  0.00000000000E+00  0.89072636260E+02  0.89072636260E+02  0.00000000000E+00 0.  1.
          2   -1    0    0  501    0  0.00000000000E+00 -0.00000000000E+00 -0.18565667048E+03  0.18565667048E+03  0.00000000000E+00 0. -1.
         25    2    1    2    0    0  0.13968344293E+02 -0.60127732123E+02 -0.85705740055E+02  0.16371830687E+03  0.12509097215E+03 0.  0.
          5    1    3    3  502    0 -0.38012870102E+02 -0.61559684246E+02 -0.12060640986E+02  0.73467710451E+02  0.41800000000E+01 0.  1.
         -5    1    3    3    0  502  0.51981214396E+02  0.14319521228E+01 -0.73645099069E+02  0.90250596418E+02  0.41800000000E+01 0.  1.
        -11    1    1    2    0    0 -0.42456467997E+01 -0.24080679056E+02  0.44910765304E+01  0.24861101926E+02  0.00000000000E+00 0.  1.
         11    1    1    2    0    0 -0.97226974936E+01  0.84208411180E+02 -0.15369370691E+02  0.86149897942E+02  0.00000000000E+00 0. -1.
</event>
<event>
 7    1  0.2855090E-009  0.1032095E+03  0.7561462E-02  0.1273688E+00
         -3   -1    0    0    0  501 -0.00000000000E+00  0.00000000000E+00  0.48804869351E+03  0.48804869351E+03  0.00000000000E+00 0.  1.
          3   -1    0    0  501    0  0.00000000000E+00 -0.00000000000E+00 -0.27000242567E+02  0.27000242567E+02  0.00000000000E+00 0. -1.
         25    2    1    2    0    0  0.21770702207E+02 -0.30562127543E+02  0.26384621188E+03  0.29439802178E+03  0.12508942637E+03 0.  0.
          5    1    3    3  502    0  0.62272700735E+02  0.42005457544E+01  0.72759209721E+02  0.95952638529E+02  0.41800000000E+01 0.  1.
         -5    1    3    3    0  502 -0.40501998528E+02 -0.34762673297E+02  0.19108700216E+03  0.19844538326E+03  0.41800000000E+01 0.  1.
        -11    1    1    2    0    0 -0.32754810184E+02  0.54728374964E+02  0.90637774735E+02  0.11082995455E+03  0.00000000000E+00 0. -1.
         11    1    1    2    0    0  0.10984107977E+02 -0.24166247421E+02  0.10656446432E+03  0.10982095974E+03  0.00000000000E+00 0.  1.
</event>
<event>
 7    1  0.2855090E-009  0.1191916E+03  0.7561462E-02  0.1244437E+00
          2   -1    0    0  501    0  0.00000000000E+00  0.00000000000E+00  0.75553250589E+03  0.75553250589E+03  0.00000000000E+00 0. -1.
         -2   -1    0    0    0  501 -0.00000000000E+00 -0.00000000000E+00 -0.24592171656E+02  0.24592171656E+02  0.00000000000E+00 0.  1.
         25    2    1    2    0    0  0.63458268675E+02 -0.28655729790E+02  0.28025195766E+03  0.31470438081E+03  0.12509830062E+03 0.  0.
          5    1    3    3  502    0  0.37957086194E+02  0.46957484221E+02  0.15186550065E+03  0.16348195131E+03  0.41800000000E+01 0. -1.
         -5    1    3    3    0  502  0.25501182481E+02 -0.75613214011E+02  0.12838645701E+03  0.15122242950E+03  0.41800000000E+01 0. -1.
        -11    1    1    2    0    0 -0.17493562358E+02 -0.22941399231E+02  0.42142697995E+02  0.51071905358E+02  0.00000000000E+00 0.  1.
         11    1    1    2    0    0 -0.45964706317E+02  0.51597129021E+02  0.40854567858E+03  0.41434839138E+03  0.00000000000E+00 0. -1.
</event>
<event>
 7    1  0.2855090E-009  0.8996827E+02  0.7561462E-02  0.1302929E+00
         -1   -1    0    0    0  501 -0.00000000000E+00  0.00000000000E+00  0.27970750865E+02  0.27970750865E+02  0.00000000000E+00 0.  1.
          1   -1    0    0  501    0  0.00000000000E+00 -0.00000000000E+00 -0.66153099884E+03  0.66153099884E+03  0.00000000000E+00 0. -1.
         25    2    1    2    0    0 -0.30079811762E+02 -0.30582697866E+02 -0.52769821715E+03  0.54401409611E+03  0.12508329986E+03 0.  0.
          5    1    3    3  502    0 -0.50824248561E+02 -0.15210950982E+01 -0.80056819872E+02  0.94931474128E+02  0.41800000000E+01 0.  1.
         -5    1    3    3    0  502  0.20744436799E+02 -0.29061602768E+02 -0.44764139727E+03  0.44908262198E+03  0.41800000000E+01 0.  1.
        -11    1    1    2    0    0  0.57694340359E+02  0.30699306729E+02 -0.47090721637E+02  0.80551973330E+02  0.00000000000E+00 0.  1.
         11    1    1    2    0    0 -0.27614528597E+02 -0.11660886226E+00 -0.58771309190E+02  0.64935680263E+02  0.00000000000E+00 0. -1.
</event>
<event>
 7    1  0.2855090E-009  0.1417294E+03  0.7561462E-02  0.1211021E+00
         -1   -1    0    0    0  501 -0.00000000000E+00  0.00000000000E+00  0.13183343310E+03  0.13183343310E+03  0.00000000000E+00 0.  1.
          1   -1    0    0  501    0  0.00000000000E+00 -0.00000000000E+00 -0.16824294935E+03  0.16824294935E+03  0.00000000000E+00 0. -1.
         25    2    1    2    0    0 -0.46200427361E+02  0.80766324045E+02 -0.59264809843E+02  0.16678733960E+03  0.12509204762E+03 0.  0.
          5    1    3    3  502    0 -0.59700521857E+02  0.10891255261E+03 -0.44455582267E+02  0.13198434612E+03  0.41800000000E+01 0.  1.
         -5    1    3    3    0  502  0.13500094497E+02 -0.28146228564E+02 -0.14809227577E+02  0.34802993481E+02  0.41800000000E+01 0.  1.
        -11    1    1    2    0    0  0.17179523160E+02 -0.94170513678E+02  0.30414785111E+02  0.10044043417E+03  0.00000000000E+00 0.  1.
         11    1    1    2    0    0  0.29020904201E+02  0.13404189634E+02 -0.75594915210E+01  0.32848608683E+02  0.00000000000E+00 0. -1.
</event>
<event>
 7    1  0.2855090E-009  0.8818518E+02  0.7561462E-02  0.1307307E+00
         -1   -1    0    0    0  501 -0.00000000000E+00  0.00000000000E+00  0.14349211338E+02  0.14349211338E+02  0.00000000000E+00 0.  1.
          1   -1    0    0  501    0  0.00000000000E+00 -0.00000000000E+00 -0.99206361467E+03  0.99206361467E+03  0.00000000000E+00 0. -1.
         25    2    1    2    0    0 -0.34722373664E+02  0.44227913471E+01 -0.65496848562E+03  0.66772428023E+03  0.12508714141E+03 0.  0.
          5    1    3    3  502    0  0.12554498724E+02 -0.18304279805E+02 -0.18809861595E+02  0.29392947974E+02  0.41800000000E+01 0.  1.
         -5    1    3    3    0  502 -0.47276872387E+02  0.22727071152E+02 -0.63615862402E+03  0.63833133226E+03  0.41800000000E+01 0.  1.
        -11    1    1    2    0    0  0.67730458285E+02  0.84786737658E+00 -0.18706575502E+03  0.19895157843E+03  0.00000000000E+00 0.  1.
         11    1    1    2    0    0 -0.33008084621E+02 -0.52706587237E+01 -0.13568016269E+03  0.13973696734E+03  0.00000000000E+00 0. -1.
</event>
<event>
 7    1  0.2855090E-009  0.2176398E+03  0.7561462E-02  0.1135655E+00
         -1   -1    0    0    0  501 -0.00000000000E+00  0.00000000000E+00  0.23653955730E+03  0.23653955730E+03  0.00000000000E+00 0.  1.
          1   -1    0    0  501    0  0.00000000000E+00 -0.00000000000E+00 -0.23445039875E+03  0.23445039875E+03  0.00000000000E+00 0. -1.
         25    2    1    2    0    0 -0.16797678118E+02  0.19095125558E+03 -0.81298901947E+02  0.24290339787E+03  0.12509198712E+03 0.  0.
          5    1    3    3  502    0  0.48966559850E+02  0.10505232626E+03 -0.17646251118E+02  0.11731401372E+03  0.41800000000E+01 0. -1.
         -5    1    3    3    0  502 -0.65764237968E+02  0.85898929325E+02 -0.63652650829E+02  0.12558938415E+03  0.41800000000E+01 0. -1.
        -11    1    1    2    0    0 -0.35122207989E+02 -0.52449166435E+02  0.36515042247E+02  0.72923472655E+02  0.00000000000E+00 0.  1.
         11    1    1    2    0    0  0.51919886108E+02 -0.13850208915E+03  0.46873018249E+02  0.15516308553E+03  0.00000000000E+00 0. -1.
</event>
<event>
 7    1  0.2855090E-009  0.1234865E+03  0.7561462E-02  0.1237454E+00
         -2   -1    0    0    0  501 -0.00000000000E+00  0.00000000000E+00  0.40574736124E+02  0.40574736124E+02  0.00000000000E+00 0.  1.
          2   -1    0    0  501    0  0.00000000000E+00 -0.00000000000E+00 -0.38370176157E+03  0.38370176157E+03  0.00000000000E+00 0. -1.
         25    2    1    2    0    0 -0.43607167886E+02 -0.42093593011E+02 -0.19322271331E+03  0.23802530021E+03  0.12509025118E+03 0.  0.
          5    1    3    3  502    0 -0.85216594597E+02 -0.93392876178E+01 -0.12250408245E+03  0.14957878494E+03  0.41800000000E+01 0.  1.
         -5    1    3    3    0  502  0.41609426710E+02 -0.32754305393E+02 -0.70718630860E+02  0.88446515271E+02  0.41800000000E+01 0.  1.
        -11    1    1    2    0    0  0.18458611517E+01 -0.27123129760E+02 -0.22141656808E+02  0.35061721828E+02  0.00000000000E+00 0. -1.
         11    1    1    2    0    0  0.41761306735E+02  0.69216722771E+02 -0.12776265533E+03  0.15118947565E+03  0.00000000000E+00 0.  1.
</event>
<event>
 7    1  0.2855090E-009  0.2411121E+03  0.7561462E-02  0.1119054E+00
          1   -1    0    0  501    0  0.00000000000E+00  0.00000000000E+00  0.10988403797E+04  0.10988403797E+04  0.00000000000E+00 0. -1.
         -1   -1    0    0    0  501 -0.00000000000E+00 -0.00000000000E+00 -0.64503509125E+02  0.64503509125E+02  0.00000000000E+00 0.  1.
         25    2    1    2    0    0  0.18796207898E+03 -0.12214289540E+03  0.73175267483E+03  0.77547260767E+03  0.12508860099E+03 0.  0.
          5    1    3    3  502    0  0.60141701166E+02  0.12904029628E+02  0.28421780168E+03  0.29082773147E+03  0.41800000000E+01 0. -1.
         -5    1    3    3    0  502  0.12782037781E+03 -0.13504692503E+03  0.44753487315E+03  0.48464487620E+03  0.41800000000E+01 0. -1.
        -11    1    1    2    0    0 -0.23406436825E+02  0.49395926129E+02  0.33278375257E+02  0.63994289297E+02  0.00000000000E+00 0.  1.
         11    1    1    2    0    0 -0.16455564216E+03  0.72746969274E+02  0.26930582049E+03  0.32387699185E+03  0.00000000000E+00 0. -1.
</event>
<event>
 7    1  0.2855090E-009  0.1215847E+03  0.7561462E-02  0.1240505E+00
         -1   -1    0    0    0  501 -0.00000000000E+00  0.00000000000E+00  0.10230239653E+03  0.10230239653E+03  0.00000000000E+00 0.  1.
          1   -1    0    0  501    0  0.00000000000E+00 -0.00000000000E+00 -0.57353684836E+03  0.57353684836E+03  0.00000000000E+00 0. -1.
         25    2    1    2    0    0 -0.61545757352E+02  0.13679855850E+01  0.46277743181E+02  0.14690014113E+03  0.12509304664E+03 0.  0.
          5    1    3    3  502    0 -0.75603553776E+02 -0.43827698556E+02  0.11992873061E+02  0.88306658347E+02  0.41800000000E+01 0.  1.
         -5    1    3    3    0  502  0.14057796423E+02  0.45195684141E+02  0.34284870120E+02  0.58593482781E+02  0.41800000000E+01 0.  1.
        -11    1    1    2    0    0  0.73579167319E+02 -0.28168808830E+02 -0.40905737905E+03  0.41657570142E+03  0.00000000000E+00 0.  1.
         11    1    1    2    0    0 -0.12033409967E+02  0.26800823245E+02 -0.10845481596E+03  0.11236340235E+03  0.00000000000E+00 0. -1.
</event>
<event>
 6    1  0.2855090E-009  0.1112552E+03  0.7561462E-02  0.1258263E+00
         -2   -1    0    0    0  501 -0.00000000000E+00  0.00000000000E+00  0.13403805596E+03  0.13403805596E+03  0.00000000000E+00 0.  1.
          2   -1    0    0  501    0  0.00000000000E+00 -0.00000000000E+00 -0.10929224211E+03  0.10929224211E+03  0.00000000000E+00 0. -1.
          5    1    1    2  502    0  0.25835780093E+02  0.53085971277E+02 -0.13385450685E+02  0.60681550486E+02  0.41800000000E+01 0.  1.
         -5    1    1    2    0  502  0.25693488205E+02 -0.66927884203E+02  0.20626122618E+02  0.74715502771E+02  0.41800000000E+01 0.  1.
        -11    1    1    2    0    0 -0.14457755370E+01  0.36508819575E+02 -0.19741365565E+02  0.41529576064E+02  0.00000000000E+00 0. -1.
         11    1    1    2    0    0 -0.50083492760E+02 -0.22666906649E+02  0.37246507475E+02  0.66403668748E+02  0.00000000000E+00 0.  1.
</event>
<event>
 7    1  0.2855090E-009  0.2242228E+03  0.7561462E-02  0.1130773E+00
          2   -1    0    0  501    0  0.00000000000E+00  0.00000000000E+00  0.27711407622E+03  0.27711407622E+03  0.00000000000E+00 0. -1.
         -2   -1    0    0    0  501 -0.00000000000E+00 -0.00000000000E+00 -0.22127819513E+03  0.22127819513E+03  0.00000000000E+00 0.  1.
         25    2    1    2    0    0 -0.22067720722E+03  0.15406875798E+02  0.51210518286E+02  0.25922727329E+03  0.12506182641E+03 0.  0.
          5    1    3    3  502    0 -0.18149551969E+03  0.30613853908E+01  0.89930740378E+02  0.20262034995E+03  0.41800000000E+01 0.  1.
         -5    1    3    3    0  502 -0.39181687529E+02  0.12345490407E+02 -0.38720222092E+02  0.56606923339E+02  0.41800000000E+01 0.  1.
        -11    1    1    2    0    0  0.10061471847E+03 -0.29110620179E+02  0.41739978971E+02  0.11275183202E+03  0.00000000000E+00 0. -1.
         11    1    1    2    0    0  0.12006248875E+03  0.13703744380E+02 -0.37114616165E+02  0.12641316604E+03  0.00000000000E+00 0.  1.
</event>
<event>
 7    1  0.2855090E-009  0.8767603E+02  0.7561462E-02  0.1308579E+00
         -1   -1    0    0    0  501 -0.00000000000E+00  0.00000000000E+00  0.12564094856E+03  0.12564094856E+03  0.00000000000E+00 0.  1.
          1   -1    0    0  501    0  0.00000000000E+00 -0.00000000000E+00 -0.10696971256E+03  0.10696971256E+03  0.00000000000E+00 0. -1.
         25    2    1    2    0    0 -0.17233369546E+02  0.14130557989E+02  0.50281828753E+02  0.13665046252E+03  0.12509366455E+03 0.  0.
          5    1    3    3  502    0 -0.33812553918E+01 -0.49151724100E+02  0.51943070543E+02  0.71713874860E+02  0.41800000000E+01 0.  1.
         -5    1    3    3    0  502 -0.13852114154E+02  0.63282282089E+02 -0.16612417898E+01  0.64936587662E+02  0.41800000000E+01 0.  1.
        -11    1    1    2    0    0 -0.26179991886E+01 -0.33295851088E+02  0.18920878854E+02  0.38385769186E+02  0.00000000000E+00 0.  1.
         11    1    1    2    0    0  0.19851368734E+02  0.19165293099E+02 -0.50531471605E+02  0.57574429418E+02  0.00000000000E+00 0. -1.
</event>
<event>
 7    1  0.2855090E-009  0.1181791E+03  0.7561462E-02  0.1246132E+00
         -1   -1    0    0    0  501 -0.00000000000E+00  0.00000000000E+00  0.14023285282E+03  0.14023285282E+03  0.00000000000E+00 0.  1.
          1   -1    0    0  501    0  0.00000000000E+00 -0.00000000000E+00 -0.13040121760E+03  0.13040121760E+03  0.00000000000E+00 0. -1.
         25    2    1    2    0    0 -0.70899248176E+02  0.15587866171E+01 -0.30366335256E+02  0.14696326926E+03  0.12508778912E+03 0.  0.
          5    1    3    3  502    0 -0.10543027247E+03  0.59011466560E+01 -0.93456613383E+01  0.10609043157E+03  0.41800000000E+01 0.  1.
         -5    1    3    3    0  502  0.34531024291E+02 -0.43423600389E+01 -0.21020673918E+02  0.40872837695E+02  0.41800000000E+01 0.  1.
        -11    1    1    2    0    0  0.32153083638E+02  0.31264041848E+02  0.54820343788E+02  0.70827474847E+02  0.00000000000E+00 0.  1.
         11    1    1    2    0    0  0.38746164537E+02 -0.32822828465E+02 -0.14622373315E+02  0.52843326316E+02  0.00000000000E+00 0. -1.
</event>
<event>
 7    1  0.2855090E-009  0.1753216E+03  0.7561462E-02  0.1172409E+00
          2   -1    0    0  501    0  0.00000000000E+00  0.00000000000E+00  0.98491830522E+03  0.98491830522E+03  0.00000000000E+00 0. -1.
         -2   -1    0    0    0  501 -0.00000000000E+00 -0.00000000000E+00 -0.56371965512E+02  0.56371965512E+02  0.00000000000E+00 0.  1.
         25    2    1    2    0    0 -0.13971219516E+03  0.13992691158E+02  0.82811500050E+03  0.84919840509E+03  0.12509270274E+03 0.  0.
          5    1    3    3  502    0  0.12294373299E+02 -0.26706188848E+02  0.16536095813E+03  0.16800622313E+03  0.41800000000E+01 0. -1.
         -5    1    3    3    0  502 -0.15200656846E+03  0.40698880006E+02  0.66275404237E+03  0.68119218196E+03  0.41800000000E+01 0. -1.
        -11    1    1    2    0    0  0.24356397305E+02 -0.38541092783E+02  0.23643190410E+02  0.51358060471E+02  0.00000000000E+00 0.  1.
         11    1    1    2    0    0  0.11535579786E+03  0.24548401624E+02  0.76788148800E+02  0.14073380517E+03  0.00000000000E+00 0. -1.
</event>
<event>
 7    1  0.3946257E-009  0.1131774E+03  0.7561462E-02  0.1254796E+00
         -2   -1    0    0    0  501 -0.00000000000E+00  0.00000000000E+00  0.48686008511E+02  0.48686008511E+02  0.00000000000E+00 0.  1.
          2   -1    0    0  501    0  0.00000000000E+00 -0.00000000000E+00 -0.50054855885E+03  0.50054855885E+03  0.00000000000E+00 0. -1.
         25    2    1    2    0    0 -0.29139069053E+02 -0.10061481647E+03 -0.17483820707E+03  0.23914247250E+03  0.12509315274E+03 0.  0.
          5    1    3    3  502    0 -0.75698118851E+00 -0.36629747339E+01 -0.12728883181E+03  0.12741236011E+03  0.41800000000E+01 0. -1.
         -5    1    3    3    0  502 -0.28382087865E+02 -0.96951841736E+02 -0.47549375258E+02  0.11173011239E+03  0.41800000000E+01 0. -1.
        -11    1    1    2    0    0  0.40556027816E+02  0.36650322012E+02 -0.50451919691E+02  0.74387053284E+02  0.00000000000E+00 0. -1.
         11    1    1    2    0    0 -0.11416958763E+02  0.63964494458E+02 -0.22657242358E+03  0.23570504158E+03  0.00000000000E+00 0.  1.
</event>
<event>
 6    1  0.2855090E-009  0.1217813E+03  0.7561462E-02  0.1240187E+00
         -2   -1    0    0    0  501 -0.00000000000E+00  0.00000000000E+00  0.12209474128E+03  0.12209474128E+03  0.00000000000E+00 0.  1.
          2   -1    0    0  501    0  0.00000000000E+00 -0.00000000000E+00 -0.14339607918E+03  0.14339607918E+03  0.00000000000E+00 0. -1.
          5    1    1    2  502    0  0.36775217114E+02  0.15170586268E+02  0.12128357507E+01  0.40018828719E+02  0.41800000000E+01 0.  1.
         -5    1    1    2    0  502 -0.66626205155E+02 -0.67689578029E+02 -0.57846058000E+02  0.11128597851E+03  0.41800000000E+01 0.  1.
        -11    1    1    2    0    0  0.41315235520E+02  0.73652364494E+02  0.25547005051E+02  0.88228504174E+02  0.00000000000E+00 0. -1.
         11    1    1    2    0    0 -0.11464247478E+02 -0.21133372733E+02  0.97848793068E+01  0.25957509055E+02  0.00000000000E+00 0.  1.
</event>
<event>
 7    1  0.2855090E-009  0.1410877E+03  0.7561462E-02  0.1211873E+00
          1   -1    0    0  501    0  0.00000000000E+00  0.00000000000E+00  0.10646401485E+04  0.10646401485E+04  0.00000000000E+00 0. -1.
         -1   -1    0    0    0  501 -0.00000000000E+00 -0.00000000000E+00 -0.26008676514E+02  0.26008676514E+02  0.00000000000E+00 0.  1.
         25    2    1    2    0    0  0.95002397614E+02  0.47856178314E+02  0.33298766398E+03  0.37127347644E+03  0.12509012985E+03 0.  0.
          5    1    3    3  502    0 -0.81195012581E+01  0.38062674929E+02  0.19383826848E+03  0.19775095512E+03  0.41800000000E+01 0. -1.
         -5    1    3    3    0  502  0.10312189887E+03  0.97935033859E+01  0.13914939550E+03  0.17352252132E+03  0.41800000000E+01 0. -1.
        -11    1    1    2    0    0 -0.43926206242E+02  0.24880977286E+02  0.22648158072E+03  0.23203982639E+03  0.00000000000E+00 0.  1.
         11    1    1    2    0    0 -0.51076191372E+02 -0.72737155601E+02  0.47916222725E+03  0.48733552216E+03  0.00000000000E+00 0. -1.
</event>
<event>
 7    1  0.2855090E-009  0.9355333E+02  0.7561462E-02  0.1294468E+00
         -2   -1    0    0    0  501 -0.00000000000E+00  0.00000000000E+00  0.25081140130E+03  0.25081140130E+03  0.00000000000E+00 0.  1.
          2   -1    0    0  501    0  0.00000000000E+00 -0.00000000000E+00 -0.52546363548E+02  0.52546363548E+02  0.00000000000E+00 0. -1.
         25    2    1    2    0    0  0.23376536971E+01 -0.18143856866E+02  0.60356470266E+02  0.14008216360E+03  0.12508175282E+03 0.  0.
          5    1    3    3  502    0 -0.15600027137E+02 -0.68935021944E+02  0.23179580584E+02  0.74499419146E+02  0.41800000000E+01 0.  1.
         -5    1    3    3    0  502  0.17937680834E+02  0.50791165078E+02  0.37176889682E+02  0.65582744454E+02  0.41800000000E+01 0.  1.
        -11    1    1    2    0    0  0.27203800042E+02  0.18209798733E+02  0.13504449734E+02  0.35412055423E+02  0.00000000000E+00 0. -1.
         11    1    1    2    0    0 -0.29541453739E+02 -0.65941867528E-01  0.12440411775E+03  0.12786354582E+03  0.00000000000E+00 0.  1.
</event>
<event>
 7    1  0.2855090E-009  0.2240129E+03  0.7561462E-02  0.1130926E+00
          1   -1    0    0  501    0  0.00000000000E+00  0.00000000000E+00  0.42557065009E+02  0.42557065009E+02  0.00000000000E+00 0. -1.
         -1   -1    0    0    0  501 -0.00000000000E+00 -0.00000000000E+00 -0.14535471848E+04  0.14535471848E+04  0.00000000000E+00 0.  1.
         25    2    1    2    0    0  0.16075825526E+03  0.14793700463E+03 -0.58320432425E+03  0.63521888420E+03  0.12508866074E+03 0.  0.
          5    1    3    3  502    0  0.11826331488E+03  0.10480705089E+03 -0.24470987461E+03  0.29132649157E+03  0.41800000000E+01 0.  1.
         -5    1    3    3    0  502  0.42494940385E+02  0.43129953743E+02 -0.33849444965E+03  0.34389239263E+03  0.41800000000E+01 0.  1.
        -11    1    1    2    0    0 -0.80697396949E+02 -0.28726877197E+02 -0.41747043759E+03  0.42616765435E+03  0.00000000000E+00 0. -1.
         11    1    1    2    0    0 -0.80060858312E+02 -0.11921012743E+03 -0.41031535791E+03  0.43471771122E+03  0.00000000000E+00 0.  1.
</event>
<event>
 7    1  0.3390239E-009  0.9814107E+02  0.7561462E-02  0.1284254E+00
          2   -1    0    0  501    0  0.00000000000E+00  0.00000000000E+00  0.82974041559E+03  0.82974041559E+03  0.00000000000E+00 0. -1.
         -2   -1    0    0    0  501 -0.00000000000E+00 -0.00000000000E+00 -0.18057862724E+02  0.18057862724E+02  0.00000000000E+00 0.  1.
         25    2    1    2    0    0  0.55386510764E+02  0.10214337068E+02  0.45250382983E+03  0.47284264719E+03  0.12509378378E+03 0.  0.
          5    1    3    3  502    0 -0.17646338565E+02 -0.12537986690E+02  0.10810211276E+02  0.24554580893E+02  0.41800000000E+01 0. -1.
         -5    1    3    3    0  502  0.73032849329E+02  0.22752323759E+02  0.44169361855E+03  0.44828806630E+03  0.41800000000E+01 0. -1.
        -11    1    1    2    0    0 -0.32620545333E+02  0.34481413128E+02  0.96635610483E+02  0.10766387065E+03  0.00000000000E+00 0.  1.
         11    1    1    2    0    0 -0.22765965431E+02 -0.44695750196E+02  0.26254311256E+03  0.26729176048E+03  0.00000000000E+00 0. -1.
</event>
<event>
 7    1  0.3981558E-009  0.1348337E+03  0.7561462E-02  0.1220455E+00
         -2   -1    0    0    0  501 -0.00000000000E+00  0.00000000000E+00  0.16951448583E+03  0.16951448583E+03  0.00000000000E+00 0.  1.
          2   -1    0    0  501    0  0.00000000000E+00 -0.00000000000E+00 -0.15208466563E+03  0.15208466563E+03  0.00000000000E+00 0. -1.
         25    2    1    2    0    0  0.45567998759E+02  0.10757736917E+03  0.24757504714E+02  0.17292339558E+03  0.12506092048E+03 0.  0.
          5    1    3    3  502    0  0.66158428459E+02  0.33339372083E+02 -0.28160392071E+02  0.79365807931E+02  0.41800000000E+01 0. -1.
         -5    1    3    3    0  502 -0.20590429700E+02  0.74237997084E+02  0.52917896785E+02  0.93557587647E+02  0.41800000000E+01 0. -1.
        -11    1    1    2    0    0 -0.44013667920E+02 -0.85353850366E+02  0.33877325711E+02  0.10183396257E+03  0.00000000000E+00 0.  1.
         11    1    1    2    0    0 -0.15543308391E+01 -0.22223518801E+02 -0.41205010225E+02  0.46841793304E+02  0.00000000000E+00 0. -1.
</event>
<event>
 7    1  0.2855090E-009  0.1363731E+03  0.7561462E-02  0.1218294E+00
          1   -1    0    0  501    0  0.00000000000E+00  0.00000000000E+00  0.26597100301E+03  0.26597100301E+03  0.00000000000E+00 0. -1.
         -1   -1    0    0    0  501 -0.00000000000E+00 -0.00000000000E+00 -0.86621360945E+02  0.86621360945E+02  0.00000000000E+00 0.  1.
         25    2    1    2    0    0  0.80498368682E+02  0.17822819775E+02  0.16987515276E+03  0.22650114077E+03  0.12509020336E+03 0.  0.
          5    1    3    3  502    0 -0.32291834063E+02 -0.11747619106E+01  0.57566229078E+02  0.66147454546E+02  0.41800000000E+01 0.  1.
         -5    1    3    3    0  502  0.11279020275E+03  0.18997581685E+02  0.11230892368E+03  0.16035368622E+03  0.41800000000E+01 0.  1.
        -11    1    1    2    0    0 -0.28179409201E+02  0.39227897832E+02  0.23887095552E+01  0.48359208064E+02  0.00000000000E+00 0.  1.
         11    1    1    2    0    0 -0.52318959482E+02 -0.57050717607E+02  0.70857797473E+01  0.77732015125E+02  0.00000000000E+00 0. -1.
</event>
<event>
 7    1  0.2855090E-009  0.1356456E+03  0.7561462E-02  0.1219311E+00
          1   -1    0    0  501    0  0.00000000000E+00  0.00000000000E+00  0.57790471656E+03  0.57790471656E+03  0.00000000000E+00 0. -1.
         -1   -1    0    0    0  501 -0.00000000000E+00 -0.00000000000E+00 -0.43180792212E+02  0.43180792212E+02  0.00000000000E+00 0.  1.
         25    2    1    2    0    0 -0.10475461357E+02  0.11176347405E+03  0.25851634113E+03  0.30834938309E+03  0.12509130263E+03 0.  0.
          5    1    3    3  502    0 -0.25568370397E+00 -0.56541992878E+01 -0.11623837135E+02  0.13587543321E+02  0.41800000000E+01 0. -1.
         -5    1    3    3    0  502 -0.10219777653E+02  0.11741767334E+03  0.27014017827E+03  0.29476183977E+03  0.41800000000E+01 0. -1.
        -11    1    1    2    0    0  0.31966061929E+02  0.54758160037E+00  0.51736520907E+02  0.60817732253E+02  0.00000000000E+00 0.  1.
         11    1    1    2    0    0 -0.21490600572E+02 -0.11231105565E+03  0.22447106230E+03  0.25191839343E+03  0.00000000000E+00 0. -1.
</event>
<event>
 7    1  0.2855090E-009  0.1286099E+03  0.7561462E-02  0.1229533E+00
          2   -1    0    0  501    0  0.00000000000E+00  0.00000000000E+00  0.76610885774E+03  0.76610885774E+03  0.00000000000E+00 0. -1.
         -2   -1    0    0    0  501 -0.00000000000E+00 -0.00000000000E+00 -0.27441120620E+02  0.27441120620E+02  0.00000000000E+00 0.  1.
         25    2    1    2    0    0 -0.89130385427E+02 -0.17118556283E+02  0.48223677944E+03  0.50639577289E+03  0.12508835592E+03 0.  0.
          5    1    3    3  502    0 -0.11884384367E+03 -0.28041735436E+02  0.39692395049E+03  0.41530265227E+03  0.41800000000E+01 0. -1.
         -5    1    3    3    0  502  0.29713458238E+02  0.10923179154E+02  0.85312828941E+02  0.91093120625E+02  0.41800000000E+01 0. -1.
        -11    1    1    2    0    0  0.74060853873E+02 -0.72942691147E+01  0.83460760250E+02  0.11182090565E+03  0.00000000000E+00 0.  1.
         11    1    1    2    0    0  0.15069531554E+02  0.24412825397E+02  0.17297019743E+03  0.17533329982E+03  0.00000000000E+00 0. -1.
</event>
<event>
 7    1  0.2855090E-009  0.1220280E+03  0.7561462E-02  0.1239789E+00
         -1   -1    0    0    0  501 -0.00000000000E+00  0.00000000000E+00  0.72384234300E+03  0.72384234300E+03  0.00000000000E+00 0.  1.
          1   -1    0    0  501    0  0.00000000000E+00 -0.00000000000E+00 -0.23213347603E+02  0.23213347603E+02  0.00000000000E+00 0. -1.
         25    2    1    2    0    0  0.37092115555E+01 -0.62246224523E+02  0.29347192569E+03  0.32505703903E+03  0.12509179324E+03 0.  0.
          5    1    3    3  502    0 -0.42289408437E+02  0.18168968982E+02  0.11476054324E+03  0.12371725904E+03  0.41800000000E+01 0. -1.
         -5    1    3    3    0  502  0.45998619993E+02 -0.80415193505E+02  0.17871138245E+03  0.20133977998E+03  0.41800000000E+01 0. -1.
        -11    1    1    2    0    0  0.38835330281E+02  0.44344595647E+02  0.15876786621E+03  0.16935720057E+03  0.00000000000E+00 0.  1.
         11    1    1    2    0    0 -0.42544541836E+02  0.17901628875E+02  0.24838920350E+03  0.25264145101E+03  0.00000000000E+00 0. -1.
</event>
<event>
 7    1  0.3057759E-009  0.1001416E+03  0.7561462E-02  0.1279999E+00
          1   -1    0    0  501    0  0.00000000000E+00  0.00000000000E+00  0.30082552019E+03  0.30082552019E+03  0.00000000000E+00 0. -1.
         -1   -1    0    0    0  501 -0.00000000000E+00 -0.00000000000E+00 -0.54933531121E+02  0.54933531121E+02  0.00000000000E+00 0.  1.
         25    2    1    2    0    0 -0.10759458975E+02 -0.64721035584E+02  0.16391566381E+03  0.21638149928E+03  0.12509208601E+03 0.  0.
          5    1    3    3  502    0  0.15293048975E+01 -0.80969391143E+02  0.17495660176E+03  0.19283585241E+03  0.41800000000E+01 0. -1.
         -5    1    3    3    0  502 -0.12288763873E+02  0.16248355559E+02 -0.11040937943E+02  0.23545646871E+02  0.41800000000E+01 0. -1.
        -11    1    1    2    0    0 -0.18776070651E+01  0.79174112166E+02  0.31248585144E+02  0.85138355158E+02  0.00000000000E+00 0.  1.
         11    1    1    2    0    0  0.12637066040E+02 -0.14453076582E+02  0.50727740108E+02  0.54239196872E+02  0.00000000000E+00 0. -1.
</event>
<event>
 6    1  0.2855090E-009  0.1049002E+03  0.7561462E-02  0.1270316E+00
         -2   -1    0    0    0  501 -0.00000000000E+00  0.00000000000E+00  0.59695303098E+03  0.59695303098E+03  0.00000000000E+00 0.  1.
          2   -1    0    0  501    0  0.00000000000E+00 -0.00000000000E+00 -0.44565625033E+02  0.44565625033E+02  0.00000000000E+00 0. -1.
          5    1    1    2  502    0 -0.17550081689E+02  0.51911037642E+02  0.27623011756E+03  0.28164394445E+03  0.41800000000E+01 0.  1.
         -5    1    1    2    0  502 -0.61530875684E+02 -0.33426965947E+01  0.48488705444E+02  0.78522921740E+02  0.41800000000E+01 0.  1.
        -11    1    1    2    0    0  0.21168673806E+02 -0.93713865751E+01 -0.15807372359E+02  0.28032278857E+02  0.00000000000E+00 0. -1.
         11    1    1    2    0    0  0.57912283567E+02 -0.39196954473E+02  0.24347595530E+03  0.25331951097E+03  0.00000000000E+00 0.  1.
</event>
<event>
 7    1  0.2855090E-009  0.1151460E+03  0.7561462E-02  0.1251327E+00
          2   -1    0    0  501    0  0.00000000000E+00  0.00000000000E+00  0.26642932981E+03  0.26642932981E+03  0.00000000000E+00 0. -1.
         -2   -1    0    0    0  501 -0.00000000000E+00 -0.00000000000E+00 -0.58849458808E+02  0.58849458808E+02  0.00000000000E+00 0.  1.
         25    2    1    2    0    0  0.40179248780E+02 -0.41640870180E+02  0.98856697189E+02  0.16961162913E+03  0.12508846492E+03 0.  0.
          5    1    3    3  502    0  0.19902348220E+02 -0.83432956527E+02  0.85304800265E+02  0.12104355847E+03  0.41800000000E+01 0. -1.
         -5    1    3    3    0  502  0.20276900560E+02  0.41792086347E+02  0.13551896925E+02  0.48568070662E+02  0.41800000000E+01 0. -1.
        -11    1    1    2    0    0  0.23290353293E+02  0.20061802718E+02  0.74085932230E+02  0.80209985907E+02  0.00000000000E+00 0. -1.
         11    1    1    2    0    0 -0.63469602073E+02  0.21579067462E+02  0.34637241582E+02  0.75457173577E+02  0.00000000000E+00 0.  1.
</event>
<event>
 7    1  0.2855090E-009  0.2644893E+03  0.7561462E-02  0.1104476E+00
         -1   -1    0    0    0  501 -0.00000000000E+00  0.00000000000E+00  0.52645090147E+03  0.52645090147E+03  0.00000000000E+00 0.  1.
          1   -1    0    0  501    0  0.00000000000E+00 -0.00000000000E+00 -0.14997875995E+03  0.14997875995E+03  0.00000000000E+00 0. -1.
         25    2    1    2    0    0  0.58473069073E+02  0.24972265326E+03  0.23582595400E+03  0.37019234158E+03  0.12509190951E+03 0.  0.
          5    1    3    3  502    0  0.24495216899E+02  0.18929616142E+03  0.23224984003E+03  0.30065015046E+03  0.41800000000E+01 0.  1.
         -5    1    3    3    0  502  0.33977852174E+02  0.60426491835E+02  0.35761139727E+01  0.69542191115E+02  0.41800000000E+01 0.  1.
        -11    1    1    2    0    0 -0.75805843368E+02 -0.15777640290E+03  0.68025293271E+02  0.18779605886E+03  0.00000000000E+00 0. -1.
         11    1    1    2    0    0  0.17332774294E+02 -0.91946250360E+02  0.72620894251E+02  0.11844126098E+03  0.00000000000E+00 0.  1.
</event>
<event>
 7    1  0.2855090E-009  0.1176855E+03  0.7561462E-02  0.1246965E+00
          1   -1    0    0  501    0  0.00000000000E+00  0.00000000000E+00  0.18477714684E+04  0.18477714684E+04  0.00000000000E+00 0. -1.
         -1   -1    0    0    0  501 -0.00000000000E+00 -0.00000000000E+00 -0.93781546740E+01  0.93781546740E+01  0.00000000000E+00 0.  1.
         25    2    1    2    0    0  0.30086379737E+02 -0.41508445499E+02  0.13829133026E+04  0.13895049642E+04  0.12508677640E+03 0.  0.
          5    1    3    3  502    0  0.77666883764E+02 -0.28309198051E+02  0.71998028673E+03  0.72472245806E+03  0.41800000000E+01 0.  1.
         -5    1    3    3    0  502 -0.47580504027E+02 -0.13199247447E+02  0.66293301588E+03  0.66478250612E+03  0.41800000000E+01 0.  1.
        -11    1    1    2    0    0 -0.76162708104E+01 -0.28510311543E+02  0.86121790503E+02  0.91037400253E+02  0.00000000000E+00 0.  1.
         11    1    1    2    0    0 -0.22470108927E+02  0.70018757042E+02  0.36935822061E+03  0.37660725865E+03  0.00000000000E+00 0. -1.
</event>
<event>
 7    1  0.2855090E-009  0.2828213E+03  0.7561462E-02  0.1094158E+00
          1   -1    0    0  501    0  0.00000000000E+00  0.00000000000E+00  0.82917401748E+03  0.82917401748E+03  0.00000000000E+00 0. -1.
         -1   -1    0    0    0  501 -0.00000000000E+00 -0.00000000000E+00 -0.10759782446E+03  0.10759782446E+03  0.00000000000E+00 0.  1.
         25    2    1    2    0    0 -0.48190073552E+02  0.27151750456E+03  0.43495827960E+03  0.52998033420E+03  0.12508561537E+03 0.  0.
          5    1    3    3  502    0 -0.18761727535E+02  0.51713125330E+02  0.19742540453E+03  0.20498905459E+03  0.41800000000E+01 0.  1.
         -5    1    3    3    0  502 -0.29428346016E+02  0.21980437923E+03  0.23753287508E+03  0.32499127961E+03  0.41800000000E+01 0.  1.
        -11    1    1    2    0    0  0.57896122239E+02 -0.90786600344E+02  0.10741303530E+03  0.15209118293E+03  0.00000000000E+00 0.  1.
         11    1    1    2    0    0 -0.97060486878E+01 -0.18073090422E+03  0.17920487811E+03  0.25470032481E+03  0.00000000000E+00 0. -1.
</event>
<event>
 7    1  0.2855090E-009  0.1056443E+03  0.7561462E-02  0.1268855E+00
         -1   -1    0    0    0  501 -0.00000000000E+00  0.00000000000E+00  0.11309356613E+04  0.11309356613E+04  0.00000000000E+00 0.  1.
          1   -1    0    0  501    0  0.00000000000E+00 -0.00000000000E+00 -0.16942976651E+02  0.16942976651E+02  0.00000000000E+00 0. -1.
         25    2    1    2    0    0  0.36896866698E+02 -0.49790522057E+02  0.85712743610E+03  0.86842141812E+03  0.12509133813E+03 0.  0.
          5    1    3    3  502    0 -0.32911643376E+02 -0.59113332466E+02  0.36191670169E+03  0.36821017600E+03  0.41800000000E+01 0. -1.
         -5    1    3    3    0  502  0.69808510074E+02  0.93228104087E+01  0.49521073440E+03  0.50021124212E+03  0.41800000000E+01 0. -1.
        -11    1    1    2    0    0 -0.31469836422E+02  0.10336039253E+02  0.18806805763E+02  0.38090422089E+02  0.00000000000E+00 0. -1.
         11    1    1    2    0    0 -0.54270302756E+01  0.39454482804E+02  0.23805844279E+03  0.24136679775E+03  0.00000000000E+00 0.  1.
</event>
<event>
 7    1  0.2855090E-009  0.1832224E+03  0.7561462E-02  0.1164720E+00
         -2   -1    0    0    0  501 -0.00000000000E+00  0.00000000000E+00  0.32598594107E+02  0.32598594107E+02  0.00000000000E+00 0.  1.
          2   -1    0    0  501    0  0.00000000000E+00 -0.00000000000E+00 -0.13324200671E+04  0.13324200671E+04  0.00000000000E+00 0. -1.
         25    2    1    2    0    0 -0.81372809820E+02 -0.13085836767E+03 -0.38542972349E+03  0.43353001032E+03  0.12508697585E+03 0.  0.
          5    1    3    3  502    0 -0.10674434877E+03 -0.76128587256E+02 -0.20633743084E+03  0.24450465345E+03  0.41800000000E+01 0. -1.
         -5    1    3    3    0  502  0.25371538947E+02 -0.54729780418E+02 -0.17909229265E+03  0.18902535687E+03  0.41800000000E+01 0. -1.
        -11    1    1    2    0    0  0.57534214306E+02  0.19244602839E+02 -0.24257641298E+03  0.25004770882E+03  0.00000000000E+00 0.  1.
         11    1    1    2    0    0  0.23838595514E+02  0.11161376483E+03 -0.67181533652E+03  0.68144094206E+03  0.00000000000E+00 0. -1.
</event>
<event>
 7    1  0.2855090E-009  0.1243835E+03  0.7561462E-02  0.1236036E+00
         -2   -1    0    0    0  501 -0.00000000000E+00  0.00000000000E+00  0.15139831021E+02  0.15139831021E+02  0.00000000000E+00 0.  1.
          2   -1    0    0  501    0  0.00000000000E+00 -0.00000000000E+00 -0.11633346980E+04  0.11633346980E+04  0.00000000000E+00 0. -1.
         25    2    1    2    0    0 -0.57820429658E+02  0.40070926107E+02 -0.79088089042E+03  0.80379627187E+03  0.12508789960E+03 0.  0.
          5    1    3    3  502    0 -0.49244839296E+02 -0.39177256541E+02 -0.31224438787E+03  0.31854974773E+03  0.41800000000E+01 0. -1.
         -5    1    3    3    0  502 -0.85755903623E+01  0.79248182648E+02 -0.47863650256E+03  0.48524652413E+03  0.41800000000E+01 0. -1.
        -11    1    1    2    0    0  0.42485303204E+02 -0.64382000218E+02 -0.30880158601E+03  0.31828990317E+03  0.00000000000E+00 0. -1.
         11    1    1    2    0    0  0.15335126454E+02  0.24311074111E+02 -0.48512390529E+02  0.56388353963E+02  0.00000000000E+00 0.  1.
</event>
<event>
 7    1  0.2855090E-009  0.8721602E+02  0.7561462E-02  0.1309737E+00
         -1   -1    0    0    0  501 -0.00000000000E+00  0.00000000000E+00  0.11572952436E+03  0.11572952436E+03  0.00000000000E+00 0.  1.
          1   -1    0    0  501    0  0.00000000000E+00 -0.00000000000E+00 -0.18510863035E+03  0.18510863035E+03  0.00000000000E+00 0. -1.
         25    2    1    2    0    0 -0.13099527614E+01 -0.66976403076E+01  0.62507997198E+02  0.14000391562E+03  0.12508905753E+03 0.  0.
          5    1    3    3  502    0  0.59523967522E+02  0.97904462368E+01  0.41874968539E+02  0.73552300693E+02  0.41800000000E+01 0. -1.
         -5    1    3    3    0  502 -0.60833920283E+02 -0.16488086544E+02  0.20633028658E+02  0.66451614928E+02  0.41800000000E+01 0. -1.
        -11    1    1    2    0    0  0.25734472937E+02  0.12092547514E+01 -0.13329427947E+03  0.13576115179E+03  0.00000000000E+00 0. -1.
         11    1    1    2    0    0 -0.24424520176E+02  0.54883855562E+01  0.14071762921E+01  0.25073087304E+02  0.00000000000E+00 0.  1.
</event>
<event>
 7    1  0.2855090E-009  0.2258464E+03  0.7561462E-02  0.1129598E+00
         -1   -1    0    0    0  501 -0.00000000000E+00  0.00000000000E+00  0.19925501347E+03  0.19925501347E+03  0.00000000000E+00 0.  1.
          1   -1    0    0  501    0  0.00000000000E+00 -0.00000000000E+00 -0.27664071009E+03  0.27664071009E+03  0.00000000000E+00 0. -1.
         25    2    1    2    0    0 -0.16703499696E+03  0.12407173329E+03 -0.50175503215E+02  0.24790921051E+03  0.12508761059E+03 0.  0.
          5    1    3    3  502    0 -0.13965204596E+03  0.33073484898E+02 -0.78319388762E+01  0.14378929380E+03  0.41800000000E+01 0.  1.
         -5    1    3    3    0  502 -0.27382951001E+02  0.90998248388E+02 -0.42343564338E+02  0.10411991671E+03  0.41800000000E+01 0.  1.
        -11    1    1    2    0    0  0.86604256090E+02 -0.36181677326E+02 -0.50518217946E+02  0.10659034333E+03  0.00000000000E+00 0. -1.
         11    1    1    2    0    0  0.80430740871E+02 -0.87890055960E+02  0.23308024540E+02  0.12139616972E+03  0.00000000000E+00 0.  1.
</event>
<event>
 7    1  0.2855090E-009  0.1220142E+03  0.7561462E-02  0.1239811E+00
         -2   -1    0    0    0  501 -0.00000000000E+00  0.00000000000E+00  0.10880821578E+03  0.10880821578E+03  0.00000000000E+00 0. -1.
          2   -1    0    0  501    0  0.00000000000E+00 -0.00000000000E+00 -0.42841295965E+03  0.42841295965E+03  0.00000000000E+00 0.  1.
         25    2    1    2    0    0  0.48785626459E+02  0.55445116656E+02  0.46778171020E+02  0.15260977569E+03  0.12508936023E+03 0.  0.
          5    1    3    3  502    0  0.81004869879E+02  0.57926226093E+02  0.61215941519E+02  0.11697051128E+03  0.41800000000E+01 0.  1.
         -5    1    3    3    0  502 -0.32219243421E+02 -0.24811094366E+01 -0.14437770499E+02  0.35639264409E+02  0.41800000000E+01 0.  1.
        -11    1    1    2    0    0  0.21412996398E+02  0.13776964137E+01 -0.12616781329E+03  0.12797941855E+03  0.00000000000E+00 0.  1.
         11    1    1    2    0    0 -0.70198622857E+02 -0.56822813070E+02 -0.24021510160E+03  0.25663198120E+03  0.00000000000E+00 0. -1.
</event>
<event>
 7    1  0.2855090E-009  0.1584507E+03  0.7561462E-02  0.1190457E+00
          4   -1    0    0  501    0  0.00000000000E+00  0.00000000000E+00  0.38110858856E+02  0.38110858856E+02  0.00000000000E+00 0.  1.
         -4   -1    0    0    0  501 -0.00000000000E+00 -0.00000000000E+00 -0.86601257248E+03  0.86601257248E+03  0.00000000000E+00 0. -1.
         25    2    1    2    0    0 -0.14348546899E+03 -0.18566854539E+02 -0.41039724739E+03  0.45277490791E+03  0.12508560535E+03 0.  0.
          5    1    3    3  502    0 -0.13741475711E+03 -0.32325266300E+02 -0.21801764668E+03  0.25976317094E+03  0.41800000000E+01 0.  1.
         -5    1    3    3    0  502 -0.60707118760E+01  0.13758411761E+02 -0.19237960072E+03  0.19301173697E+03  0.41800000000E+01 0.  1.
        -11    1    1    2    0    0  0.44170416970E+02  0.38705290384E+02 -0.81915241183E+02  0.10079301552E+03  0.00000000000E+00 0.  1.
         11    1    1    2    0    0  0.99315052020E+02 -0.20138435845E+02 -0.33558922505E+03  0.35055550791E+03  0.00000000000E+00 0. -1.
</event>
<event>
 7    1  0.2855090E-009  0.1217250E+03  0.7561462E-02  0.1240278E+00
          1   -1    0    0  501    0  0.00000000000E+00  0.00000000000E+00  0.25696252033E+03  0.25696252033E+03  0.00000000000E+00 0. -1.
         -1   -1    0    0    0  501 -0.00000000000E+00 -0.00000000000E+00 -0.80084073269E+02  0.80084073269E+02  0.00000000000E+00 0.  1.
         25    2    1    2    0    0  0.88791472725E+02 -0.16498946241E+02  0.75960329347E+02  0.17197310493E+03  0.12509450959E+03 0.  0.
          5    1    3    3  502    0 -0.21970956696E+02  0.25966451842E+02  0.26769896752E+02  0.43486541959E+02  0.41800000000E+01 0.  1.
         -5    1    3    3    0  502  0.11076242942E+03 -0.42465398083E+02  0.49190432595E+02  0.12848656297E+03  0.41800000000E+01 0.  1.
        -11    1    1    2    0    0 -0.26642341860E+02  0.23714542476E+01 -0.16532331183E+02  0.31444493149E+02  0.00000000000E+00 0.  1.
         11    1    1    2    0    0 -0.62149130865E+02  0.14127491993E+02  0.11745044890E+03  0.13362899552E+03  0.00000000000E+00 0. -1.
</event>
<event>
 7    1  0.2855090E-009  0.9314280E+02  0.7561462E-02  0.1295415E+00
          2   -1    0    0  501    0  0.00000000000E+00  0.00000000000E+00  0.14222354513E+03  0.14222354513E+03  0.00000000000E+00 0. -1.
         -2   -1    0    0    0  501 -0.00000000000E+00 -0.00000000000E+00 -0.93611751901E+02  0.93611751901E+02  0.00000000000E+00 0.  1.
         25    2    1    2    0    0  0.61516271890E+01 -0.35338038160E+02  0.18716245449E+02  0.13147062744E+03  0.12509040162E+03 0.  0.
          5    1    3    3  502    0  0.54001920215E+02  0.64341606754E+01  0.36192319934E+02  0.65459622919E+02  0.41800000000E+01 0.  1.
         -5    1    3    3    0  502 -0.47850293026E+02 -0.41772198835E+02 -0.17476074485E+02  0.66011004519E+02  0.41800000000E+01 0.  1.
        -11    1    1    2    0    0 -0.31984809157E+02  0.15667682456E+02  0.53465424606E+02  0.64242166205E+02  0.00000000000E+00 0. -1.
         11    1    1    2    0    0  0.25833181968E+02  0.19670355704E+02 -0.23569876829E+02  0.40122503385E+02  0.00000000000E+00 0.  1.
</event>
<event>
 7    1  0.2855090E-009  0.1126804E+03  0.7561462E-02  0.1255685E+00
          1   -1    0    0  501    0  0.00000000000E+00  0.00000000000E+00  0.72448426559E+03  0.72448426559E+03  0.00000000000E+00 0. -1.
         -1   -1    0    0    0  501 -0.00000000000E+00 -0.00000000000E+00 -0.24252381827E+02  0.24252381827E+02  0.00000000000E+00 0.  1.
         25    2    1    2    0    0 -0.72917862356E+02 -0.36733664691E+01  0.47745316313E+03  0.49893854743E+03  0.12509053861E+03 0.  0.
          5    1    3    3  502    0 -0.15008340136E+02 -0.60921929051E+02  0.22685534543E+03  0.23540932832E+03  0.41800000000E+01 0.  1.
         -5    1    3    3    0  502 -0.57909522219E+02  0.57248562582E+02  0.25059781771E+03  0.26352921910E+03  0.41800000000E+01 0.  1.
        -11    1    1    2    0    0  0.20992284701E+02  0.17361257748E+02  0.79761753241E+01  0.28385007669E+02  0.00000000000E+00 0.  1.
         11    1    1    2    0    0  0.51925577655E+02 -0.13687891279E+02  0.21480254531E+03  0.22141309232E+03  0.00000000000E+00 0. -1.
</event>
<event>
 7    1  0.2855090E-009  0.2021324E+03  0.7561462E-02  0.1147952E+00
          2   -1    0    0  501    0  0.00000000000E+00  0.00000000000E+00  0.10492680098E+04  0.10492680098E+04  0.00000000000E+00 0.  1.
         -2   -1    0    0    0  501 -0.00000000000E+00 -0.00000000000E+00 -0.44287154020E+02  0.44287154020E+02  0.00000000000E+00 0. -1.
         25    2    1    2    0    0 -0.10418706154E+03  0.14717578523E+03  0.40255604408E+03  0.45849193276E+03  0.12509127959E+03 0.  0.
          5    1    3    3  502    0 -0.65001034598E+02  0.23953856107E+01  0.16627275599E+03  0.17859164078E+03  0.41800000000E+01 0. -1.
         -5    1    3    3    0  502 -0.39186026939E+02  0.14478039962E+03  0.23628328809E+03  0.27990029198E+03  0.41800000000E+01 0. -1.
        -11    1    1    2    0    0  0.98223142314E+01 -0.59248628526E+02  0.30530157756E+03  0.31115258491E+03  0.00000000000E+00 0.  1.
         11    1    1    2    0    0  0.94364747305E+02 -0.87927156701E+02  0.29712323411E+03  0.32391064612E+03  0.00000000000E+00 0. -1.
</event>
<event>
 7    1  0.2855090E-009  0.9561654E+02  0.7561462E-02  0.1289794E+00
         -3   -1    0    0    0  501 -0.00000000000E+00  0.00000000000E+00  0.13377654023E+03  0.13377654023E+03  0.00000000000E+00 0.  1.
          3   -1    0    0  501    0  0.00000000000E+00 -0.00000000000E+00 -0.13638104950E+03  0.13638104950E+03  0.00000000000E+00 0. -1.
         25    2    1    2    0    0 -0.57901915440E+02  0.39856251340E+02 -0.31752726229E+02  0.14695859946E+03  0.12508973480E+03 0.  0.
          5    1    3    3  502    0 -0.63463384963E+02  0.12202892694E+02 -0.72507976170E+02  0.97218263867E+02  0.41800000000E+01 0. -1.
         -5    1    3    3    0  502  0.55614695236E+01  0.27653358646E+02  0.40755249941E+02  0.49740335598E+02  0.41800000000E+01 0. -1.
        -11    1    1    2    0    0  0.59282032014E+02 -0.12184445569E+01  0.51502781308E+02  0.78539037486E+02  0.00000000000E+00 0.  1.
         11    1    1    2    0    0 -0.13801165744E+01 -0.38637806783E+02 -0.22354564354E+02  0.44659952779E+02  0.00000000000E+00 0. -1.
</event>
<event>
 7    1  0.3602481E-009  0.2783090E+03  0.7561462E-02  0.1096616E+00
          2   -1    0    0  501    0  0.00000000000E+00  0.00000000000E+00  0.92857262312E+03  0.92857262312E+03  0.00000000000E+00 0. -1.
         -2   -1    0    0    0  501 -0.00000000000E+00 -0.00000000000E+00 -0.96786319693E+02  0.96786319693E+02  0.00000000000E+00 0.  1.
         25    2    1    2    0    0  0.26348614353E+03  0.18963314414E+02  0.57878832623E+03  0.64840438236E+03  0.12509101231E+03 0.  0.
          5    1    3    3  502    0  0.78785413939E+02 -0.51724038880E+02  0.19634680862E+03  0.21783493591E+03  0.41800000000E+01 0. -1.
         -5    1    3    3    0  502  0.18470072959E+03  0.70687353294E+02  0.38244151760E+03  0.43056944645E+03  0.41800000000E+01 0. -1.
        -11    1    1    2    0    0 -0.15265710476E+03 -0.17228674566E+02  0.84682282919E+02  0.17541980476E+03  0.00000000000E+00 0.  1.
         11    1    1    2    0    0 -0.11082903877E+03 -0.17346398483E+01  0.16831569428E+03  0.20153475569E+03  0.00000000000E+00 0. -1.
</event>
<event>
 7    1  0.2855090E-009  0.1079766E+03  0.7561462E-02  0.1264364E+00
          3   -1    0    0  501    0  0.00000000000E+00  0.00000000000E+00  0.33344965789E+03  0.33344965789E+03  0.00000000000E+00 0. -1.
         -3   -1    0    0    0  501 -0.00000000000E+00 -0.00000000000E+00 -0.47124976104E+02  0.47124976104E+02  0.00000000000E+00 0.  1.
         25    2    1    2    0    0 -0.15394431399E+02 -0.59302187783E+02  0.18311711012E+03  0.23007181366E+03  0.12508966954E+03 0.  0.
          5    1    3    3  502    0 -0.25910403773E+02 -0.79739839423E+02  0.56201676937E+02  0.10102421445E+03  0.41800000000E+01 0. -1.
         -5    1    3    3    0  502  0.10515972374E+02  0.20437651640E+02  0.12691543319E+03  0.12904759920E+03  0.41800000000E+01 0. -1.
        -11    1    1    2    0    0 -0.31426814030E+02  0.52700308146E+02  0.48646120673E+02  0.78303334382E+02  0.00000000000E+00 0.  1.
         11    1    1    2    0    0  0.46821245429E+02  0.66018796377E+01  0.54561450986E+02  0.72199485954E+02  0.00000000000E+00 0. -1.
</event>
<event>
 7    1  0.4662957E-009  0.1893894E+03  0.7561462E-02  0.1159013E+00
          1   -1    0    0  501    0  0.00000000000E+00  0.00000000000E+00  0.22032221629E+04  0.22032221629E+04  0.00000000000E+00 0. -1.
         -1   -1    0    0    0  501 -0.00000000000E+00 -0.00000000000E+00 -0.18140098354E+02  0.18140098354E+02  0.00000000000E+00 0.  1.
         25    2    1    2    0    0  0.16120070696E+03  0.15020935005E+02  0.13872085347E+04  0.14022137625E+04  0.12507845811E+03 0.  0.
          5    1    3    3  502    0  0.22342223213E+02 -0.43132179836E+02  0.22052912126E+03  0.22585421315E+03  0.41800000000E+01 0.  1.
         -5    1    3    3    0  502  0.13885848374E+03  0.58153114841E+02  0.11666794134E+04  0.11763595494E+04  0.41800000000E+01 0.  1.
        -11    1    1    2    0    0 -0.10795615531E+03  0.27360641532E+02  0.38812880370E+03  0.40379091673E+03  0.00000000000E+00 0.  1.
         11    1    1    2    0    0 -0.53244551645E+02 -0.42381576536E+02  0.40974472621E+03  0.41535758205E+03  0.00000000000E+00 0. -1.
</event>
<event>
 7    1  0.3805877E-009  0.1275953E+03  0.7561462E-02  0.1231068E+00
         -1   -1    0    0    0  501 -0.00000000000E+00  0.00000000000E+00  0.47494137559E+02  0.47494137559E+02  0.00000000000E+00 0.  1.
          1   -1    0    0  501    0  0.00000000000E+00 -0.00000000000E+00 -0.44407604985E+03  0.44407604985E+03  0.00000000000E+00 0. -1.
         25    2    1    2    0    0 -0.52326733075E+02  0.80121963616E+02 -0.21143747168E+03  0.26364886702E+03  0.12508918659E+03 0.  0.
          5    1    3    3  502    0 -0.68116365631E+02  0.94954320042E+02 -0.21140008680E+03  0.24158566029E+03  0.41800000000E+01 0. -1.
         -5    1    3    3    0  502  0.15789632557E+02 -0.14832356427E+02 -0.37384887659E-01  0.22063206727E+02  0.41800000000E+01 0. -1.
        -11    1    1    2    0    0 -0.64033557032E+01 -0.49588414964E+02 -0.13765636176E+03  0.14645575371E+03  0.00000000000E+00 0.  1.
         11    1    1    2    0    0  0.58730088778E+02 -0.30533548651E+02 -0.47488078845E+02  0.81465566673E+02  0.00000000000E+00 0. -1.
</event>
<event>
 7    1  0.2855090E-009  0.9026014E+02  0.7561462E-02  0.1302223E+00
          3   -1    0    0  501    0  0.00000000000E+00  0.00000000000E+00  0.19767421484E+03  0.19767421484E+03  0.00000000000E+00 0. -1.
         -3   -1    0    0    0  501 -0.00000000000E+00 -0.00000000000E+00 -0.65352032919E+02  0.65352032919E+02  0.00000000000E+00 0.  1.
         25    2    1    2    0    0 -0.27051090772E+02 -0.15086849214E+02  0.64847271542E+02  0.14426406682E+03  0.12509027867E+03 0.  0.
          5    1    3    3  502    0 -0.52033805712E+02  0.19945402090E+01 -0.18559133320E+02  0.55438334725E+02  0.41800000000E+01 0.  1.
         -5    1    3    3    0  502  0.24982714940E+02 -0.17081389423E+02  0.83406404862E+02  0.88825732096E+02  0.41800000000E+01 0.  1.
        -11    1    1    2    0    0 -0.41816470364E+00 -0.37975886461E+02  0.25784033884E+02  0.45903803955E+02  0.00000000000E+00 0.  1.
         11    1    1    2    0    0  0.27469255476E+02  0.53062735675E+02  0.41690876495E+02  0.72858376983E+02  0.00000000000E+00 0. -1.
</event>
<event>
 7    1  0.2855090E-009  0.1056324E+03  0.7561462E-02  0.1268879E+00
         -2   -1    0    0    0  501 -0.00000000000E+00  0.00000000000E+00  0.21642240562E+03  0.21642240562E+03  0.00000000000E+00 0.  1.
          2   -1    0    0  501    0  0.00000000000E+00 -0.00000000000E+00 -0.66608023635E+02  0.66608023635E+02  0.00000000000E+00 0. -1.
         25    2    1    2    0    0  0.50503267424E+02  0.11132105787E+02  0.82536550719E+02  0.15853483119E+03  0.12508599720E+03 0.  0.
          5    1    3    3  502    0  0.78583872976E+02  0.44967766535E+02  0.62083898665E+02  0.10986085742E+03  0.41800000000E+01 0.  1.
         -5    1    3    3    0  502 -0.28080605552E+02 -0.33835660749E+02  0.20452652054E+02  0.48673973769E+02  0.41800000000E+01 0.  1.
        -11    1    1    2    0    0  0.97566729402E+01  0.86467454217E+01  0.59131611229E+02  0.60551683047E+02  0.00000000000E+00 0.  1.
         11    1    1    2    0    0 -0.60259940365E+02 -0.19778851208E+02  0.81462200405E+01  0.63943915026E+02  0.00000000000E+00 0. -1.
</event>
<event>
 7    1  0.2855090E-009  0.8098347E+02  0.7561462E-02  0.1326283E+00
          1   -1    0    0  501    0  0.00000000000E+00  0.00000000000E+00  0.44285572258E+02  0.44285572258E+02  0.00000000000E+00 0. -1.
         -1   -1    0    0    0  501 -0.00000000000E+00 -0.00000000000E+00 -0.35946144357E+03  0.35946144357E+03  0.00000000000E+00 0.  1.
         25    2    1    2    0    0  0.24571907393E+02 -0.23545059826E+02 -0.26423567270E+03  0.29432258178E+03  0.12508854042E+03 0.  0.
          5    1    3    3  502    0  0.68563270446E+02 -0.23551678292E+02 -0.22049960167E+03  0.23214898307E+03  0.41800000000E+01 0.  1.
         -5    1    3    3    0  502 -0.43991363053E+02  0.66184658581E-02 -0.43736071024E+02  0.62173598703E+02  0.41800000000E+01 0.  1.
        -11    1    1    2    0    0 -0.15556609548E+02  0.30189659053E+02 -0.75304910353E+02  0.82609037869E+02  0.00000000000E+00 0.  1.
         11    1    1    2    0    0 -0.90152978455E+01 -0.66445992264E+01  0.24364711740E+02  0.26815396180E+02  0.00000000000E+00 0. -1.
</event>
<event>
 7    1  0.2855090E-009  0.1010945E+03  0.7561462E-02  0.1278011E+00
          1   -1    0    0  501    0  0.00000000000E+00  0.00000000000E+00  0.60998373250E+03  0.60998373250E+03  0.00000000000E+00 0. -1.
         -1   -1    0    0    0  501 -0.00000000000E+00 -0.00000000000E+00 -0.21384642587E+02  0.21384642587E+02  0.00000000000E+00 0.  1.
         25    2    1    2    0    0 -0.18586243292E+02  0.22150584612E+02  0.26200284647E+03  0.29177286387E+03  0.12509922340E+03 0.  0.
          5    1    3    3  502    0  0.26858272835E+00  0.63460496571E+02  0.22259708326E+03  0.23150429939E+03  0.41800000000E+01 0.  1.
         -5    1    3    3    0  502 -0.18854826021E+02 -0.41309911960E+02  0.39405763214E+02  0.60268564483E+02  0.41800000000E+01 0.  1.
        -11    1    1    2    0    0 -0.33546346057E+02 -0.23299472808E+02  0.13694488850E+03  0.14290600146E+03  0.00000000000E+00 0.  1.
         11    1    1    2    0    0  0.52132589349E+02  0.11488881958E+01  0.18965135495E+03  0.19668950976E+03  0.00000000000E+00 0. -1.
</event>
<event>
 7    1  0.4176273E-009  0.1604264E+03  0.7561462E-02  0.1188216E+00
          2   -1    0    0  501    0  0.00000000000E+00  0.00000000000E+00  0.11240222480E+04  0.11240222480E+04  0.00000000000E+00 0. -1.
         -2   -1    0    0    0  501 -0.00000000000E+00 -0.00000000000E+00 -0.29983232781E+02  0.29983232781E+02  0.00000000000E+00 0.  1.
         25    2    1    2    0    0  0.56462225179E+02 -0.12704011077E+03  0.42061848928E+03  0.46031993561E+03  0.12508939593E+03 0.  0.
          5    1    3    3  502    0  0.87219562769E+02 -0.64860835099E+02  0.18440619609E+03  0.21409646801E+03  0.41800000000E+01 0.  1.
         -5    1    3    3    0  502 -0.30757337591E+02 -0.62179275675E+02  0.23621229320E+03  0.24622346760E+03  0.41800000000E+01 0.  1.
        -11    1    1    2    0    0  0.35265934951E+01  0.15901998965E+02  0.11786265571E+02  0.20105384574E+02  0.00000000000E+00 0.  1.
         11    1    1    2    0    0 -0.59988818674E+02  0.11113811181E+03  0.66163426033E+03  0.67358016056E+03  0.00000000000E+00 0. -1.
</event>
<event>
 7    1  0.2855090E-009  0.9600302E+02  0.7561462E-02  0.1288933E+00
          1   -1    0    0  501    0  0.00000000000E+00  0.00000000000E+00  0.12114663076E+03  0.12114663076E+03  0.00000000000E+00 0. -1.
         -1   -1    0    0    0  501 -0.00000000000E+00 -0.00000000000E+00 -0.14503135032E+03  0.14503135032E+03  0.00000000000E+00 0.  1.
         25    2    1    2    0    0  0.53111163952E+02 -0.18592763432E+02 -0.66248431547E+02  0.15232321939E+03  0.12508805656E+03 0.  0.
          5    1    3    3  502    0  0.13634107594E+02  0.46402168850E+02  0.40057548155E+01  0.48709020063E+02  0.41800000000E+01 0. -1.
         -5    1    3    3    0  502  0.39477056357E+02 -0.64994932282E+02 -0.70254186362E+02  0.10361419933E+03  0.41800000000E+01 0. -1.
        -11    1    1    2    0    0 -0.45440438082E+02 -0.18397785775E+01  0.66977761883E+02  0.80958253348E+02  0.00000000000E+00 0. -1.
         11    1    1    2    0    0 -0.76707258700E+01  0.20432542009E+02 -0.24614049899E+02  0.32896508337E+02  0.00000000000E+00 0.  1.
</event>
<event>
 7    1  0.2855090E-009  0.1300763E+03  0.7561462E-02  0.1227343E+00
         -1   -1    0    0    0  501 -0.00000000000E+00  0.00000000000E+00  0.46894934140E+03  0.46894934140E+03  0.00000000000E+00 0.  1.
          1   -1    0    0  501    0  0.00000000000E+00 -0.00000000000E+00 -0.41095975047E+02  0.41095975047E+02  0.00000000000E+00 0. -1.
         25    2    1    2    0    0 -0.67232169535E+02 -0.57608455249E+02  0.26801378451E+03  0.30874004538E+03  0.12510047240E+03 0.  0.
          5    1    3    3  502    0  0.34193634847E+02  0.24195081459E+01  0.48281390086E+02  0.59360118871E+02  0.41800000000E+01 0. -1.
         -5    1    3    3    0  502 -0.10142580438E+03 -0.60027963395E+02  0.21973239443E+03  0.24937992651E+03  0.41800000000E+01 0. -1.
        -11    1    1    2    0    0  0.30781035032E+02 -0.87289573798E+01  0.99463231267E+02  0.10448254011E+03  0.00000000000E+00 0.  1.
         11    1    1    2    0    0  0.36451134503E+02  0.66337412629E+02  0.60376350568E+02  0.96822730950E+02  0.00000000000E+00 0. -1.
</event>
<event>
 7    1  0.4770832E-009  0.1962833E+03  0.7561462E-02  0.1152913E+00
          1   -1    0    0  501    0  0.00000000000E+00  0.00000000000E+00  0.12633413877E+04  0.12633413877E+04  0.00000000000E+00 0. -1.
         -1   -1    0    0    0  501 -0.00000000000E+00 -0.00000000000E+00 -0.39125850254E+02  0.39125850254E+02  0.00000000000E+00 0.  1.
         25    2    1    2    0    0  0.16113037251E+03 -0.90763829381E+02  0.80212220236E+03  0.83261579178E+03  0.12509180444E+03 0.  0.
          5    1    3    3  502    0  0.90942735867E+01 -0.46365381114E+02  0.77416109747E+02  0.90791964547E+02  0.41800000000E+01 0. -1.
         -5    1    3    3    0  502  0.15203609892E+03 -0.44398448267E+02  0.72470609261E+03  0.74182382723E+03  0.41800000000E+01 0. -1.
        -11    1    1    2    0    0 -0.59775887576E+02  0.19822979044E+02  0.59138106047E+02  0.86391103827E+02  0.00000000000E+00 0.  1.
         11    1    1    2    0    0 -0.10135448493E+03  0.70940850337E+02  0.36295522901E+03  0.38346034231E+03  0.00000000000E+00 0. -1.
</event>
<event>
 7    1  0.2855090E-009  0.1433154E+03  0.7561462E-02  0.1208936E+00
          2   -1    0    0  501    0  0.00000000000E+00  0.00000000000E+00  0.65996510280E+03  0.65996510280E+03  0.00000000000E+00 0. -1.
         -2   -1    0    0    0  501 -0.00000000000E+00 -0.00000000000E+00 -0.33843790637E+02  0.33843790637E+02  0.00000000000E+00 0.  1.
         25    2    1    2    0    0  0.33882886641E+02  0.96213332817E+02  0.31853719252E+03  0.35709695501E+03  0.12508891572E+03 0.  0.
          5    1    3    3  502    0 -0.44295042287E+02  0.30767458893E+02  0.70284456655E+02  0.88690836873E+02  0.41800000000E+01 0. -1.
         -5    1    3    3    0  502  0.78177928928E+02  0.65445873924E+02  0.24825273587E+03  0.26840611813E+03  0.41800000000E+01 0. -1.
        -11    1    1    2    0    0  0.27038722798E+02 -0.33704834925E+02  0.15516590559E+03  0.16107006763E+03  0.00000000000E+00 0. -1.
         11    1    1    2    0    0 -0.60921609439E+02 -0.62508497892E+02  0.15241821405E+03  0.17564187080E+03  0.00000000000E+00 0.  1.
</event>
<event>
 7    1  0.2855090E-009  0.8243442E+02  0.7561462E-02  0.1322281E+00
          2   -1    0    0  501    0  0.00000000000E+00  0.00000000000E+00  0.92063826240E+03  0.92063826240E+03  0.00000000000E+00 0. -1.
         -2   -1    0    0    0  501 -0.00000000000E+00 -0.00000000000E+00 -0.17297832651E+02  0.17297832651E+02  0.00000000000E+00 0.  1.
         25    2    1    2    0    0 -0.15460663609E+02 -0.38786758062E+02  0.71695509772E+03  0.72898252395E+03  0.12508982114E+03 0.  0.
          5    1    3    3  502    0  0.27475126397E+02 -0.30792739756E+01  0.35306971384E+02  0.45037974278E+02  0.41800000000E+01 0.  1.
         -5    1    3    3    0  502 -0.42935790006E+02 -0.35707484087E+02  0.68164812634E+03  0.68394454967E+03  0.41800000000E+01 0.  1.
        -11    1    1    2    0    0 -0.23515840714E+02  0.34421707929E+02  0.14917494710E+03  0.15489032760E+03  0.00000000000E+00 0. -1.
         11    1    1    2    0    0  0.38976504323E+02  0.43650501335E+01  0.37210384927E+02  0.54063243505E+02  0.00000000000E+00 0.  1.
</event>
<event>
 7    1  0.2855090E-009  0.9421343E+02  0.7561462E-02  0.1292958E+00
          1   -1    0    0  501    0  0.00000000000E+00  0.00000000000E+00  0.45912133541E+03  0.45912133541E+03  0.00000000000E+00 0. -1.
         -1   -1    0    0    0  501 -0.00000000000E+00 -0.00000000000E+00 -0.27199122496E+02  0.27199122496E+02  0.00000000000E+00 0.  1.
         25    2    1    2    0    0 -0.83974209007E+01 -0.27919351464E+02  0.20786918585E+03  0.24435006643E+03  0.12508936676E+03 0.  0.
          5    1    3    3  502    0  0.83985294364E+01  0.40579100315E+02  0.14117966365E+03  0.14719500163E+03  0.41800000000E+01 0. -1.
         -5    1    3    3    0  502 -0.16795950337E+02 -0.68498451780E+02  0.66689522203E+02  0.97155064797E+02  0.41800000000E+01 0. -1.
        -11    1    1    2    0    0  0.33058753509E+02  0.37208785777E+02  0.71261025822E+02  0.86922429348E+02  0.00000000000E+00 0.  1.
         11    1    1    2    0    0 -0.24661332608E+02 -0.92894343130E+01  0.15279200125E+03  0.15504796213E+03  0.00000000000E+00 0. -1.
</event>
<event>
 7    1  0.2855090E-009  0.1043629E+03  0.7561462E-02  0.1271380E+00
          1   -1    0    0  501    0  0.00000000000E+00  0.00000000000E+00  0.41905372669E+02  0.41905372669E+02  0.00000000000E+00 0. -1.
         -1   -1    0    0    0  501 -0.00000000000E+00 -0.00000000000E+00 -0.40159468647E+03  0.40159468647E+03  0.00000000000E+00 0.  1.
         25    2    1    2    0    0 -0.43811891635E+02 -0.25603425416E+02 -0.28804412093E+03  0.31811206663E+03  0.12510337362E+03 0.  0.
          5    1    3    3  502    0 -0.27634346804E+02  0.34793176074E+02 -0.22440140784E+03  0.22879616795E+03  0.41800000000E+01 0. -1.
         -5    1    3    3    0  502 -0.16177544831E+02 -0.60396601490E+02 -0.63642713085E+02  0.89315898680E+02  0.41800000000E+01 0. -1.
        -11    1    1    2    0    0  0.29440279345E+02  0.58523707122E+02 -0.56094237441E+02  0.86245682890E+02  0.00000000000E+00 0. -1.
         11    1    1    2    0    0  0.14371612291E+02 -0.32920281706E+02 -0.15550955427E+02  0.39142309617E+02  0.00000000000E+00 0.  1.
</event>
<event>
 7    1  0.2855090E-009  0.1516920E+03  0.7561462E-02  0.1198409E+00
          1   -1    0    0  501    0  0.00000000000E+00  0.00000000000E+00  0.51112611096E+02  0.51112611096E+02  0.00000000000E+00 0. -1.
         -1   -1    0    0    0  501 -0.00000000000E+00 -0.00000000000E+00 -0.73953432038E+03  0.73953432038E+03  0.00000000000E+00 0.  1.
         25    2    1    2    0    0  0.13679913068E+03  0.18905039257E+02 -0.52939274949E+03  0.56122663435E+03  0.12508896524E+03 0.  0.
          5    1    3    3  502    0  0.12705112897E+01  0.28933761953E+02 -0.23941355038E+02  0.37807904739E+02  0.41800000000E+01 0.  1.
         -5    1    3    3    0  502  0.13552861939E+03 -0.10028722697E+02 -0.50545139445E+03  0.52341872961E+03  0.41800000000E+01 0.  1.
        -11    1    1    2    0    0 -0.40441834143E+02 -0.37240772477E+01 -0.11581756001E+03  0.12273189441E+03  0.00000000000E+00 0.  1.
         11    1    1    2    0    0 -0.96357296533E+02 -0.15180962009E+02 -0.43211399790E+02  0.10668840272E+03  0.00000000000E+00 0. -1.
</event>
<event>
 7    1  0.2855090E-009  0.2148219E+03  0.7561462E-02  0.1137803E+00
          1   -1    0    0  501    0  0.00000000000E+00  0.00000000000E+00  0.69533949541E+02  0.69533949541E+02  0.00000000000E+00 0. -1.
         -1   -1    0    0    0  501 -0.00000000000E+00 -0.00000000000E+00 -0.88720790679E+03  0.88720790679E+03  0.00000000000E+00 0.  1.
         25    2    1    2    0    0 -0.54561476390E+02 -0.18946402437E+03 -0.22021546286E+03  0.32096143475E+03  0.12509125179E+03 0.  0.
          5    1    3    3  502    0 -0.40482428109E+02 -0.97266909616E+01 -0.87704477555E+02  0.97175013691E+02  0.41800000000E+01 0. -1.
         -5    1    3    3    0  502 -0.14079048281E+02 -0.17973733341E+03 -0.13251098530E+03  0.22378642105E+03  0.41800000000E+01 0. -1.
        -11    1    1    2    0    0  0.69514087354E+02  0.15879104187E+03 -0.40834442717E+03  0.44361241475E+03  0.00000000000E+00 0. -1.
         11    1    1    2    0    0 -0.14952610964E+02  0.30672982507E+02 -0.18911406723E+03  0.19216800684E+03  0.00000000000E+00 0.  1.
</event>
<event>
 7    1  0.2855090E-009  0.6021117E+02  0.7561462E-02  0.1396948E+00
          2   -1    0    0  501    0  0.00000000000E+00  0.00000000000E+00  0.64418895226E+03  0.64418895226E+03  0.00000000000E+00 0. -1.
         -2   -1    0    0    0  501 -0.00000000000E+00 -0.00000000000E+00 -0.21764503233E+02  0.21764503233E+02  0.00000000000E+00 0.  1.
         25    2    1    2    0    0  0.54345445044E+01 -0.38114577740E+02  0.42671425795E+03  0.44633584530E+03  0.12509345928E+03 0.  0.
          5    1    3    3  502    0 -0.33969714642E+01 -0.17242325070E+02  0.42252645932E+03  0.42291242405E+03  0.41800000000E+01 0. -1.
         -5    1    3    3    0  502  0.88315159685E+01 -0.20872252670E+02  0.41877986258E+01  0.23423421252E+02  0.41800000000E+01 0. -1.
        -11    1    1    2    0    0 -0.25021767063E+02  0.50345046152E+02  0.61054225520E+02  0.82995969498E+02  0.00000000000E+00 0.  1.
         11    1    1    2    0    0  0.19587222558E+02 -0.12230468412E+02  0.13465596556E+03  0.13662164070E+03  0.00000000000E+00 0. -1.
</event>
<event>
 7    1  0.2855090E-009  0.1657812E+03  0.7561462E-02  0.1182320E+00
         -4   -1    0    0    0  501 -0.00000000000E+00  0.00000000000E+00  0.10338847616E+03  0.10338847616E+03  0.00000000000E+00 0. -1.
          4   -1    0    0  501    0  0.00000000000E+00 -0.00000000000E+00 -0.29276533011E+03  0.29276533011E+03  0.00000000000E+00 0.  1.
         25    2    1    2    0    0  0.46695343890E+02 -0.12527461958E+03 -0.12544612458E+03  0.22194288760E+03  0.12509088588E+03 0.  0.
          5    1    3    3  502    0  0.62146801286E+02 -0.22213135912E+02 -0.10889825827E+02  0.67020213545E+02  0.41800000000E+01 0.  1.
         -5    1    3    3    0  502 -0.15451457396E+02 -0.10306148367E+03 -0.11455629875E+03  0.15492267405E+03  0.41800000000E+01 0.  1.
        -11    1    1    2    0    0  0.27317510581E+02  0.35030258136E+02 -0.26085990265E+02  0.51515475903E+02  0.00000000000E+00 0.  1.
         11    1    1    2    0    0 -0.74012854471E+02  0.90244361446E+02 -0.37844739102E+02  0.12269544277E+03  0.00000000000E+00 0. -1.
</event>
<event>
 7    1  0.3806236E-009  0.9827916E+02  0.7561462E-02  0.1283957E+00
          1   -1    0    0  501    0  0.00000000000E+00  0.00000000000E+00  0.25259318616E+04  0.25259318616E+04  0.00000000000E+00 0.  1.
         -1   -1    0    0    0  501 -0.00000000000E+00 -0.00000000000E+00 -0.10202184039E+02  0.10202184039E+02  0.00000000000E+00 0. -1.
         25    2    1    2    0    0 -0.36739906144E+02 -0.59069251102E+02  0.21016803259E+04  0.21065489984E+04  0.12509793476E+03 0.  0.
          5    1    3    3  502    0 -0.21719018603E+02 -0.12012165369E+00  0.59813615832E+02  0.63772025506E+02  0.41800000000E+01 0.  1.
         -5    1    3    3    0  502 -0.15020887542E+02 -0.58949129449E+02  0.20418667100E+04  0.20427769729E+04  0.41800000000E+01 0.  1.
        -11    1    1    2    0    0  0.61088028978E+02  0.14666589168E+02  0.20042610367E+03  0.21004161291E+03  0.00000000000E+00 0.  1.
         11    1    1    2    0    0 -0.24348122834E+02  0.44402661934E+02  0.21362324805E+03  0.21954343438E+03  0.00000000000E+00 0. -1.
</event>
<event>
 7    1  0.2855090E-009  0.1047483E+03  0.7561462E-02  0.1270616E+00
         -2   -1    0    0    0  501 -0.00000000000E+00  0.00000000000E+00  0.30701910598E+02  0.30701910598E+02  0.00000000000E+00 0.  1.
          2   -1    0    0  501    0  0.00000000000E+00 -0.00000000000E+00 -0.56486424192E+03  0.56486424192E+03  0.00000000000E+00 0. -1.
         25    2    1    2    0    0  0.23182791861E+02  0.14662918977E+02 -0.45594150189E+03  0.47358182565E+03  0.12507857293E+03 0.  0.
          5    1    3    3  502    0 -0.26505760929E+02  0.55196631779E+02 -0.17714747139E+03  0.18747779213E+03  0.41800000000E+01 0.  1.
         -5    1    3    3    0  502  0.49688552790E+02 -0.40533712802E+02 -0.27879403050E+03  0.28610403351E+03  0.41800000000E+01 0.  1.
        -11    1    1    2    0    0  0.28381716020E+02  0.47279831861E+01 -0.32594814804E+01  0.28956861860E+02  0.00000000000E+00 0.  1.
         11    1    1    2    0    0 -0.51564507882E+02 -0.19390902163E+02 -0.74961347952E+02  0.93027465012E+02  0.00000000000E+00 0. -1.
</event>
<event>
 7    1  0.2855090E-009  0.9411718E+02  0.7561462E-02  0.1293177E+00
          2   -1    0    0  501    0  0.00000000000E+00  0.00000000000E+00  0.27577600297E+03  0.27577600297E+03  0.00000000000E+00 0.  1.
         -2   -1    0    0    0  501 -0.00000000000E+00 -0.00000000000E+00 -0.55662527461E+02  0.55662527461E+02  0.00000000000E+00 0. -1.
         25    2    1    2    0    0  0.15279940584E+02  0.48161903346E+02  0.75978139197E+02  0.15482669583E+03  0.12508230325E+03 0.  0.
          5    1    3    3  502    0  0.18099442225E+02  0.65542453148E+02 -0.82997434161E+01  0.68627699322E+02  0.41800000000E+01 0. -1.
         -5    1    3    3    0  502 -0.28195016405E+01 -0.17380549802E+02  0.84277882613E+02  0.86198996506E+02  0.41800000000E+01 0. -1.
        -11    1    1    2    0    0  0.34443342255E+02 -0.25485827505E+01  0.46226336679E+02  0.57703668015E+02  0.00000000000E+00 0.  1.
         11    1    1    2    0    0 -0.49723282839E+02 -0.45613320595E+02  0.97908999638E+02  0.11890816659E+03  0.00000000000E+00 0. -1.
</event>
<event>
 7    1  0.2855090E-009  0.8365648E+02  0.7561462E-02  0.1318984E+00
          1   -1    0    0  501    0  0.00000000000E+00  0.00000000000E+00  0.33571530004E+03  0.33571530004E+03  0.00000000000E+00 0. -1.
         -1   -1    0    0    0  501 -0.00000000000E+00 -0.00000000000E+00 -0.41291177713E+02  0.41291177713E+02  0.00000000000E+00 0.  1.
         25    2    1    2    0    0 -0.60423091386E+01 -0.23353982151E+01  0.94390981113E+02  0.15685363783E+03  0.12510572649E+03 0.  0.
          5    1    3    3  502    0  0.35186484467E+02  0.71275412492E+01  0.10665508215E+03  0.11261291881E+03  0.41800000000E+01 0. -1.
         -5    1    3    3    0  502 -0.41228793605E+02 -0.94629394643E+01 -0.12264101037E+02  0.44240719023E+02  0.41800000000E+01 0. -1.
        -11    1    1    2    0    0  0.39336212132E+02 -0.24115798519E+02  0.74680842247E+02  0.87784608684E+02  0.00000000000E+00 0.  1.
         11    1    1    2    0    0 -0.33293902994E+02  0.26451196735E+02  0.12535229896E+03  0.13236823124E+03  0.00000000000E+00 0. -1.
</event>
<event>
 7    1  0.2855090E-009  0.1122815E+03  0.7561462E-02  0.1256402E+00
          1   -1    0    0  501    0  0.00000000000E+00  0.00000000000E+00  0.52115042206E+03  0.52115042206E+03  0.00000000000E+00 0. -1.
         -1   -1    0    0    0  501 -0.00000000000E+00 -0.00000000000E+00 -0.29422148654E+02  0.29422148654E+02  0.00000000000E+00 0.  1.
         25    2    1    2    0    0  0.27448013933E+02  0.48166864686E+02  0.23678193876E+03  0.27347018149E+03  0.12508722285E+03 0.  0.
          5    1    3    3  502    0 -0.41538300695E+02 -0.13683199678E+02  0.82007634993E+02  0.93034321490E+02  0.41800000000E+01 0.  1.
         -5    1    3    3    0  502  0.68986314627E+02  0.61850064364E+02  0.15477430376E+03  0.18043586000E+03  0.41800000000E+01 0.  1.
        -11    1    1    2    0    0 -0.39713244876E+02 -0.16192164167E+01  0.38384162365E+02  0.55254932819E+02  0.00000000000E+00 0.  1.
         11    1    1    2    0    0  0.12265230944E+02 -0.46547648269E+02  0.21656217228E+03  0.22184745640E+03  0.00000000000E+00 0. -1.
</event>
<event>
 7    1  0.2855090E-009  0.1190067E+03  0.7561462E-02  0.1244745E+00
          2   -1    0    0  501    0  0.00000000000E+00  0.00000000000E+00  0.29951427288E+03  0.29951427288E+03  0.00000000000E+00 0.  1.
         -2   -1    0    0    0  501 -0.00000000000E+00 -0.00000000000E+00 -0.70329089054E+02  0.70329089054E+02  0.00000000000E+00 0. -1.
         25    2    1    2    0    0  0.73764767942E+02 -0.52907272268E+02  0.78859268593E+02  0.17350928439E+03  0.12508503939E+03 0.  0.
          5    1    3    3  502    0  0.83149423085E+02  0.96768391361E+01  0.18239999085E+02  0.85776673645E+02  0.41800000000E+01 0. -1.
         -5    1    3    3    0  502 -0.93846551421E+01 -0.62584111404E+02  0.60619269509E+02  0.87732610745E+02  0.41800000000E+01 0. -1.
        -11    1    1    2    0    0 -0.31219214915E+02  0.22336368424E+02  0.13454930999E+01  0.38410455425E+02  0.00000000000E+00 0. -1.
         11    1    1    2    0    0 -0.42545553028E+02  0.30570903845E+02  0.14898042213E+03  0.15792362212E+03  0.00000000000E+00 0.  1.
</event>
<event>
 7    1  0.2855090E-009  0.1060838E+03  0.7561462E-02  0.1267999E+00
          3   -1    0    0  501    0  0.00000000000E+00  0.00000000000E+00  0.68001609601E+03  0.68001609601E+03  0.00000000000E+00 0. -1.
         -3   -1    0    0    0  501 -0.00000000000E+00 -0.00000000000E+00 -0.25612988439E+02  0.25612988439E+02  0.00000000000E+00 0.  1.
         25    2    1    2    0    0 -0.68257469576E+02  0.23080753114E+02  0.43451730470E+03  0.45786901104E+03  0.12508772869E+03 0.  0.
          5    1    3    3  502    0 -0.93345573904E+02  0.15312364550E+02  0.19386876347E+03  0.21575549709E+03  0.41800000000E+01 0. -1.
         -5    1    3    3    0  502  0.25088104328E+02  0.77683885646E+01  0.24064854123E+03  0.24211351395E+03  0.41800000000E+01 0. -1.
        -11    1    1    2    0    0  0.46283332712E+02  0.13502545877E+02  0.39301868948E+02  0.62202110374E+02  0.00000000000E+00 0.  1.
         11    1    1    2    0    0  0.21974136864E+02 -0.36583298991E+02  0.18058393392E+03  0.18555796304E+03  0.00000000000E+00 0. -1.
</event>
<event>
 7    1  0.2855090E-009  0.1133461E+03  0.7561462E-02  0.1254496E+00
          2   -1    0    0  501    0  0.00000000000E+00  0.00000000000E+00  0.62498492380E+03  0.62498492380E+03  0.00000000000E+00 0. -1.
         -2   -1    0    0    0  501 -0.00000000000E+00 -0.00000000000E+00 -0.43756811857E+02  0.43756811857E+02  0.00000000000E+00 0.  1.
         25    2    1    2    0    0 -0.60026502249E+02 -0.22773422234E+02  0.52919235774E+03  0.54755400364E+03  0.12509606578E+03 0.  0.
          5    1    3    3  502    0 -0.92977822178E+01 -0.70249655606E+02  0.26278187625E+03  0.27220075267E+03  0.41800000000E+01 0. -1.
         -5    1    3    3    0  502 -0.50728720032E+02  0.47476233372E+02  0.26641048149E+03  0.27535325097E+03  0.41800000000E+01 0. -1.
        -11    1    1    2    0    0  0.97570966758E+00 -0.15630726955E+02 -0.16611154289E+02  0.22829850664E+02  0.00000000000E+00 0.  1.
         11    1    1    2    0    0  0.59050792582E+02  0.38404149189E+02  0.68646908485E+02  0.98357881352E+02  0.00000000000E+00 0. -1.
</event>
<event>
 7    1  0.2855090E-009  0.1751611E+03  0.7561462E-02  0.1172570E+00
          2   -1    0    0  501    0  0.00000000000E+00  0.00000000000E+00  0.11110342831E+04  0.11110342831E+04  0.00000000000E+00 0. -1.
         -2   -1    0    0    0  501 -0.00000000000E+00 -0.00000000000E+00 -0.14679206350E+03  0.14679206350E+03  0.00000000000E+00 0.  1.
         25    2    1    2    0    0  0.12851296740E+03 -0.73506191154E+02  0.10487125407E+04  0.10664726249E+04  0.12508846334E+03 0.  0.
          5    1    3    3  502    0  0.89342200012E+02 -0.10666275070E+03  0.67269741255E+03  0.68694850778E+03  0.41800000000E+01 0.  1.
         -5    1    3    3    0  502  0.39170767388E+02  0.33156559551E+02  0.37601512815E+03  0.37952411710E+03  0.41800000000E+01 0.  1.
        -11    1    1    2    0    0 -0.43833150218E+02 -0.50547428789E+01 -0.57954474850E+02  0.72839663911E+02  0.00000000000E+00 0.  1.
         11    1    1    2    0    0 -0.84679817182E+02  0.78560934033E+02 -0.26515846253E+02  0.11851405780E+03  0.00000000000E+00 0. -1.
</event>
<event>
 7    1  0.2855090E-009  0.1334495E+03  0.7561462E-02  0.1222425E+00
         -1   -1    0    0    0  501 -0.00000000000E+00  0.00000000000E+00  0.30001755616E+02  0.30001755616E+02  0.00000000000E+00 0.  1.
          1   -1    0    0  501    0  0.00000000000E+00 -0.00000000000E+00 -0.74179776732E+03  0.74179776732E+03  0.00000000000E+00 0. -1.
         25    2    1    2    0    0  0.87945572717E+02  0.18421986554E+01 -0.51706127465E+03  0.53920067613E+03  0.12508872825E+03 0.  0.
          5    1    3    3  502    0  0.82379120364E+01  0.47179586438E+02 -0.86492104853E+02  0.98955207912E+02  0.41800000000E+01 0. -1.
         -5    1    3    3    0  502  0.79707660681E+02 -0.45337387782E+02 -0.43056916980E+03  0.44024546822E+03  0.41800000000E+01 0. -1.
        -11    1    1    2    0    0 -0.59278846219E+02 -0.45550532953E+02 -0.12054355160E+03  0.14184350705E+03  0.00000000000E+00 0.  1.
         11    1    1    2    0    0 -0.28666726498E+02  0.43708334297E+02 -0.74191185458E+02  0.90755339759E+02  0.00000000000E+00 0. -1.
</event>
<event>
 7    1  0.2855090E-009  0.1566149E+03  0.7561462E-02  0.1192572E+00
         -1   -1    0    0    0  501 -0.00000000000E+00  0.00000000000E+00  0.77138233309E+02  0.77138233309E+02  0.00000000000E+00 0.  1.
          1   -1    0    0  501    0  0.00000000000E+00 -0.00000000000E+00 -0.39484590213E+03  0.39484590213E+03  0.00000000000E+00 0. -1.
         25    2    1    2    0    0  0.13321520694E+01  0.13376502070E+03 -0.19703549030E+03  0.26900507485E+03  0.12508353394E+03 0.  0.
          5    1    3    3  502    0  0.49500618165E+02  0.36609928027E+02 -0.12307016645E+03  0.13767474823E+03  0.41800000000E+01 0.  1.
         -5    1    3    3    0  502 -0.48168466095E+02  0.97155092673E+02 -0.73965323847E+02  0.13133032662E+03  0.41800000000E+01 0.  1.
        -11    1    1    2    0    0 -0.25569001032E+02 -0.80873557152E+02 -0.11723040535E+03  0.14469718034E+03  0.00000000000E+00 0. -1.
         11    1    1    2    0    0  0.24236848963E+02 -0.52891463548E+02 -0.34417731797E+01  0.58281880258E+02  0.00000000000E+00 0.  1.
</event>
<event>
 7    1  0.2855090E-009  0.9980822E+02  0.7561462E-02  0.1280700E+00
         -4   -1    0    0    0  501 -0.00000000000E+00  0.00000000000E+00  0.99824097379E+02  0.99824097379E+02  0.00000000000E+00 0.  1.
          4   -1    0    0  501    0  0.00000000000E+00 -0.00000000000E+00 -0.17316338264E+03  0.17316338264E+03  0.00000000000E+00 0. -1.
         25    2    1    2    0    0  0.13040197012E+02 -0.12429627964E+02  0.34701452209E+02  0.13105930854E+03  0.12509120345E+03 0.  0.
          5    1    3    3  502    0  0.59047528442E+02  0.18558332497E+01 -0.15641481463E+02  0.61255065705E+02  0.41800000000E+01 0.  1.
         -5    1    3    3    0  502 -0.46007331430E+02 -0.14285461214E+02  0.50342933672E+02  0.69804242837E+02  0.41800000000E+01 0.  1.
        -11    1    1    2    0    0  0.39038016392E+02  0.72041974625E+01 -0.46686797760E+02  0.61282332445E+02  0.00000000000E+00 0.  1.
         11    1    1    2    0    0 -0.52078213404E+02  0.52254305018E+01 -0.61353939715E+02  0.80645839036E+02  0.00000000000E+00 0. -1.
</event>
<event>
 7    1  0.2855090E-009  0.1249153E+03  0.7561462E-02  0.1235202E+00
         -1   -1    0    0    0  501 -0.00000000000E+00  0.00000000000E+00  0.42034069983E+02  0.42034069983E+02  0.00000000000E+00 0.  1.
          1   -1    0    0  501    0  0.00000000000E+00 -0.00000000000E+00 -0.43073908568E+03  0.43073908568E+03  0.00000000000E+00 0. -1.
         25    2    1    2    0    0  0.33383396455E+02  0.70038726073E+02 -0.16398905711E+03  0.22036242570E+03  0.12508922217E+03 0.  0.
          5    1    3    3  502    0 -0.35737466587E+02  0.67765434131E+02 -0.10005774067E+03  0.12608863727E+03  0.41800000000E+01 0. -1.
         -5    1    3    3    0  502  0.69120863042E+02  0.22732919412E+01 -0.63931316441E+02  0.94273788434E+02  0.41800000000E+01 0. -1.
        -11    1    1    2    0    0  0.11921892291E+01 -0.69225290521E+02 -0.91288422388E+02  0.11457372397E+03  0.00000000000E+00 0.  1.
         11    1    1    2    0    0 -0.34575585684E+02 -0.81343555119E+00 -0.13342753620E+03  0.13783700598E+03  0.00000000000E+00 0. -1.
</event>
<event>
 7    1  0.2855090E-009  0.1525315E+03  0.7561462E-02  0.1197396E+00
         -1   -1    0    0    0  501 -0.00000000000E+00  0.00000000000E+00  0.46275971965E+02  0.46275971965E+02  0.00000000000E+00 0.  1.
          1   -1    0    0  501    0  0.00000000000E+00 -0.00000000000E+00 -0.62809861807E+03  0.62809861807E+03  0.00000000000E+00 0. -1.
         25    2    1    2    0    0  0.30450818944E+01  0.11079861179E+03 -0.17074233956E+03  0.23892642594E+03  0.12508911062E+03 0.  0.
          5    1    3    3  502    0  0.21012213111E+02  0.13182421505E+03 -0.16127924767E+03  0.20939819699E+03  0.41800000000E+01 0. -1.
         -5    1    3    3    0  502 -0.17967131217E+02 -0.21025603260E+02 -0.94630918831E+01  0.29528228944E+02  0.41800000000E+01 0. -1.
        -11    1    1    2    0    0 -0.42599257823E+02 -0.25840925765E+02 -0.13557496063E+03  0.14444036888E+03  0.00000000000E+00 0.  1.
         11    1    1    2    0    0  0.39554175929E+02 -0.84957686028E+02 -0.27550534592E+03  0.29100779522E+03  0.00000000000E+00 0. -1.
</event>
<event>
 7    1  0.2855090E-009  0.2106079E+03  0.7561462E-02  0.1141086E+00
          1   -1    0    0  501    0  0.00000000000E+00  0.00000000000E+00  0.67135265029E+02  0.67135265029E+02  0.00000000000E+00 0. -1.
         -1   -1    0    0    0  501 -0.00000000000E+00 -0.00000000000E+00 -0.72445299102E+03  0.72445299102E+03  0.00000000000E+00 0.  1.
         25    2    1    2    0    0  0.44929859900E+02  0.18628705575E+03 -0.36476869308E+03  0.43061078064E+03  0.12509150854E+03 0.  0.
          5    1    3    3  502    0  0.53309375702E+02  0.37972162782E+02 -0.49817765217E+02  0.82359315292E+02  0.41800000000E+01 0.  1.
         -5    1    3    3    0  502 -0.83795158022E+01  0.14831489297E+03 -0.31495092786E+03  0.34825146535E+03  0.41800000000E+01 0.  1.
        -11    1    1    2    0    0 -0.55300690152E+02 -0.65211311350E+02 -0.85596440065E+02  0.12098525535E+03  0.00000000000E+00 0. -1.
         11    1    1    2    0    0  0.10370830252E+02 -0.12107574440E+03 -0.20695259286E+03  0.23999222007E+03  0.00000000000E+00 0.  1.
</event>
<event>
 7    1  0.2855090E-009  0.1095280E+03  0.7561462E-02  0.1261447E+00
         -2   -1    0    0    0  501 -0.00000000000E+00  0.00000000000E+00  0.15374879651E+03  0.15374879651E+03  0.00000000000E+00 0.  1.
          2   -1    0    0  501    0  0.00000000000E+00 -0.00000000000E+00 -0.11701759453E+03  0.11701759453E+03  0.00000000000E+00 0. -1.
         25    2    1    2    0    0 -0.50342952351E+02 -0.24926492428E+02 -0.33365534689E+02  0.14112115776E+03  0.12508468885E+03 0.  0.
          5    1    3    3  502    0 -0.86558134214E+02 -0.42049847241E+02 -0.29084376343E+02  0.10061746170E+03  0.41800000000E+01 0.  1.
         -5    1    3    3    0  502  0.36215181863E+02  0.17123354813E+02 -0.42811583464E+01  0.40503696056E+02  0.41800000000E+01 0.  1.
        -11    1    1    2    0    0  0.31264301626E+01 -0.18225741434E+02  0.62562408030E+02  0.65238080252E+02  0.00000000000E+00 0.  1.
         11    1    1    2    0    0  0.47216522188E+02  0.43152233862E+02  0.75343286372E+01  0.64407153041E+02  0.00000000000E+00 0. -1.
</event>
<event>
 7    1  0.2855090E-009  0.1229254E+03  0.7561462E-02  0.1238348E+00
         -1   -1    0    0    0  501 -0.00000000000E+00  0.00000000000E+00  0.70168471301E+02  0.70168471301E+02  0.00000000000E+00 0.  1.
          1   -1    0    0  501    0  0.00000000000E+00 -0.00000000000E+00 -0.26760556272E+03  0.26760556272E+03  0.00000000000E+00 0. -1.
         25    2    1    2    0    0  0.61457661414E+02 -0.45289708480E+02 -0.65684114775E+02  0.16060077221E+03  0.12509997307E+03 0.  0.
          5    1    3    3  502    0 -0.22794984882E+02 -0.37764668497E+02 -0.61509356918E+02  0.75806694367E+02  0.41800000000E+01 0.  1.
         -5    1    3    3    0  502  0.84252646296E+02 -0.75250399829E+01 -0.41747578573E+01  0.84794077846E+02  0.41800000000E+01 0.  1.
        -11    1    1    2    0    0 -0.77931702274E+02  0.10862527608E+02 -0.10175738073E+03  0.12863090320E+03  0.00000000000E+00 0. -1.
         11    1    1    2    0    0  0.16474040860E+02  0.34427180872E+02 -0.29995595918E+02  0.48542358611E+02  0.00000000000E+00 0.  1.
</event>
<event>
 7    1  0.2855090E-009  0.1017894E+03  0.7561462E-02  0.1276577E+00
          2   -1    0    0  501    0  0.00000000000E+00  0.00000000000E+00  0.45309879282E+03  0.45309879282E+03  0.00000000000E+00 0. -1.
         -2   -1    0    0    0  501 -0.00000000000E+00 -0.00000000000E+00 -0.80936622148E+02  0.80936622148E+02  0.00000000000E+00 0.  1.
         25    2    1    2    0    0  0.50000806286E+02 -0.68084410000E+02  0.37750193341E+03  0.40655947900E+03  0.12508929901E+03 0.  0.
          5    1    3    3  502    0  0.31502907837E+02 -0.79352668877E+02  0.11581264577E+03  0.14394207369E+03  0.41800000000E+01 0.  1.
         -5    1    3    3    0  502  0.18497898449E+02  0.11268258877E+02  0.26168928764E+03  0.26261740531E+03  0.41800000000E+01 0.  1.
        -11    1    1    2    0    0 -0.11744998694E+01  0.39387133046E+02 -0.43876290973E+02  0.58973338121E+02  0.00000000000E+00 0.  1.
         11    1    1    2    0    0 -0.48826306416E+02  0.28697276954E+02  0.38536528238E+02  0.68502597845E+02  0.00000000000E+00 0. -1.
</event>
<event>
 7    1  0.2855090E-009  0.1288758E+03  0.7561462E-02  0.1229134E+00
         -1   -1    0    0    0  501 -0.00000000000E+00  0.00000000000E+00  0.15517327585E+03  0.15517327585E+03  0.00000000000E+00 0.  1.
          1   -1    0    0  501    0  0.00000000000E+00 -0.00000000000E+00 -0.12991008197E+03  0.12991008197E+03  0.00000000000E+00 0. -1.
         25    2    1    2    0    0  0.24399194891E+02 -0.68665695864E+02  0.68330474888E+02  0.16008365578E+03  0.12508966604E+03 0.  0.
          5    1    3    3  502    0  0.61144647216E+02  0.25188992693E+01  0.46429060740E+02  0.76929466513E+02  0.41800000000E+01 0. -1.
         -5    1    3    3    0  502 -0.36745452325E+02 -0.71184595134E+02  0.21901414148E+02  0.83154189267E+02  0.41800000000E+01 0. -1.
        -11    1    1    2    0    0  0.33339542153E+02  0.38908151021E+02 -0.10365181809E+02  0.52276249682E+02  0.00000000000E+00 0.  1.
         11    1    1    2    0    0 -0.57738737044E+02  0.29757544843E+02 -0.32702099205E+02  0.72723452358E+02  0.00000000000E+00 0. -1.
</event>
<event>
 7    1  0.2855090E-009  0.1104320E+03  0.7561462E-02  0.1259772E+00
          1   -1    0    0  501    0  0.00000000000E+00  0.00000000000E+00  0.12727125430E+04  0.12727125430E+04  0.00000000000E+00 0. -1.
         -1   -1    0    0    0  501 -0.00000000000E+00 -0.00000000000E+00 -0.13499931675E+02  0.13499931675E+02  0.00000000000E+00 0.  1.
         25    2    1    2    0    0 -0.66526236653E+02 -0.46105158943E+01  0.87775257968E+03  0.88912556825E+03  0.12509071890E+03 0.  0.
          5    1    3    3  502    0  0.69993335861E+01  0.43227889882E+02  0.15712168353E+03  0.16316352831E+03  0.41800000000E+01 0.  1.
         -5    1    3    3    0  502 -0.73525570239E+02 -0.47838405777E+02  0.72063089615E+03  0.72596203994E+03  0.41800000000E+01 0.  1.
        -11    1    1    2    0    0 -0.52514024544E+01 -0.13959969513E+02  0.92190465130E+01  0.17534217837E+02  0.00000000000E+00 0.  1.
         11    1    1    2    0    0  0.71777639107E+02  0.18570485408E+02  0.37224098510E+03  0.37955268855E+03  0.00000000000E+00 0. -1.
</event>
<event>
 7    1  0.2855090E-009  0.1203586E+03  0.7561462E-02  0.1242507E+00
         -2   -1    0    0    0  501 -0.00000000000E+00  0.00000000000E+00  0.18670063331E+02  0.18670063331E+02  0.00000000000E+00 0.  1.
          2   -1    0    0  501    0  0.00000000000E+00 -0.00000000000E+00 -0.13058283027E+04  0.13058283027E+04  0.00000000000E+00 0. -1.
         25    2    1    2    0    0  0.92831797425E+02 -0.24096370398E+02 -0.93432651497E+03  0.94752801977E+03  0.12507971062E+03 0.  0.
          5    1    3    3  502    0  0.96277777521E+02  0.10918087560E+02 -0.38386127234E+03  0.39592368442E+03  0.41800000000E+01 0. -1.
         -5    1    3    3    0  502 -0.34459800955E+01 -0.35014457957E+02 -0.55046524262E+03  0.55160433535E+03  0.41800000000E+01 0. -1.
        -11    1    1    2    0    0 -0.63656754463E+01 -0.12797169220E+02 -0.28390375937E+01  0.14572216660E+02  0.00000000000E+00 0.  1.
         11    1    1    2    0    0 -0.86466121979E+02  0.36893539618E+02 -0.34999268684E+03  0.36239812963E+03  0.00000000000E+00 0. -1.
</event>
<event>
 7    1  0.2855090E-009  0.1336141E+03  0.7561462E-02  0.1222189E+00
          1   -1    0    0  501    0  0.00000000000E+00  0.00000000000E+00  0.24610180945E+03  0.24610180945E+03  0.00000000000E+00 0. -1.
         -1   -1    0    0    0  501 -0.00000000000E+00 -0.00000000000E+00 -0.87598812704E+02  0.87598812704E+02  0.00000000000E+00 0.  1.
         25    2    1    2    0    0  0.88168073189E+02  0.16500047901E+02  0.40395060582E+02  0.15914197636E+03  0.12509415258E+03 0.  0.
          5    1    3    3  502    0  0.19429734052E+02 -0.47287945535E+02 -0.10507718397E+02  0.52359802369E+02  0.41800000000E+01 0.  1.
         -5    1    3    3    0  502  0.68738339137E+02  0.63787993436E+02  0.50902778979E+02  0.10678217399E+03  0.41800000000E+01 0.  1.
        -11    1    1    2    0    0  0.30327552861E+01  0.22624003789E+02  0.47700554805E+02  0.52880866868E+02  0.00000000000E+00 0. -1.
         11    1    1    2    0    0 -0.91200828475E+02 -0.39124051690E+02  0.70407381362E+02  0.12167777893E+03  0.00000000000E+00 0.  1.
</event>
<event>
 7    1  0.2855090E-009  0.1182972E+03  0.7561462E-02  0.1245933E+00
          3   -1    0    0  501    0  0.00000000000E+00  0.00000000000E+00  0.24135264152E+02  0.24135264152E+02  0.00000000000E+00 0. -1.
         -3   -1    0    0    0  501 -0.00000000000E+00 -0.00000000000E+00 -0.81839403137E+03  0.81839403137E+03  0.00000000000E+00 0.  1.
         25    2    1    2    0    0  0.42755193999E+02 -0.43960738929E+02 -0.62915753987E+03  0.64439716817E+03  0.12509175509E+03 0.  0.
          5    1    3    3  502    0  0.54157003041E+02 -0.81468181938E+02 -0.49383807761E+03  0.50345165105E+03  0.41800000000E+01 0.  1.
         -5    1    3    3    0  502 -0.11401809042E+02  0.37507443009E+02 -0.13531946226E+03  0.14094551712E+03  0.41800000000E+01 0.  1.
        -11    1    1    2    0    0  0.97356427877E+01  0.45708989804E+02 -0.12044349332E+03  0.12919260649E+03  0.00000000000E+00 0.  1.
         11    1    1    2    0    0 -0.52490836786E+02 -0.17482508746E+01 -0.44657734030E+02  0.68939520860E+02  0.00000000000E+00 0. -1.
</event>
<event>
 7    1  0.3506958E-009  0.2027067E+03  0.7561462E-02  0.1147475E+00
          2   -1    0    0  501    0  0.00000000000E+00  0.00000000000E+00  0.11209807761E+04  0.11209807761E+04  0.00000000000E+00 0. -1.
         -2   -1    0    0    0  501 -0.00000000000E+00 -0.00000000000E+00 -0.39174137076E+02  0.39174137076E+02  0.00000000000E+00 0.  1.
         25    2    1    2    0    0 -0.15914327350E+03 -0.77303461939E+02  0.62821878119E+03  0.66453764439E+03  0.12509611121E+03 0.  0.
          5    1    3    3  502    0  0.12715120620E+02 -0.20908979593E+02  0.17152498325E+03  0.17331229616E+03  0.41800000000E+01 0. -1.
         -5    1    3    3    0  502 -0.17185839412E+03 -0.56394482347E+02  0.45669379793E+03  0.49122534823E+03  0.41800000000E+01 0. -1.
        -11    1    1    2    0    0  0.40522093831E+02  0.69919927206E+02  0.17709637961E+03  0.19466372024E+03  0.00000000000E+00 0. -1.
         11    1    1    2    0    0  0.11862117967E+03  0.73835347337E+01  0.27649147823E+03  0.30095354855E+03  0.00000000000E+00 0.  1.
</event>
<event>
 7    1  0.2855090E-009  0.4026683E+03  0.7561462E-02  0.1042860E+00
         -1   -1    0    0    0  501 -0.00000000000E+00  0.00000000000E+00  0.75998648056E+02  0.75998648056E+02  0.00000000000E+00 0.  1.
          1   -1    0    0  501    0  0.00000000000E+00 -0.00000000000E+00 -0.22323920341E+04  0.22323920341E+04  0.00000000000E+00 0. -1.
         25    2    1    2    0    0  0.32636926649E+03  0.22568635200E+03 -0.11264183846E+04  0.12007985670E+04  0.12509034169E+03 0.  0.
          5    1    3    3  502    0  0.18158808404E+03  0.91187409071E+02 -0.73103033827E+03  0.75875701230E+03  0.41800000000E+01 0.  1.
         -5    1    3    3    0  502  0.14478118245E+03  0.13449894293E+03 -0.39538804635E+03  0.44204155465E+03  0.41800000000E+01 0.  1.
        -11    1    1    2    0    0 -0.21293503677E+03 -0.10036711065E+03 -0.53338121711E+03  0.58301836124E+03  0.00000000000E+00 0.  1.
         11    1    1    2    0    0 -0.11343422972E+03 -0.12531924135E+03 -0.49659378430E+03  0.52457375395E+03  0.00000000000E+00 0. -1.
</event>
<event>
 7    1  0.2989544E-009  0.8543901E+02  0.7561462E-02  0.1314288E+00
         -1   -1    0    0    0  501 -0.00000000000E+00  0.00000000000E+00  0.39232410971E+02  0.39232410971E+02  0.00000000000E+00 0.  1.
          1   -1    0    0  501    0  0.00000000000E+00 -0.00000000000E+00 -0.56215776489E+03  0.56215776489E+03  0.00000000000E+00 0. -1.
         25    2    1    2    0    0  0.15846229241E+01  0.17816958885E+02 -0.48349787763E+03  0.49973591339E+03  0.12508329386E+03 0.  0.
          5    1    3    3  502    0  0.47972711697E+02  0.25822164045E+02 -0.10564469427E+03  0.11893880380E+03  0.41800000000E+01 0. -1.
         -5    1    3    3    0  502 -0.46388088772E+02 -0.80052051597E+01 -0.37785318337E+03  0.38079710959E+03  0.41800000000E+01 0. -1.
        -11    1    1    2    0    0 -0.13362643131E+01 -0.43386621354E+02  0.11293328148E+02  0.44852243817E+02  0.00000000000E+00 0.  1.
         11    1    1    2    0    0 -0.24835861107E+00  0.25569662469E+02 -0.50720804438E+02  0.56802018658E+02  0.00000000000E+00 0. -1.
</event>
<event>
 7    1  0.2855090E-009  0.2554527E+03  0.7561462E-02  0.1109907E+00
         -2   -1    0    0    0  501 -0.00000000000E+00  0.00000000000E+00  0.55356928104E+03  0.55356928104E+03  0.00000000000E+00 0.  1.
          2   -1    0    0  501    0  0.00000000000E+00 -0.00000000000E+00 -0.14083509264E+03  0.14083509264E+03  0.00000000000E+00 0. -1.
         25    2    1    2    0    0  0.18922575333E+03  0.14420120846E+03  0.33137999263E+03  0.42668479560E+03  0.12508733365E+03 0.  0.
          5    1    3    3  502    0  0.19751961188E+03  0.10690965078E+03  0.30960689335E+03  0.38251479882E+03  0.41800000000E+01 0.  1.
         -5    1    3    3    0  502 -0.82938585487E+01  0.37291557680E+02  0.21773099283E+02  0.44169996787E+02  0.41800000000E+01 0.  1.
        -11    1    1    2    0    0 -0.73800450915E+02 -0.16345391750E+02  0.54963636068E+02  0.93459508219E+02  0.00000000000E+00 0. -1.
         11    1    1    2    0    0 -0.11542530241E+03 -0.12785581671E+03  0.26390559707E+02  0.17426006986E+03  0.00000000000E+00 0.  1.
</event>
<event>
 7    1  0.2855090E-009  0.1248453E+03  0.7561462E-02  0.1235311E+00
          1   -1    0    0  501    0  0.00000000000E+00  0.00000000000E+00  0.50428622307E+02  0.50428622307E+02  0.00000000000E+00 0. -1.
         -1   -1    0    0    0  501 -0.00000000000E+00 -0.00000000000E+00 -0.40588523360E+03  0.40588523360E+03  0.00000000000E+00 0.  1.
         25    2    1    2    0    0  0.64765776530E+02  0.57345783500E+02 -0.24585378411E+03  0.28909162147E+03  0.12508692076E+03 0.  0.
          5    1    3    3  502    0 -0.25007921064E+02  0.52961356655E+02 -0.68524343443E+02  0.90240564376E+02  0.41800000000E+01 0. -1.
         -5    1    3    3    0  502  0.89773697595E+02  0.43844268447E+01 -0.17732944067E+03  0.19885105709E+03  0.41800000000E+01 0. -1.
        -11    1    1    2    0    0 -0.33132195090E+02 -0.60730999614E+02 -0.19812003655E+02  0.71961879870E+02  0.00000000000E+00 0. -1.
         11    1    1    2    0    0 -0.31633581440E+02  0.33852161147E+01 -0.89790823526E+02  0.95260354568E+02  0.00000000000E+00 0.  1.
</event>
<event>
 7    1  0.2855090E-009  0.2066669E+03  0.7561462E-02  0.1144233E+00
          2   -1    0    0  501    0  0.00000000000E+00  0.00000000000E+00  0.58497683139E+03  0.58497683139E+03  0.00000000000E+00 0. -1.
         -2   -1    0    0    0  501 -0.00000000000E+00 -0.00000000000E+00 -0.76323283341E+02  0.76323283341E+02  0.00000000000E+00 0.  1.
         25    2    1    2    0    0 -0.35658352057E+02 -0.17496876080E+03  0.31001935930E+03  0.37900529992E+03  0.12508968343E+03 0.  0.
          5    1    3    3  502    0 -0.62705446189E+02 -0.33855114995E+02  0.13327566358E+03  0.15118867913E+03  0.41800000000E+01 0. -1.
         -5    1    3    3    0  502  0.27047094132E+02 -0.14111364581E+03  0.17674369572E+03  0.22781662079E+03  0.41800000000E+01 0. -1.
        -11    1    1    2    0    0  0.57058270875E+02  0.16502333028E+03  0.15893516727E+03  0.23611169647E+03  0.00000000000E+00 0.  1.
         11    1    1    2    0    0 -0.21399918818E+02  0.99454305164E+01  0.39699021481E+02  0.46183118345E+02  0.00000000000E+00 0. -1.
</event>
<event>
 7    1  0.2855090E-009  0.1460468E+03  0.7561462E-02  0.1205417E+00
         -2   -1    0    0    0  501 -0.00000000000E+00  0.00000000000E+00  0.63419818256E+02  0.63419818256E+02  0.00000000000E+00 0.  1.
          2   -1    0    0  501    0  0.00000000000E+00 -0.00000000000E+00 -0.42549715357E+03  0.42549715357E+03  0.00000000000E+00 0. -1.
         25    2    1    2    0    0 -0.11469969369E+03  0.27616351212E+02 -0.24633705124E+03  0.30041271820E+03  0.12508867199E+03 0.  0.
          5    1    3    3  502    0 -0.12095160573E+03 -0.20931177372E+02 -0.17614212252E+03  0.21473454506E+03  0.41800000000E+01 0.  1.
         -5    1    3    3    0  502  0.62519120437E+01  0.48547528584E+02 -0.70194928720E+02  0.85678173147E+02  0.41800000000E+01 0.  1.
        -11    1    1    2    0    0  0.70504929827E+02 -0.54795925068E+01 -0.95317128792E+01  0.71357022180E+02  0.00000000000E+00 0.  1.
         11    1    1    2    0    0  0.44194763862E+02 -0.22136758705E+02 -0.10620857120E+03  0.11714723145E+03  0.00000000000E+00 0. -1.
</event>
<event>
 7    1  0.2855090E-009  0.2085610E+03  0.7561462E-02  0.1142711E+00
          1   -1    0    0  501    0  0.00000000000E+00  0.00000000000E+00  0.17759422048E+04  0.17759422048E+04  0.00000000000E+00 0. -1.
         -1   -1    0    0    0  501 -0.00000000000E+00 -0.00000000000E+00 -0.27076466116E+02  0.27076466116E+02  0.00000000000E+00 0.  1.
         25    2    1    2    0    0 -0.13207091308E+03  0.13714587599E+03  0.93354138405E+03  0.96094046769E+03  0.12512133839E+03 0.  0.
          5    1    3    3  502    0 -0.81577231336E+02  0.15157663830E+03  0.64264448730E+03  0.66531175505E+03  0.41800000000E+01 0. -1.
         -5    1    3    3    0  502 -0.50493681746E+02 -0.14430762305E+02  0.29089689675E+03  0.29562871264E+03  0.41800000000E+01 0. -1.
        -11    1    1    2    0    0  0.37722051418E+02 -0.57577162806E+02  0.14528280142E+03  0.16076434688E+03  0.00000000000E+00 0.  1.
         11    1    1    2    0    0  0.94348861664E+02 -0.79568713184E+02  0.67004155319E+03  0.68131385632E+03  0.00000000000E+00 0. -1.
</event>
<event>
 7    1  0.2855090E-009  0.2016945E+03  0.7561462E-02  0.1148317E+00
          1   -1    0    0  501    0  0.00000000000E+00  0.00000000000E+00  0.53329739259E+03  0.53329739259E+03  0.00000000000E+00 0. -1.
         -1   -1    0    0    0  501 -0.00000000000E+00 -0.00000000000E+00 -0.92594941321E+02  0.92594941321E+02  0.00000000000E+00 0.  1.
         25    2    1    2    0    0 -0.18220931454E+03 -0.51790501976E+02  0.17310333587E+03  0.28547287488E+03  0.12508999562E+03 0.  0.
          5    1    3    3  502    0 -0.12310090293E+03 -0.54478238091E+01  0.17023472849E+03  0.21019240298E+03  0.41800000000E+01 0.  1.
         -5    1    3    3    0  502 -0.59108411603E+02 -0.46342678167E+02  0.28686073878E+01  0.75280471905E+02  0.41800000000E+01 0.  1.
        -11    1    1    2    0    0  0.34536818911E+02  0.45422286155E+02  0.11264784722E+03  0.12627554563E+03  0.00000000000E+00 0.  1.
         11    1    1    2    0    0  0.14767249563E+03  0.63682158214E+01  0.15495126817E+03  0.21414391339E+03  0.00000000000E+00 0. -1.
</event>
<event>
 7    1  0.2855090E-009  0.1098554E+03  0.7561462E-02  0.1260838E+00
         -1   -1    0    0    0  501 -0.00000000000E+00  0.00000000000E+00  0.21231981748E+02  0.21231981748E+02  0.00000000000E+00 0.  1.
          1   -1    0    0  501    0  0.00000000000E+00 -0.00000000000E+00 -0.94075675529E+03  0.94075675529E+03  0.00000000000E+00 0. -1.
         25    2    1    2    0    0 -0.84397955108E+02  0.32989145357E+02 -0.49014723909E+03  0.51390893470E+03  0.12508708421E+03 0.  0.
          5    1    3    3  502    0 -0.15082920074E+02  0.40921630796E+02 -0.43196023470E+02  0.61525955406E+02  0.41800000000E+01 0.  1.
         -5    1    3    3    0  502 -0.69315035034E+02 -0.79324854393E+01 -0.44695121562E+03  0.45238297929E+03  0.41800000000E+01 0.  1.
        -11    1    1    2    0    0  0.83253594504E+01 -0.28621453522E+02 -0.33101685965E+02  0.44544593673E+02  0.00000000000E+00 0.  1.
         11    1    1    2    0    0  0.76072595657E+02 -0.43676918347E+01 -0.39627584848E+03  0.40353520866E+03  0.00000000000E+00 0. -1.
</event>
<event>
 7    1  0.2855090E-009  0.1017315E+03  0.7561462E-02  0.1276696E+00
         -2   -1    0    0    0  501 -0.00000000000E+00  0.00000000000E+00  0.32289137073E+02  0.32289137073E+02  0.00000000000E+00 0.  1.
          2   -1    0    0  501    0  0.00000000000E+00 -0.00000000000E+00 -0.41934380863E+03  0.41934380863E+03  0.00000000000E+00 0. -1.
         25    2    1    2    0    0  0.29845208694E+02 -0.29795639016E+01 -0.28279238111E+03  0.31065989507E+03  0.12505368969E+03 0.  0.
          5    1    3    3  502    0  0.72647408820E+01 -0.53627923450E+02 -0.22082416402E+03  0.22739726131E+03  0.41800000000E+01 0. -1.
         -5    1    3    3    0  502  0.22580467812E+02  0.50648359549E+02 -0.61968217089E+02  0.83262633761E+02  0.41800000000E+01 0. -1.
        -11    1    1    2    0    0  0.31544775130E+02  0.59928990957E+01 -0.25125521621E+02  0.40771062218E+02  0.00000000000E+00 0.  1.
         11    1    1    2    0    0 -0.61389983824E+02 -0.30133351942E+01 -0.79136768823E+02  0.10020198842E+03  0.00000000000E+00 0. -1.
</event>
<event>
 7    1  0.2855090E-009  0.9665893E+02  0.7561462E-02  0.1287483E+00
          2   -1    0    0  501    0  0.00000000000E+00  0.00000000000E+00  0.65258257345E+03  0.65258257345E+03  0.00000000000E+00 0.  1.
         -2   -1    0    0    0  501 -0.00000000000E+00 -0.00000000000E+00 -0.32274651680E+02  0.32274651680E+02  0.00000000000E+00 0. -1.
         25    2    1    2    0    0 -0.55365955927E+01 -0.18114075707E+02  0.55320398384E+03  0.56748693430E+03  0.12509196311E+03 0.  0.
          5    1    3    3  502    0 -0.57590303169E+02 -0.20580380353E+02  0.16962394363E+03  0.18036061025E+03  0.41800000000E+01 0. -1.
         -5    1    3    3    0  502  0.52053707576E+02  0.24663046461E+01  0.38358004021E+03  0.38712632405E+03  0.41800000000E+01 0. -1.
        -11    1    1    2    0    0  0.35290696031E+02  0.31320932127E+02  0.70292650915E+02  0.84661034652E+02  0.00000000000E+00 0.  1.
         11    1    1    2    0    0 -0.29754100438E+02 -0.13206856420E+02 -0.31887129826E+01  0.32709256180E+02  0.00000000000E+00 0. -1.
</event>
<event>
 7    1  0.2855090E-009  0.2208217E+03  0.7561462E-02  0.1133272E+00
          1   -1    0    0  501    0  0.00000000000E+00  0.00000000000E+00  0.12457918597E+03  0.12457918597E+03  0.00000000000E+00 0. -1.
         -1   -1    0    0    0  501 -0.00000000000E+00 -0.00000000000E+00 -0.59858129324E+03  0.59858129324E+03  0.00000000000E+00 0.  1.
         25    2    1    2    0    0  0.38002116737E+02 -0.19694731268E+03 -0.44115336800E+02  0.24047029457E+03  0.12508954705E+03 0.  0.
          5    1    3    3  502    0 -0.46085875042E+02 -0.76955794081E+02 -0.17825626515E+02  0.91549590287E+02  0.41800000000E+01 0.  1.
         -5    1    3    3    0  502  0.84087991778E+02 -0.11999151859E+03 -0.26289710286E+02  0.14892070428E+03  0.41800000000E+01 0.  1.
        -11    1    1    2    0    0 -0.25957414010E+02  0.38940519947E+02 -0.39053593838E+02  0.60953544832E+02  0.00000000000E+00 0. -1.
         11    1    1    2    0    0 -0.12044702727E+02  0.15800679273E+03 -0.39083317663E+03  0.42173663982E+03  0.00000000000E+00 0.  1.
</event>
<event>
 7    1  0.2855090E-009  0.1151530E+03  0.7561462E-02  0.1251314E+00
         -2   -1    0    0    0  501 -0.00000000000E+00  0.00000000000E+00  0.62587486364E+02  0.62587486364E+02  0.00000000000E+00 0.  1.
          2   -1    0    0  501    0  0.00000000000E+00 -0.00000000000E+00 -0.24702819322E+03  0.24702819322E+03  0.00000000000E+00 0. -1.
         25    2    1    2    0    0 -0.55918721981E+02 -0.18295298652E+01 -0.75450934001E+02  0.15643201220E+03  0.12509148792E+03 0.  0.
          5    1    3    3  502    0 -0.79866647480E+02 -0.41803432296E+02 -0.49029048372E+02  0.10270116025E+03  0.41800000000E+01 0.  1.
         -5    1    3    3    0  502  0.23947925499E+02  0.39973902431E+02 -0.26421885629E+02  0.53730851951E+02  0.41800000000E+01 0.  1.
        -11    1    1    2    0    0 -0.13150549555E+02  0.18047417216E+02  0.93682278023E+00  0.22350030396E+02  0.00000000000E+00 0.  1.
         11    1    1    2    0    0  0.69069271536E+02 -0.16217887351E+02 -0.10992659564E+03  0.13083363699E+03  0.00000000000E+00 0. -1.
</event>
<event>
 7    1  0.2855090E-009  0.1273228E+03  0.7561462E-02  0.1231483E+00
         -2   -1    0    0    0  501 -0.00000000000E+00  0.00000000000E+00  0.12645965243E+03  0.12645965243E+03  0.00000000000E+00 0.  1.
          2   -1    0    0  501    0  0.00000000000E+00 -0.00000000000E+00 -0.16129047787E+03  0.16129047787E+03  0.00000000000E+00 0. -1.
         25    2    1    2    0    0 -0.57815528015E+02  0.63991682996E+02  0.16902306306E+02  0.15287786160E+03  0.12509349238E+03 0.  0.
          5    1    3    3  502    0  0.11315960405E+02 -0.26390619945E+02 -0.17552265214E+02  0.33912684870E+02  0.41800000000E+01 0. -1.
         -5    1    3    3    0  502 -0.69131488420E+02  0.90382302941E+02  0.34454571520E+02  0.11896517673E+03  0.41800000000E+01 0. -1.
        -11    1    1    2    0    0  0.23511682430E+02 -0.72668850426E+02 -0.61616806907E+02  0.98133541291E+02  0.00000000000E+00 0. -1.
         11    1    1    2    0    0  0.34303845585E+02  0.86771674300E+01  0.98836751619E+01  0.36738727404E+02  0.00000000000E+00 0.  1.
</event>
<event>
 7    1  0.2855090E-009  0.1580143E+03  0.7561462E-02  0.1190957E+00
          2   -1    0    0  501    0  0.00000000000E+00  0.00000000000E+00  0.15591994179E+03  0.15591994179E+03  0.00000000000E+00 0.  1.
         -2   -1    0    0    0  501 -0.00000000000E+00 -0.00000000000E+00 -0.24980728451E+03  0.24980728451E+03  0.00000000000E+00 0. -1.
         25    2    1    2    0    0  0.70650445281E+02 -0.96636931718E+02 -0.15244401319E+03  0.23068753388E+03  0.12508948454E+03 0.  0.
          5    1    3    3  502    0  0.10381164321E+03 -0.77081045463E+02 -0.91402506387E+02  0.15839897540E+03  0.41800000000E+01 0.  1.
         -5    1    3    3    0  502 -0.33161197925E+02 -0.19555886255E+02 -0.61041506798E+02  0.72288558481E+02  0.41800000000E+01 0.  1.
        -11    1    1    2    0    0  0.81385391366E+01 -0.11532703299E+02  0.36859813977E+02  0.39470051319E+02  0.00000000000E+00 0.  1.
         11    1    1    2    0    0 -0.78788984417E+02  0.10816963502E+03  0.21696856483E+02  0.13556964109E+03  0.00000000000E+00 0. -1.
</event>
<event>
 7    1  0.2855090E-009  0.1204663E+03  0.7561462E-02  0.1242330E+00
          1   -1    0    0  501    0  0.00000000000E+00  0.00000000000E+00  0.44043488593E+03  0.44043488593E+03  0.00000000000E+00 0. -1.
         -1   -1    0    0    0  501 -0.00000000000E+00 -0.00000000000E+00 -0.53709583040E+02  0.53709583040E+02  0.00000000000E+00 0.  1.
         25    2    1    2    0    0  0.18432565227E+02  0.94662418755E+02  0.29339860387E+03  0.33321233566E+03  0.12508791666E+03 0.  0.
          5    1    3    3  502    0 -0.12221803538E+02 -0.75551075209E+01 -0.53944028904E+01  0.15906731717E+02  0.41800000000E+01 0. -1.
         -5    1    3    3    0  502  0.30654368765E+02  0.10221752628E+03  0.29879300676E+03  0.31730560394E+03  0.41800000000E+01 0. -1.
        -11    1    1    2    0    0 -0.32386490785E+02 -0.10775581581E+02  0.61107499835E+02  0.69993746006E+02  0.00000000000E+00 0. -1.
         11    1    1    2    0    0  0.13953925558E+02 -0.83886837174E+02  0.32219199181E+02  0.90938387304E+02  0.00000000000E+00 0.  1.
</event>
<event>
 7    1  0.2855090E-009  0.1142973E+03  0.7561462E-02  0.1252813E+00
          2   -1    0    0  501    0  0.00000000000E+00  0.00000000000E+00  0.30196625066E+03  0.30196625066E+03  0.00000000000E+00 0. -1.
         -2   -1    0    0    0  501 -0.00000000000E+00 -0.00000000000E+00 -0.59781699554E+02  0.59781699554E+02  0.00000000000E+00 0.  1.
         25    2    1    2    0    0 -0.23628650466E+02 -0.42070175685E+02  0.21624798833E+03  0.25443750372E+03  0.12508812109E+03 0.  0.
          5    1    3    3  502    0  0.46150488692E+02 -0.44333091970E+02  0.10362350697E+03  0.12186301427E+03  0.41800000000E+01 0. -1.
         -5    1    3    3    0  502 -0.69779139158E+02  0.22629162849E+01  0.11262448136E+03  0.13257448945E+03  0.41800000000E+01 0. -1.
        -11    1    1    2    0    0  0.70926533465E+01  0.65479295395E+02  0.38197618062E+02  0.76137388205E+02  0.00000000000E+00 0. -1.
         11    1    1    2    0    0  0.16535997119E+02 -0.23409119710E+02 -0.12261055286E+02  0.31173058289E+02  0.00000000000E+00 0.  1.
</event>
<event>
 7    1  0.2855090E-009  0.1477895E+03  0.7561462E-02  0.1203216E+00
         -2   -1    0    0    0  501 -0.00000000000E+00  0.00000000000E+00  0.84218841497E+02  0.84218841497E+02  0.00000000000E+00 0.  1.
          2   -1    0    0  501    0  0.00000000000E+00 -0.00000000000E+00 -0.29120136083E+03  0.29120136083E+03  0.00000000000E+00 0. -1.
         25    2    1    2    0    0  0.38470666019E+02  0.82505807970E+02 -0.10520998197E+03  0.18709121866E+03  0.12508710285E+03 0.  0.
          5    1    3    3  502    0  0.82319888590E+02  0.43208144861E+02 -0.80679532119E+02  0.12316723242E+03  0.41800000000E+01 0.  1.
         -5    1    3    3    0  502 -0.43849222571E+02  0.39297663110E+02 -0.24530449855E+02  0.63923986234E+02  0.41800000000E+01 0.  1.
        -11    1    1    2    0    0 -0.76055127959E+02 -0.37342132632E+02 -0.19016758221E+02  0.86835790154E+02  0.00000000000E+00 0.  1.
         11    1    1    2    0    0  0.37584461940E+02 -0.45163675338E+02 -0.82755779142E+02  0.10149319352E+03  0.00000000000E+00 0. -1.
</event>
<event>
 7    1  0.2855090E-009  0.1450712E+03  0.7561462E-02  0.1206664E+00
          3   -1    0    0  501    0  0.00000000000E+00  0.00000000000E+00  0.11045762701E+03  0.11045762701E+03  0.00000000000E+00 0. -1.
         -3   -1    0    0    0  501 -0.00000000000E+00 -0.00000000000E+00 -0.22561447178E+03  0.22561447178E+03  0.00000000000E+00 0.  1.
         25    2    1    2    0    0 -0.36085039491E+02 -0.10679445387E+03 -0.32232799984E+02  0.17141551871E+03  0.12504855540E+03 0.  0.
          5    1    3    3  502    0 -0.57850332106E+02  0.57654548037E+00 -0.18727350060E+02  0.60952271244E+02  0.41800000000E+01 0.  1.
         -5    1    3    3    0  502  0.21765292615E+02 -0.10737099935E+03 -0.13505449925E+02  0.11046324747E+03  0.41800000000E+01 0.  1.
        -11    1    1    2    0    0  0.48051270626E+02  0.85342460569E+02 -0.24029556815E+02  0.10084483024E+03  0.00000000000E+00 0. -1.
         11    1    1    2    0    0 -0.11966231135E+02  0.21451993296E+02 -0.58894487977E+02  0.63811749843E+02  0.00000000000E+00 0.  1.
</event>
<event>
 7    1  0.2855090E-009  0.1142676E+03  0.7561462E-02  0.1252865E+00
          1   -1    0    0  501    0  0.00000000000E+00  0.00000000000E+00  0.56783764021E+03  0.56783764021E+03  0.00000000000E+00 0. -1.
         -1   -1    0    0    0  501 -0.00000000000E+00 -0.00000000000E+00 -0.35528130679E+02  0.35528130679E+02  0.00000000000E+00 0.  1.
         25    2    1    2    0    0 -0.65971776772E+02  0.20461460472E+02  0.41406397676E+03  0.43802740257E+03  0.12509229336E+03 0.  0.
          5    1    3    3  502    0  0.67932845100E+01  0.39377696987E+02  0.29095338757E+03  0.29371431336E+03  0.41800000000E+01 0.  1.
         -5    1    3    3    0  502 -0.72765061282E+02 -0.18916236515E+02  0.12311058919E+03  0.14431308921E+03  0.41800000000E+01 0.  1.
        -11    1    1    2    0    0 -0.91058527035E+01  0.24092354418E+02  0.42806455862E+02  0.49957489512E+02  0.00000000000E+00 0. -1.
         11    1    1    2    0    0  0.75077629476E+02 -0.44553814890E+02  0.75439076911E+02  0.11538087881E+03  0.00000000000E+00 0.  1.
</event>
<event>
 7    1  0.2879388E-009  0.1653276E+03  0.7561462E-02  0.1182810E+00
          2   -1    0    0  501    0  0.00000000000E+00  0.00000000000E+00  0.98514130681E+02  0.98514130681E+02  0.00000000000E+00 0.  1.
         -2   -1    0    0    0  501 -0.00000000000E+00 -0.00000000000E+00 -0.32591347945E+03  0.32591347945E+03  0.00000000000E+00 0. -1.
         25    2    1    2    0    0 -0.35606891314E+02  0.13688540841E+03 -0.13872672921E+03  0.23430538536E+03  0.12509373473E+03 0.  0.
          5    1    3    3  502    0  0.16293994232E+02  0.13391366643E+03 -0.11361711497E+03  0.17642189637E+03  0.41800000000E+01 0. -1.
         -5    1    3    3    0  502 -0.51900885545E+02  0.29717419827E+01 -0.25109614244E+02  0.57883488996E+02  0.41800000000E+01 0. -1.
        -11    1    1    2    0    0  0.12016435024E+02 -0.92436414704E+02 -0.60862116898E+01  0.93412672838E+02  0.00000000000E+00 0.  1.
         11    1    1    2    0    0  0.23590456290E+02 -0.44448993709E+02 -0.82586407874E+02  0.96709551934E+02  0.00000000000E+00 0. -1.
</event>
<event>
 7    1  0.2855090E-009  0.9451686E+02  0.7561462E-02  0.1292268E+00
          1   -1    0    0  501    0  0.00000000000E+00  0.00000000000E+00  0.66002306662E+02  0.66002306662E+02  0.00000000000E+00 0. -1.
         -1   -1    0    0    0  501 -0.00000000000E+00 -0.00000000000E+00 -0.19507976557E+03  0.19507976557E+03  0.00000000000E+00 0.  1.
         25    2    1    2    0    0 -0.24013706018E+02 -0.28210939609E+02 -0.73338939527E+02  0.14966913529E+03  0.12509890014E+03 0.  0.
          5    1    3    3  502    0 -0.40857419948E+02  0.23982372512E+02 -0.81204138580E+02  0.94106681371E+02  0.41800000000E+01 0. -1.
         -5    1    3    3    0  502  0.16843713931E+02 -0.52193312121E+02  0.78651990532E+01  0.55562453917E+02  0.41800000000E+01 0. -1.
        -11    1    1    2    0    0 -0.13829632393E+02  0.43507649911E+02 -0.44569993048E+01  0.45869806798E+02  0.00000000000E+00 0. -1.
         11    1    1    2    0    0  0.37843338410E+02 -0.15296710302E+02 -0.51281520078E+02  0.65543130148E+02  0.00000000000E+00 0.  1.
</event>
<event>
 7    1  0.2855090E-009  0.1165917E+03  0.7561462E-02  0.1248828E+00
         -1   -1    0    0    0  501 -0.00000000000E+00  0.00000000000E+00  0.32693396724E+02  0.32693396724E+02  0.00000000000E+00 0.  1.
          1   -1    0    0  501    0  0.00000000000E+00 -0.00000000000E+00 -0.46057782991E+03  0.46057782991E+03  0.00000000000E+00 0. -1.
         25    2    1    2    0    0 -0.20572451374E+02 -0.53317906644E+02 -0.23881687066E+03  0.27558512890E+03  0.12509052977E+03 0.  0.
          5    1    3    3  502    0 -0.19823413153E+02 -0.88159374434E+02 -0.11181963365E+03  0.14382679125E+03  0.41800000000E+01 0.  1.
         -5    1    3    3    0  502 -0.74903822136E+00  0.34841467790E+02 -0.12699723700E+03  0.13175833766E+03  0.41800000000E+01 0.  1.
        -11    1    1    2    0    0  0.29219781649E+02 -0.18960848207E+02 -0.54214104346E+02  0.64439727765E+02  0.00000000000E+00 0. -1.
         11    1    1    2    0    0 -0.86473302753E+01  0.72278754850E+02 -0.13485345818E+03  0.15324636996E+03  0.00000000000E+00 0.  1.
</event>
<event>
 7    1  0.2855090E-009  0.7184922E+02  0.7561462E-02  0.1353915E+00
         -2   -1    0    0    0  501 -0.00000000000E+00  0.00000000000E+00  0.31391856820E+02  0.31391856820E+02  0.00000000000E+00 0.  1.
          2   -1    0    0  501    0  0.00000000000E+00 -0.00000000000E+00 -0.74334954121E+03  0.74334954121E+03  0.00000000000E+00 0. -1.
         25    2    1    2    0    0  0.11601640509E+02 -0.32132921885E+02 -0.64116169059E+03  0.65414430993E+03  0.12509733012E+03 0.  0.
          5    1    3    3  502    0  0.12511068110E+02  0.45359842228E+01 -0.22052351520E+01  0.14122232125E+02  0.41800000000E+01 0. -1.
         -5    1    3    3    0  502 -0.90942760119E+00 -0.36668906108E+02 -0.63895645543E+03  0.64002207780E+03  0.41800000000E+01 0. -1.
        -11    1    1    2    0    0  0.15785850031E+02 -0.24946779321E+02 -0.62325327823E+01  0.30172492847E+02  0.00000000000E+00 0.  1.
         11    1    1    2    0    0 -0.27387490540E+02  0.57079701206E+02 -0.64563461020E+02  0.90424595254E+02  0.00000000000E+00 0. -1.
</event>
<event>
 7    1  0.2855090E-009  0.4076741E+03  0.7561462E-02  0.1041154E+00
         -1   -1    0    0    0  501 -0.00000000000E+00  0.00000000000E+00  0.18973346037E+03  0.18973346037E+03  0.00000000000E+00 0.  1.
          1   -1    0    0  501    0  0.00000000000E+00 -0.00000000000E+00 -0.97398614797E+03  0.97398614797E+03  0.00000000000E+00 0. -1.
         25    2    1    2    0    0 -0.36764644936E+03 -0.16260213794E+03 -0.54178779954E+03  0.68613733053E+03  0.12508816742E+03 0.  0.
          5    1    3    3  502    0 -0.14356809521E+02 -0.34148242369E+02 -0.96049386958E+02  0.10302998385E+03  0.41800000000E+01 0. -1.
         -5    1    3    3    0  502 -0.35328963984E+03 -0.12845389557E+03 -0.44573841258E+03  0.58310734668E+03  0.41800000000E+01 0. -1.
        -11    1    1    2    0    0  0.86648633434E+02  0.33618615279E+02 -0.10197129103E+03  0.13797224780E+03  0.00000000000E+00 0. -1.
         11    1    1    2    0    0  0.28099781593E+03  0.12898352266E+03 -0.14049359703E+03  0.33961003001E+03  0.00000000000E+00 0.  1.
</event>
<event>
 7    1  0.2855090E-009  0.1044285E+03  0.7561462E-02  0.1271250E+00
         -1   -1    0    0    0  501 -0.00000000000E+00  0.00000000000E+00  0.17300493459E+02  0.17300493459E+02  0.00000000000E+00 0.  1.
          1   -1    0    0  501    0  0.00000000000E+00 -0.00000000000E+00 -0.86003149806E+03  0.86003149806E+03  0.00000000000E+00 0. -1.
         25    2    1    2    0    0  0.55135826897E+02 -0.20449385305E+02 -0.42141582915E+03  0.44350572063E+03  0.12509151211E+03 0.  0.
          5    1    3    3  502    0  0.65965923750E+02  0.32433006814E+02 -0.15440098187E+03  0.17105712095E+03  0.41800000000E+01 0. -1.
         -5    1    3    3    0  502 -0.10830096852E+02 -0.52882392119E+02 -0.26701484729E+03  0.27244859968E+03  0.41800000000E+01 0. -1.
        -11    1    1    2    0    0 -0.66117156613E+02  0.22649916526E+02 -0.41524892909E+03  0.42108926634E+03  0.00000000000E+00 0. -1.
         11    1    1    2    0    0  0.10981329715E+02 -0.22005312206E+01 -0.60662463522E+01  0.12737004545E+02  0.00000000000E+00 0.  1.
</event>
<event>
 7    1  0.2855090E-009  0.2943589E+03  0.7561462E-02  0.1088095E+00
         -2   -1    0    0    0  501 -0.00000000000E+00  0.00000000000E+00  0.10969675198E+03  0.10969675198E+03  0.00000000000E+00 0.  1.
          2   -1    0    0  501    0  0.00000000000E+00 -0.00000000000E+00 -0.83090515414E+03  0.83090515414E+03  0.00000000000E+00 0. -1.
         25    2    1    2    0    0  0.22680849992E+03 -0.16653767348E+03 -0.35761354904E+03  0.47192343397E+03  0.12508950697E+03 0.  0.
          5    1    3    3  502    0 -0.15119902653E+02 -0.56427332792E+01 -0.12906896801E+02  0.21083459871E+02  0.41800000000E+01 0. -1.
         -5    1    3    3    0  502  0.24192840257E+03 -0.16089494020E+03 -0.34470665223E+03  0.45083997410E+03  0.41800000000E+01 0. -1.
        -11    1    1    2    0    0 -0.18956217355E+03  0.13590744462E+03 -0.23396717938E+03  0.33037144576E+03  0.00000000000E+00 0.  1.
         11    1    1    2    0    0 -0.37246326361E+02  0.30630228859E+02 -0.12962767374E+03  0.13830702638E+03  0.00000000000E+00 0. -1.
</event>
<event>
 7    1  0.2855090E-009  0.1614486E+03  0.7561462E-02  0.1187071E+00
         -4   -1    0    0    0  501 -0.00000000000E+00  0.00000000000E+00  0.18643407980E+03  0.18643407980E+03  0.00000000000E+00 0.  1.
          4   -1    0    0  501    0  0.00000000000E+00 -0.00000000000E+00 -0.23347272641E+03  0.23347272641E+03  0.00000000000E+00 0. -1.
         25    2    1    2    0    0  0.11691720841E+03  0.27454215536E+02 -0.15669472581E+03  0.23371731239E+03  0.12508867832E+03 0.  0.
          5    1    3    3  502    0  0.21792203092E+02  0.66746273789E+02 -0.60446212611E+02  0.92742558728E+02  0.41800000000E+01 0.  1.
         -5    1    3    3    0  502  0.95125005313E+02 -0.39292058254E+02 -0.96248513203E+02  0.14097475367E+03  0.41800000000E+01 0.  1.
        -11    1    1    2    0    0 -0.73533458716E+02 -0.60334539532E+02  0.59670396354E+02  0.11228527246E+03  0.00000000000E+00 0.  1.
         11    1    1    2    0    0 -0.43383749690E+02  0.32880323997E+02  0.49985682857E+02  0.73904221354E+02  0.00000000000E+00 0. -1.
</event>
<event>
 7    1  0.2855090E-009  0.1495034E+03  0.7561462E-02  0.1201085E+00
         -2   -1    0    0    0  501 -0.00000000000E+00  0.00000000000E+00  0.28139211395E+02  0.28139211395E+02  0.00000000000E+00 0.  1.
          2   -1    0    0  501    0  0.00000000000E+00 -0.00000000000E+00 -0.14842737616E+04  0.14842737616E+04  0.00000000000E+00 0. -1.
         25    2    1    2    0    0 -0.91388839669E+02 -0.70264974867E+02 -0.12371313483E+04  0.12487715171E+04  0.12508893767E+03 0.  0.
          5    1    3    3  502    0 -0.10876255197E+03 -0.37704136349E+02 -0.62579389692E+03  0.63630681942E+03  0.41800000000E+01 0. -1.
         -5    1    3    3    0  502  0.17373712303E+02 -0.32560838517E+02 -0.61133745137E+03  0.61246469771E+03  0.41800000000E+01 0. -1.
        -11    1    1    2    0    0  0.10718748580E+03  0.43668462940E+02 -0.17676851758E+03  0.21128937639E+03  0.00000000000E+00 0.  1.
         11    1    1    2    0    0 -0.15798646128E+02  0.26596511926E+02 -0.42234684339E+02  0.52352079494E+02  0.00000000000E+00 0. -1.
</event>
<event>
 7    1  0.2855090E-009  0.1304602E+03  0.7561462E-02  0.1226774E+00
          3   -1    0    0  501    0  0.00000000000E+00  0.00000000000E+00  0.43652378195E+02  0.43652378195E+02  0.00000000000E+00 0.  1.
         -3   -1    0    0    0  501 -0.00000000000E+00 -0.00000000000E+00 -0.56036104826E+03  0.56036104826E+03  0.00000000000E+00 0. -1.
         25    2    1    2    0    0  0.10273834873E+03 -0.10112534421E+02 -0.20343705261E+03  0.26017622142E+03  0.12509036799E+03 0.  0.
          5    1    3    3  502    0  0.77938606637E+01  0.25205822556E+02  0.60993820177E+01  0.27399865251E+02  0.41800000000E+01 0. -1.
         -5    1    3    3    0  502  0.94944488069E+02 -0.35318356977E+02 -0.20953643463E+03  0.23277635617E+03  0.41800000000E+01 0. -1.
        -11    1    1    2    0    0  0.88056957724E+01 -0.15998395659E+02 -0.12892838188E+02  0.22354288587E+02  0.00000000000E+00 0.  1.
         11    1    1    2    0    0 -0.11154404451E+03  0.26110930079E+02 -0.30037877927E+03  0.32148291645E+03  0.00000000000E+00 0. -1.
</event>
<event>
 7    1  0.2855090E-009  0.8658908E+02  0.7561462E-02  0.1311328E+00
          1   -1    0    0  501    0  0.00000000000E+00  0.00000000000E+00  0.24299495246E+02  0.24299495246E+02  0.00000000000E+00 0. -1.
         -1   -1    0    0    0  501 -0.00000000000E+00 -0.00000000000E+00 -0.70313314855E+03  0.70313314855E+03  0.00000000000E+00 0.  1.
         25    2    1    2    0    0 -0.63263783695E+02  0.97501480100E+01 -0.46746429901E+03  0.48812811009E+03  0.12509520092E+03 0.  0.
          5    1    3    3  502    0 -0.85247525161E+02  0.24803335607E+01 -0.17500840777E+03  0.19472726514E+03  0.41800000000E+01 0.  1.
         -5    1    3    3    0  502  0.21983741465E+02  0.72698144493E+01 -0.29245589124E+03  0.29340084495E+03  0.41800000000E+01 0.  1.
        -11    1    1    2    0    0  0.42782317950E+02 -0.92759496316E+01 -0.21419587214E+03  0.21862351569E+03  0.00000000000E+00 0.  1.
         11    1    1    2    0    0  0.20481465745E+02 -0.47419837837E+00  0.28265178467E+01  0.20681018019E+02  0.00000000000E+00 0. -1.
</event>
<event>
 7    1  0.2855090E-009  0.1338214E+03  0.7561462E-02  0.1221893E+00
         -2   -1    0    0    0  501 -0.00000000000E+00  0.00000000000E+00  0.37612003034E+02  0.37612003034E+02  0.00000000000E+00 0.  1.
          2   -1    0    0  501    0  0.00000000000E+00 -0.00000000000E+00 -0.69845619062E+03  0.69845619062E+03  0.00000000000E+00 0. -1.
         25    2    1    2    0    0 -0.43759154765E+02  0.11091581966E+03 -0.39177271415E+03  0.42819500714E+03  0.12509165404E+03 0.  0.
          5    1    3    3  502    0 -0.22550127010E+01  0.25828255673E+02 -0.28182212134E+03  0.28304304328E+03  0.41800000000E+01 0.  1.
         -5    1    3    3    0  502 -0.41504142064E+02  0.85087563982E+02 -0.10995059281E+03  0.14515196386E+03  0.41800000000E+01 0.  1.
        -11    1    1    2    0    0  0.62635602143E+02 -0.42615734286E+02 -0.16951691722E+03  0.18567526677E+03  0.00000000000E+00 0.  1.
         11    1    1    2    0    0 -0.18876447378E+02 -0.68300085370E+02 -0.99554556203E+02  0.12219791974E+03  0.00000000000E+00 0. -1.
</event>
<event>
 7    1  0.3250196E-009  0.1254460E+03  0.7561462E-02  0.1234374E+00
         -1   -1    0    0    0  501 -0.00000000000E+00  0.00000000000E+00  0.15226758551E+02  0.15226758551E+02  0.00000000000E+00 0.  1.
          1   -1    0    0  501    0  0.00000000000E+00 -0.00000000000E+00 -0.11362266608E+04  0.11362266608E+04  0.00000000000E+00 0. -1.
         25    2    1    2    0    0  0.16395036260E+02  0.72756069626E+02 -0.63294238717E+03  0.64948176785E+03  0.12509299902E+03 0.  0.
          5    1    3    3  502    0 -0.29004763482E+02  0.83341531773E+02 -0.28424394517E+03  0.29765614388E+03  0.41800000000E+01 0. -1.
         -5    1    3    3    0  502  0.45399799742E+02 -0.10585462147E+02 -0.34869844200E+03  0.35182562397E+03  0.41800000000E+01 0. -1.
        -11    1    1    2    0    0 -0.29350320470E+02  0.10736468083E+02 -0.97780425645E+02  0.10265342029E+03  0.00000000000E+00 0.  1.
         11    1    1    2    0    0  0.12955284211E+02 -0.83492537709E+02 -0.39027708942E+03  0.39931823120E+03  0.00000000000E+00 0. -1.
</event>
<event>
 7    1  0.2855090E-009  0.8650877E+02  0.7561462E-02  0.1311533E+00
          1   -1    0    0  501    0  0.00000000000E+00  0.00000000000E+00  0.52692159439E+03  0.52692159439E+03  0.00000000000E+00 0. -1.
         -1   -1    0    0    0  501 -0.00000000000E+00 -0.00000000000E+00 -0.23705265418E+02  0.23705265418E+02  0.00000000000E+00 0.  1.
         25    2    1    2    0    0  0.24912796089E+02  0.12917144710E+01  0.33137334713E+03  0.35507560626E+03  0.12509226609E+03 0.  0.
          5    1    3    3  502    0  0.61548443048E+02  0.25586351841E+02  0.10503211151E+03  0.12446722094E+03  0.41800000000E+01 0. -1.
         -5    1    3    3    0  502 -0.36635646959E+02 -0.24294637370E+02  0.22634123563E+03  0.23060838532E+03  0.41800000000E+01 0. -1.
        -11    1    1    2    0    0 -0.16224735007E+02  0.27538971268E+02  0.14056594108E+02  0.34917399709E+02  0.00000000000E+00 0.  1.
         11    1    1    2    0    0 -0.86880610823E+01 -0.28830685739E+02  0.15778638773E+03  0.16063385384E+03  0.00000000000E+00 0. -1.
</event>
<event>
 7    1  0.2855090E-009  0.6871580E+02  0.7561462E-02  0.1364515E+00
          2   -1    0    0  501    0  0.00000000000E+00  0.00000000000E+00  0.22200426838E+03  0.22200426838E+03  0.00000000000E+00 0.  1.
         -2   -1    0    0    0  501 -0.00000000000E+00 -0.00000000000E+00 -0.74447014250E+02  0.74447014250E+02  0.00000000000E+00 0. -1.
         25    2    1    2    0    0  0.24054365752E+02 -0.50309547006E+02  0.34751895955E+02  0.14129648945E+03  0.12508933058E+03 0.  0.
          5    1    3    3  502    0 -0.52749331007E+00 -0.34892354123E+02  0.80001003815E+02  0.87380705175E+02  0.41800000000E+01 0. -1.
         -5    1    3    3    0  502  0.24581859062E+02 -0.15417192883E+02 -0.45249107860E+02  0.53915784270E+02  0.41800000000E+01 0. -1.
        -11    1    1    2    0    0 -0.26818844922E+02  0.46407743348E+01  0.10533752217E+03  0.10879697058E+03  0.00000000000E+00 0.  1.
         11    1    1    2    0    0  0.27644791702E+01  0.45668772671E+02  0.74678360028E+01  0.46357822608E+02  0.00000000000E+00 0. -1.
</event>
<event>
 7    1  0.2855090E-009  0.9773109E+02  0.7561462E-02  0.1285141E+00
          1   -1    0    0  501    0  0.00000000000E+00  0.00000000000E+00  0.28863542679E+02  0.28863542679E+02  0.00000000000E+00 0. -1.
         -1   -1    0    0    0  501 -0.00000000000E+00 -0.00000000000E+00 -0.53224836398E+03  0.53224836398E+03  0.00000000000E+00 0.  1.
         25    2    1    2    0    0 -0.59090723699E+02  0.10069113796E+02 -0.26863683191E+03  0.30233553323E+03  0.12509167244E+03 0.  0.
          5    1    3    3  502    0 -0.80321984208E+01  0.30471886649E+02 -0.23626293870E+03  0.23839190567E+03  0.41800000000E+01 0. -1.
         -5    1    3    3    0  502 -0.51058525278E+02 -0.20402772854E+02 -0.32373893219E+02  0.63943627563E+02  0.41800000000E+01 0. -1.
        -11    1    1    2    0    0  0.73371451923E+02  0.19305436823E+02 -0.15405225907E+03  0.17172119372E+03  0.00000000000E+00 0. -1.
         11    1    1    2    0    0 -0.14280728224E+02 -0.29374550618E+02 -0.80695730312E+02  0.87055179703E+02  0.00000000000E+00 0.  1.
</event>
<event>
 7    1  0.2855090E-009  0.1997601E+03  0.7561462E-02  0.1149942E+00
         -2   -1    0    0    0  501 -0.00000000000E+00  0.00000000000E+00  0.35759190544E+03  0.35759190544E+03  0.00000000000E+00 0.  1.
          2   -1    0    0  501    0  0.00000000000E+00 -0.00000000000E+00 -0.14507464971E+03  0.14507464971E+03  0.00000000000E+00 0. -1.
         25    2    1    2    0    0 -0.13420596673E+03 -0.14643333833E+03  0.13296887127E+03  0.26977977856E+03  0.12508574703E+03 0.  0.
          5    1    3    3  502    0 -0.73555060692E+02 -0.66744131542E+02 -0.46605782846E+01  0.99520447339E+02  0.41800000000E+01 0. -1.
         -5    1    3    3    0  502 -0.60650906040E+02 -0.79689206787E+02  0.13762944955E+03  0.17025933122E+03  0.41800000000E+01 0. -1.
        -11    1    1    2    0    0  0.80219975146E+02  0.10321311246E+03  0.44501955437E+01  0.13079753529E+03  0.00000000000E+00 0. -1.
         11    1    1    2    0    0  0.53985991586E+02  0.43220225867E+02  0.75098188921E+02  0.10208924131E+03  0.00000000000E+00 0.  1.
</event>
<event>
 7    1  0.2855090E-009  0.1899276E+03  0.7561462E-02  0.1158527E+00
          2   -1    0    0  501    0  0.00000000000E+00  0.00000000000E+00  0.24583193706E+03  0.24583193706E+03  0.00000000000E+00 0. -1.
         -2   -1    0    0    0  501 -0.00000000000E+00 -0.00000000000E+00 -0.21945156494E+03  0.21945156494E+03  0.00000000000E+00 0.  1.
         25    2    1    2    0    0  0.95252402273E+02  0.15125563451E+03  0.11436360838E+03  0.24632739738E+03  0.12508742811E+03 0.  0.
          5    1    3    3  502    0  0.77838618960E+02  0.48780093408E+02  0.30852007804E+00  0.91956053086E+02  0.41800000000E+01 0. -1.
         -5    1    3    3    0  502  0.17413783313E+02  0.10247554110E+03  0.11405508830E+03  0.15437134430E+03  0.41800000000E+01 0. -1.
        -11    1    1    2    0    0 -0.58355994584E+02 -0.12686107664E+03 -0.24792752355E+02  0.14182325423E+03  0.00000000000E+00 0. -1.
         11    1    1    2    0    0 -0.36896407689E+02 -0.24394557863E+02 -0.63190483897E+02  0.77132850387E+02  0.00000000000E+00 0.  1.
</event>
<event>
 7    1  0.2855090E-009  0.1070754E+03  0.7561462E-02  0.1266084E+00
         -2   -1    0    0    0  501 -0.00000000000E+00  0.00000000000E+00  0.92995695136E+02  0.92995695136E+02  0.00000000000E+00 0.  1.
          2   -1    0    0  501    0  0.00000000000E+00 -0.00000000000E+00 -0.13925993479E+03  0.13925993479E+03  0.00000000000E+00 0. -1.
         25    2    1    2    0    0 -0.32782260541E+02 -0.46950954398E+01 -0.15290196621E+02  0.13030133630E+03  0.12509167679E+03 0.  0.
          5    1    3    3  502    0 -0.79067530656E+02 -0.17714057672E+02 -0.91518603779E+01  0.81649808277E+02  0.41800000000E+01 0.  1.
         -5    1    3    3    0  502  0.46285270115E+02  0.13018962232E+02 -0.61383362433E+01  0.48651528024E+02  0.41800000000E+01 0.  1.
        -11    1    1    2    0    0  0.45026505170E+02 -0.25797858923E+02  0.62884694350E+01  0.52272942721E+02  0.00000000000E+00 0.  1.
         11    1    1    2    0    0 -0.12244244630E+02  0.30492954363E+02 -0.37262512468E+02  0.49681350905E+02  0.00000000000E+00 0. -1.
</event>
<event>
 7    1  0.2855090E-009  0.1014505E+03  0.7561462E-02  0.1277275E+00
          1   -1    0    0  501    0  0.00000000000E+00  0.00000000000E+00  0.37942636657E+03  0.37942636657E+03  0.00000000000E+00 0.  1.
         -1   -1    0    0    0  501 -0.00000000000E+00 -0.00000000000E+00 -0.41813788122E+02  0.41813788122E+02  0.00000000000E+00 0. -1.
         25    2    1    2    0    0 -0.63941150344E+02  0.86194997405E+01  0.21066391153E+03  0.25335518897E+03  0.12508717631E+03 0.  0.
          5    1    3    3  502    0 -0.31899381997E+02  0.43115229565E+02  0.20767957740E+02  0.57665189334E+02  0.41800000000E+01 0. -1.
         -5    1    3    3    0  502 -0.32041768348E+02 -0.34495729824E+02  0.18989595378E+03  0.19568999964E+03  0.41800000000E+01 0. -1.
        -11    1    1    2    0    0  0.12489417667E+02  0.33240909518E+02  0.16745105838E+02  0.39259931085E+02  0.00000000000E+00 0. -1.
         11    1    1    2    0    0  0.51451732677E+02 -0.41860409259E+02  0.11020356108E+03  0.12862503463E+03  0.00000000000E+00 0.  1.
</event>
<event>
 7    1  0.2855090E-009  0.1349531E+03  0.7561462E-02  0.1220286E+00
         -2   -1    0    0    0  501 -0.00000000000E+00  0.00000000000E+00  0.69999344176E+02  0.69999344176E+02  0.00000000000E+00 0. -1.
          2   -1    0    0  501    0  0.00000000000E+00 -0.00000000000E+00 -0.36261136717E+03  0.36261136717E+03  0.00000000000E+00 0.  1.
         25    2    1    2    0    0  0.99871153813E+02  0.42855863951E+02 -0.10103918385E+03  0.19407395075E+03  0.12507961163E+03 0.  0.
          5    1    3    3  502    0  0.10808795746E+03  0.17935152906E+01 -0.10629180727E+03  0.15166292868E+03  0.41800000000E+01 0.  1.
         -5    1    3    3    0  502 -0.82168036423E+01  0.41062348660E+02  0.52526234191E+01  0.42411022062E+02  0.41800000000E+01 0.  1.
        -11    1    1    2    0    0 -0.29197195869E+02 -0.39188101717E+02 -0.14697693540E+03  0.15488835690E+03  0.00000000000E+00 0.  1.
         11    1    1    2    0    0 -0.70673957945E+02 -0.36677622332E+01 -0.44595903739E+02  0.83648403701E+02  0.00000000000E+00 0. -1.
</event>
<event>
 7    1  0.2860199E-009  0.8539204E+02  0.7561462E-02  0.1314410E+00
         -2   -1    0    0    0  501 -0.00000000000E+00  0.00000000000E+00  0.15773509984E+02  0.15773509984E+02  0.00000000000E+00 0.  1.
          2   -1    0    0  501    0  0.00000000000E+00 -0.00000000000E+00 -0.23276825365E+04  0.23276825365E+04  0.00000000000E+00 0. -1.
         25    2    1    2    0    0  0.46634096243E+02  0.66800475467E+02 -0.20380992607E+04  0.20435589641E+04  0.12509037040E+03 0.  0.
          5    1    3    3  502    0  0.50837293394E+02  0.65803691994E+02 -0.20351696585E+04  0.20368720057E+04  0.41800000000E+01 0.  1.
         -5    1    3    3    0  502 -0.42031971516E+01  0.99678347288E+00 -0.29296022084E+01  0.66869584032E+01  0.41800000000E+01 0.  1.
        -11    1    1    2    0    0 -0.21112930271E+02 -0.27871304546E+02 -0.16956417297E+02  0.38859818956E+02  0.00000000000E+00 0.  1.
         11    1    1    2    0    0 -0.25521165971E+02 -0.38929170921E+02 -0.25685334851E+03  0.26103726344E+03  0.00000000000E+00 0. -1.
</event>
<event>
 7    1  0.2855090E-009  0.1208498E+03  0.7561462E-02  0.1241702E+00
         -2   -1    0    0    0  501 -0.00000000000E+00  0.00000000000E+00  0.46781433534E+03  0.46781433534E+03  0.00000000000E+00 0.  1.
          2   -1    0    0  501    0  0.00000000000E+00 -0.00000000000E+00 -0.35583596763E+02  0.35583596763E+02  0.00000000000E+00 0. -1.
         25    2    1    2    0    0  0.64722675238E+02 -0.80511742650E+01  0.19109435802E+03  0.23752394312E+03  0.12508686499E+03 0.  0.
          5    1    3    3  502    0  0.81637056844E+02 -0.41902781498E+02  0.17186040608E+03  0.19486899119E+03  0.41800000000E+01 0. -1.
         -5    1    3    3    0  502 -0.16914381605E+02  0.33851607233E+02  0.19233951935E+02  0.42654951933E+02  0.41800000000E+01 0. -1.
        -11    1    1    2    0    0 -0.16181658775E+02 -0.40195000920E+02  0.85419704485E+02  0.95781052896E+02  0.00000000000E+00 0. -1.
         11    1    1    2    0    0 -0.48541016463E+02  0.48246175185E+02  0.15571667607E+03  0.17009293608E+03  0.00000000000E+00 0.  1.
</event>
<event>
 7    1  0.2855090E-009  0.1472997E+03  0.7561462E-02  0.1203831E+00
         -1   -1    0    0    0  501 -0.00000000000E+00  0.00000000000E+00  0.18004505879E+03  0.18004505879E+03  0.00000000000E+00 0.  1.
          1   -1    0    0  501    0  0.00000000000E+00 -0.00000000000E+00 -0.15794442557E+03  0.15794442557E+03  0.00000000000E+00 0. -1.
         25    2    1    2    0    0  0.10795830387E+03 -0.55505918413E+01  0.44174895118E+02  0.17112706373E+03  0.12508895289E+03 0.  0.
          5    1    3    3  502    0  0.10480523900E+03 -0.49905969417E+02  0.49271105788E+02  0.12617392033E+03  0.41800000000E+01 0.  1.
         -5    1    3    3    0  502  0.31530648698E+01  0.44355377575E+02 -0.50962106697E+01  0.44953143395E+02  0.41800000000E+01 0.  1.
        -11    1    1    2    0    0 -0.55553145222E+02  0.42256975015E+02 -0.60379844704E+02  0.92290462822E+02  0.00000000000E+00 0. -1.
         11    1    1    2    0    0 -0.52405158652E+02 -0.36706383173E+02  0.38305582801E+02  0.74571957817E+02  0.00000000000E+00 0.  1.
</event>
<event>
 7    1  0.2855090E-009  0.1451830E+03  0.7561462E-02  0.1206520E+00
         -2   -1    0    0    0  501 -0.00000000000E+00  0.00000000000E+00  0.75823889121E+02  0.75823889121E+02  0.00000000000E+00 0.  1.
          2   -1    0    0  501    0  0.00000000000E+00 -0.00000000000E+00 -0.31432088680E+03  0.31432088680E+03  0.00000000000E+00 0. -1.
         25    2    1    2    0    0  0.10124667857E+03  0.35281394723E+02 -0.10402521818E+03  0.19484754006E+03  0.12509456869E+03 0.  0.
          5    1    3    3  502    0  0.44411280846E+02  0.75861079495E+02 -0.29958589324E+02  0.92963727995E+02  0.41800000000E+01 0.  1.
         -5    1    3    3    0  502  0.56835397728E+02 -0.40579684771E+02 -0.74066628859E+02  0.10188381207E+03  0.41800000000E+01 0.  1.
        -11    1    1    2    0    0 -0.18210432790E+02  0.24180299856E+02 -0.54696799564E+01  0.30760756856E+02  0.00000000000E+00 0.  1.
         11    1    1    2    0    0 -0.83036245784E+02 -0.59461694579E+02 -0.12900209954E+03  0.16453647900E+03  0.00000000000E+00 0. -1.
</event>
<event>
 7    1  0.2855090E-009  0.2489409E+03  0.7561462E-02  0.1113976E+00
         -1   -1    0    0    0  501 -0.00000000000E+00  0.00000000000E+00  0.19097745478E+03  0.19097745478E+03  0.00000000000E+00 0.  1.
          1   -1    0    0  501    0  0.00000000000E+00 -0.00000000000E+00 -0.38851211878E+03  0.38851211878E+03  0.00000000000E+00 0. -1.
         25    2    1    2    0    0  0.20832207751E+03  0.12706479502E+03 -0.15550020839E+03  0.31523341258E+03  0.12509292340E+03 0.  0.
          5    1    3    3  502    0  0.84842303785E+02  0.55085944574E+02 -0.13803319897E+03  0.17118210835E+03  0.41800000000E+01 0.  1.
         -5    1    3    3    0  502  0.12347977373E+03  0.71978850443E+02 -0.17467009411E+02  0.14405130422E+03  0.41800000000E+01 0.  1.
        -11    1    1    2    0    0 -0.16099400814E+03 -0.60523844221E+02  0.90823377808E+00  0.17199718388E+03  0.00000000000E+00 0.  1.
         11    1    1    2    0    0 -0.47328069375E+02 -0.66540950796E+02 -0.42942689393E+02  0.92258977102E+02  0.00000000000E+00 0. -1.
</event>
<event>
 7    1  0.2855090E-009  0.1337300E+03  0.7561462E-02  0.1222024E+00
          2   -1    0    0  501    0  0.00000000000E+00  0.00000000000E+00  0.10058039401E+04  0.10058039401E+04  0.00000000000E+00 0. -1.
         -2   -1    0    0    0  501 -0.00000000000E+00 -0.00000000000E+00 -0.18821777554E+02  0.18821777554E+02  0.00000000000E+00 0.  1.
         25    2    1    2    0    0 -0.10700179702E+02  0.78540621612E+02  0.43026207721E+03  0.45503541220E+03  0.12509455696E+03 0.  0.
          5    1    3    3  502    0  0.53731640923E+02  0.12569619909E+02  0.14454820265E+03  0.15477964941E+03  0.41800000000E+01 0. -1.
         -5    1    3    3    0  502 -0.64431820625E+02  0.65971001703E+02  0.28571387456E+03  0.30025576279E+03  0.41800000000E+01 0. -1.
        -11    1    1    2    0    0  0.50384299551E+02 -0.49528729070E+02  0.35549145363E+03  0.36244426640E+03  0.00000000000E+00 0.  1.
         11    1    1    2    0    0 -0.39684119849E+02 -0.29011892542E+02  0.20122863173E+03  0.20714603908E+03  0.00000000000E+00 0. -1.
</event>
<event>
 7    1  0.2855090E-009  0.9556654E+02  0.7561462E-02  0.1289905E+00
         -2   -1    0    0    0  501 -0.00000000000E+00  0.00000000000E+00  0.27298704364E+03  0.27298704364E+03  0.00000000000E+00 0.  1.
          2   -1    0    0  501    0  0.00000000000E+00 -0.00000000000E+00 -0.10094996226E+03  0.10094996226E+03  0.00000000000E+00 0. -1.
         25    2    1    2    0    0 -0.14918563930E+01  0.42206843714E+02 -0.39567446726E+02  0.13782937707E+03  0.12509081122E+03 0.  0.
          5    1    3    3  502    0 -0.32808057991E+01 -0.32886215221E+02  0.22583940810E+02  0.40246411278E+02  0.41800000000E+01 0. -1.
         -5    1    3    3    0  502  0.17889494061E+01  0.75093058936E+02 -0.62151387536E+02  0.97582965793E+02  0.41800000000E+01 0. -1.
        -11    1    1    2    0    0  0.52563143915E+01 -0.62110862920E+02  0.20580425594E+03  0.21503669430E+03  0.00000000000E+00 0.  1.
         11    1    1    2    0    0 -0.37644579984E+01  0.19904019206E+02  0.58002721660E+01  0.21070934525E+02  0.00000000000E+00 0. -1.
</event>
<event>
 7    1  0.2855090E-009  0.1352854E+03  0.7561462E-02  0.1219817E+00
         -2   -1    0    0    0  501 -0.00000000000E+00  0.00000000000E+00  0.49669977934E+02  0.49669977934E+02  0.00000000000E+00 0.  1.
          2   -1    0    0  501    0  0.00000000000E+00 -0.00000000000E+00 -0.37728165072E+03  0.37728165072E+03  0.00000000000E+00 0. -1.
         25    2    1    2    0    0 -0.68719635899E+02 -0.45644163237E+02 -0.15693402945E+03  0.21697876292E+03  0.12508283640E+03 0.  0.
          5    1    3    3  502    0 -0.64066090284E+01  0.40953791259E+02 -0.58052641545E+02  0.71455155503E+02  0.41800000000E+01 0.  1.
         -5    1    3    3    0  502 -0.62313026871E+02 -0.86597954495E+02 -0.98881387910E+02  0.14552360742E+03  0.41800000000E+01 0.  1.
        -11    1    1    2    0    0  0.19780414173E+01 -0.24928126207E+02 -0.30714470559E+02  0.39606853268E+02  0.00000000000E+00 0.  1.
         11    1    1    2    0    0  0.66741594482E+02  0.70572289443E+02 -0.13996317277E+03  0.17036601247E+03  0.00000000000E+00 0. -1.
</event>
<event>
 7    1  0.2855090E-009  0.1489965E+03  0.7561462E-02  0.1201712E+00
          2   -1    0    0  501    0  0.00000000000E+00  0.00000000000E+00  0.58755982661E+03  0.58755982661E+03  0.00000000000E+00 0. -1.
         -2   -1    0    0    0  501 -0.00000000000E+00 -0.00000000000E+00 -0.38701903071E+02  0.38701903071E+02  0.00000000000E+00 0.  1.
         25    2    1    2    0    0  0.95435539770E+02  0.37840052091E+02  0.25480575280E+03  0.30185964676E+03  0.12511379975E+03 0.  0.
          5    1    3    3  502    0  0.77846084890E+02  0.82141483017E+02  0.19190952664E+03  0.22283171897E+03  0.41800000000E+01 0. -1.
         -5    1    3    3    0  502  0.17589454880E+02 -0.44301430927E+02  0.62896226162E+02  0.79027927788E+02  0.41800000000E+01 0. -1.
        -11    1    1    2    0    0 -0.78110544753E+02  0.16524977615E+02  0.16517847645E+03  0.18346187933E+03  0.00000000000E+00 0.  1.
         11    1    1    2    0    0 -0.17324995017E+02 -0.54365029706E+02  0.12887369430E+03  0.14094020359E+03  0.00000000000E+00 0. -1.
</event>
<event>
 7    1  0.2855090E-009  0.3355520E+02  0.7561462E-02  0.1561818E+00
         -1   -1    0    0    0  501 -0.00000000000E+00  0.00000000000E+00  0.82043372132E+02  0.82043372132E+02  0.00000000000E+00 0.  1.
          1   -1    0    0  501    0  0.00000000000E+00 -0.00000000000E+00 -0.15593059479E+03  0.15593059479E+03  0.00000000000E+00 0. -1.
         25    2    1    2    0    0  0.28764124449E+02  0.76188623905E+01 -0.18369905905E+02  0.12989793674E+03  0.12510235253E+03 0.  0.
          5    1    3    3  502    0  0.15090240573E+02  0.39999998488E+01  0.53831643927E+02  0.56205281311E+02  0.41800000000E+01 0. -1.
         -5    1    3    3    0  502  0.13673883876E+02  0.36188625417E+01 -0.72201549833E+02  0.73692655432E+02  0.41800000000E+01 0. -1.
        -11    1    1    2    0    0 -0.80744031130E+01 -0.12556905887E+02 -0.76651039191E+02  0.78091316292E+02  0.00000000000E+00 0. -1.
         11    1    1    2    0    0 -0.20689721336E+02  0.49380434969E+01  0.21133722441E+02  0.29984713885E+02  0.00000000000E+00 0.  1.
</event>
<event>
 7    1  0.2855090E-009  0.8019092E+02  0.7561462E-02  0.1328511E+00
         -1   -1    0    0    0  501 -0.00000000000E+00  0.00000000000E+00  0.34685781031E+03  0.34685781031E+03  0.00000000000E+00 0.  1.
          1   -1    0    0  501    0  0.00000000000E+00 -0.00000000000E+00 -0.37587088623E+02  0.37587088623E+02  0.00000000000E+00 0. -1.
         25    2    1    2    0    0  0.13316359985E+02  0.33654307978E+02  0.18860624193E+03  0.22919267689E+03  0.12508809199E+03 0.  0.
          5    1    3    3  502    0  0.33451374808E+02 -0.97420904299E+01  0.54320099065E+00  0.35095160205E+02  0.41800000000E+01 0. -1.
         -5    1    3    3    0  502 -0.20135014823E+02  0.43396398408E+02  0.18806304093E+03  0.19409751668E+03  0.41800000000E+01 0. -1.
        -11    1    1    2    0    0  0.24764148710E+02 -0.30165733928E+02  0.10821314885E+03  0.11503616887E+03  0.00000000000E+00 0. -1.
         11    1    1    2    0    0 -0.38080508695E+02 -0.34885740497E+01  0.12451330913E+02  0.40216053174E+02  0.00000000000E+00 0.  1.
</event>
<event>
 7    1  0.2855090E-009  0.9591661E+02  0.7561462E-02  0.1289125E+00
          4   -1    0    0  501    0  0.00000000000E+00  0.00000000000E+00  0.22150171086E+03  0.22150171086E+03  0.00000000000E+00 0. -1.
         -4   -1    0    0    0  501 -0.00000000000E+00 -0.00000000000E+00 -0.94647839905E+02  0.94647839905E+02  0.00000000000E+00 0.  1.
         25    2    1    2    0    0 -0.70953278182E+02  0.20176477075E+02  0.55914711318E+01  0.14532751329E+03  0.12508942265E+03 0.  0.
          5    1    3    3  502    0 -0.18348435488E+02 -0.12868643856E+02 -0.54326662495E+02  0.58916260382E+02  0.41800000000E+01 0.  1.
         -5    1    3    3    0  502 -0.52604842694E+02  0.33045120931E+02  0.59918133627E+02  0.86411252910E+02  0.41800000000E+01 0.  1.
        -11    1    1    2    0    0  0.51823035109E+02 -0.49562230493E+02  0.39521550766E+02  0.81877925195E+02  0.00000000000E+00 0. -1.
         11    1    1    2    0    0  0.19130243073E+02  0.29385753418E+02  0.81740849058E+02  0.88944112277E+02  0.00000000000E+00 0.  1.
</event>
<event>
 7    1  0.2855090E-009  0.9029362E+02  0.7561462E-02  0.1302142E+00
          2   -1    0    0  501    0  0.00000000000E+00  0.00000000000E+00  0.73556143340E+02  0.73556143340E+02  0.00000000000E+00 0.  1.
         -2   -1    0    0    0  501 -0.00000000000E+00 -0.00000000000E+00 -0.20629159840E+03  0.20629159840E+03  0.00000000000E+00 0. -1.
         25    2    1    2    0    0  0.25249890807E+02 -0.26054514744E+02 -0.18948236658E+02  0.13161819517E+03  0.12509164202E+03 0.  0.
          5    1    3    3  502    0 -0.46023865092E+02  0.11925022530E+02  0.30061025720E+01  0.47821662174E+02  0.41800000000E+01 0. -1.
         -5    1    3    3    0  502  0.71273755900E+02 -0.37979537275E+02 -0.21954339230E+02  0.83796532999E+02  0.41800000000E+01 0. -1.
        -11    1    1    2    0    0  0.98473998372E+01  0.47469247396E+01  0.11809112781E+02  0.16092225536E+02  0.00000000000E+00 0.  1.
         11    1    1    2    0    0 -0.35097290645E+02  0.21307590005E+02 -0.12559633118E+03  0.13213732103E+03  0.00000000000E+00 0. -1.
</event>
<event>
 7    1  0.2855090E-009  0.1163445E+03  0.7561462E-02  0.1249252E+00
         -1   -1    0    0    0  501 -0.00000000000E+00  0.00000000000E+00  0.14893441041E+03  0.14893441041E+03  0.00000000000E+00 0.  1.
          1   -1    0    0  501    0  0.00000000000E+00 -0.00000000000E+00 -0.17920232947E+03  0.17920232947E+03  0.00000000000E+00 0. -1.
         25    2    1    2    0    0  0.21535747304E+02 -0.90879601866E+02 -0.94884612076E+02  0.18268546027E+03  0.12509195553E+03 0.  0.
          5    1    3    3  502    0 -0.92538353363E+01 -0.55101280874E+01 -0.91024979782E+02  0.91755186906E+02  0.41800000000E+01 0.  1.
         -5    1    3    3    0  502  0.30789582640E+02 -0.85369473778E+02 -0.38596322941E+01  0.90930273362E+02  0.41800000000E+01 0.  1.
        -11    1    1    2    0    0  0.18492069561E+02 -0.10519009602E+02  0.11554943762E+02  0.24209975733E+02  0.00000000000E+00 0.  1.
         11    1    1    2    0    0 -0.40027816865E+02  0.10139861147E+03  0.53061749256E+02  0.12124130387E+03  0.00000000000E+00 0. -1.
</event>
<event>
 7    1  0.2855090E-009  0.3013532E+03  0.7561462E-02  0.1084566E+00
         -1   -1    0    0    0  501 -0.00000000000E+00  0.00000000000E+00  0.39688411746E+03  0.39688411746E+03  0.00000000000E+00 0.  1.
          1   -1    0    0  501    0  0.00000000000E+00 -0.00000000000E+00 -0.27749926043E+03  0.27749926043E+03  0.00000000000E+00 0. -1.
         25    2    1    2    0    0 -0.29376232745E+03  0.18594870192E+02  0.60922506500E+02  0.32557897651E+03  0.12509214171E+03 0.  0.
          5    1    3    3  502    0 -0.49003244011E+02  0.36438956150E+02 -0.24161693698E+02  0.65805587082E+02  0.41800000000E+01 0. -1.
         -5    1    3    3    0  502 -0.24475908344E+03 -0.17844085958E+02  0.85084200198E+02  0.25977338942E+03  0.41800000000E+01 0. -1.
        -11    1    1    2    0    0  0.17606091738E+03 -0.26693703043E+02 -0.53724149958E+02  0.18600076532E+03  0.00000000000E+00 0. -1.
         11    1    1    2    0    0  0.11770141007E+03  0.80988328509E+01  0.11218650049E+03  0.16280363607E+03  0.00000000000E+00 0.  1.
</event>
<event>
 7    1  0.2855090E-009  0.9093637E+02  0.7561462E-02  0.1300600E+00
         -1   -1    0    0    0  501 -0.00000000000E+00  0.00000000000E+00  0.11711034951E+02  0.11711034951E+02  0.00000000000E+00 0.  1.
          1   -1    0    0  501    0  0.00000000000E+00 -0.00000000000E+00 -0.21951439359E+04  0.21951439359E+04  0.00000000000E+00 0. -1.
         25    2    1    2    0    0  0.15448821700E+02 -0.76633440486E+01 -0.19765454899E+04  0.19805748568E+04  0.12508915491E+03 0.  0.
          5    1    3    3  502    0 -0.17631831236E+02  0.39470089944E+02 -0.30977492117E+03  0.31280464137E+03  0.41800000000E+01 0.  1.
         -5    1    3    3    0  502  0.33080652936E+02 -0.47133433992E+02 -0.16667705688E+04  0.16677702154E+04  0.41800000000E+01 0.  1.
        -11    1    1    2    0    0 -0.17831218666E+02  0.42343439546E+02 -0.61338617452E+02  0.76637753246E+02  0.00000000000E+00 0.  1.
         11    1    1    2    0    0  0.23823969651E+01 -0.34680095497E+02 -0.14554879352E+03  0.14964236076E+03  0.00000000000E+00 0. -1.
</event>
<event>
 7    1  0.2855090E-009  0.9801895E+02  0.7561462E-02  0.1284518E+00
          1   -1    0    0  501    0  0.00000000000E+00  0.00000000000E+00  0.80559672114E+02  0.80559672114E+02  0.00000000000E+00 0. -1.
         -1   -1    0    0    0  501 -0.00000000000E+00 -0.00000000000E+00 -0.16025519156E+03  0.16025519156E+03  0.00000000000E+00 0.  1.
         25    2    1    2    0    0 -0.32272743958E+02  0.10214199085E+02 -0.27734734192E+02  0.13252946964E+03  0.12509590311E+03 0.  0.
          5    1    3    3  502    0 -0.20775544452E+02 -0.47953110839E+02  0.20185440529E+02  0.56178719243E+02  0.41800000000E+01 0. -1.
         -5    1    3    3    0  502 -0.11497199506E+02  0.58167309924E+02 -0.47920174721E+02  0.76350750393E+02  0.41800000000E+01 0. -1.
        -11    1    1    2    0    0 -0.21873786565E+02  0.12791961229E+02 -0.41362162904E+02  0.48506961674E+02  0.00000000000E+00 0.  1.
         11    1    1    2    0    0  0.54146530523E+02 -0.23006160314E+02 -0.10598622351E+02  0.59778432364E+02  0.00000000000E+00 0. -1.
</event>
<event>
 7    1  0.2855090E-009  0.1209184E+03  0.7561462E-02  0.1241590E+00
          1   -1    0    0  501    0  0.00000000000E+00  0.00000000000E+00  0.26296531834E+03  0.26296531834E+03  0.00000000000E+00 0. -1.
         -1   -1    0    0    0  501 -0.00000000000E+00 -0.00000000000E+00 -0.64424674598E+02  0.64424674598E+02  0.00000000000E+00 0.  1.
         25    2    1    2    0    0  0.62085840700E+02  0.23883350898E+02  0.12833715046E+03  0.19116295399E+03  0.12509110570E+03 0.  0.
          5    1    3    3  502    0 -0.38230413172E+02  0.13400354372E+02  0.37511612681E+02  0.55369011862E+02  0.41800000000E+01 0. -1.
         -5    1    3    3    0  502  0.10031625387E+03  0.10482996526E+02  0.90825537778E+02  0.13579394213E+03  0.41800000000E+01 0. -1.
        -11    1    1    2    0    0 -0.70580972147E+02  0.43137137742E+01  0.78479121738E+02  0.10563737172E+03  0.00000000000E+00 0.  1.
         11    1    1    2    0    0  0.84951314474E+01 -0.28197064672E+02 -0.82756284542E+01  0.30589667222E+02  0.00000000000E+00 0. -1.
</event>
<event>
 7    1  0.2855090E-009  0.9132557E+02  0.7561462E-02  0.1299673E+00
         -1   -1    0    0    0  501 -0.00000000000E+00  0.00000000000E+00  0.16716408618E+03  0.16716408618E+03  0.00000000000E+00 0.  1.
          1   -1    0    0  501    0  0.00000000000E+00 -0.00000000000E+00 -0.73017522623E+02  0.73017522623E+02  0.00000000000E+00 0. -1.
         25    2    1    2    0    0 -0.22081774324E+02 -0.30336807483E+01  0.60195688267E+02  0.14062815310E+03  0.12512373309E+03 0.  0.
          5    1    3    3  502    0 -0.62578629497E+02  0.31619728493E+02  0.17968485059E+02  0.72499868655E+02  0.41800000000E+01 0.  1.
         -5    1    3    3    0  502  0.40496855173E+02 -0.34653409242E+02  0.42227203208E+02  0.68128284447E+02  0.41800000000E+01 0.  1.
        -11    1    1    2    0    0  0.17318274758E+02  0.28332665861E+02  0.56365219157E+02  0.65419420099E+02  0.00000000000E+00 0.  1.
         11    1    1    2    0    0  0.47634995661E+01 -0.25298985113E+02 -0.22414343864E+02  0.34134035605E+02  0.00000000000E+00 0. -1.
</event>
<event>
 7    1  0.2855090E-009  0.1182880E+03  0.7561462E-02  0.1245948E+00
         -2   -1    0    0    0  501 -0.00000000000E+00  0.00000000000E+00  0.98945104181E+02  0.98945104181E+02  0.00000000000E+00 0.  1.
          2   -1    0    0  501    0  0.00000000000E+00 -0.00000000000E+00 -0.19109259162E+03  0.19109259162E+03  0.00000000000E+00 0. -1.
         25    2    1    2    0    0 -0.72102999798E+02 -0.23876912634E+02 -0.89065885030E+02  0.17131551546E+03  0.12508926582E+03 0.  0.
          5    1    3    3  502    0 -0.85733917662E+02 -0.52804912299E+02 -0.95031712352E+02  0.13851773227E+03  0.41800000000E+01 0. -1.
         -5    1    3    3    0  502  0.13630917864E+02  0.28927999665E+02  0.59658273218E+01  0.32797783189E+02  0.41800000000E+01 0. -1.
        -11    1    1    2    0    0  0.11035820782E+02 -0.23694305801E+02 -0.27120543759E+02  0.37666077066E+02  0.00000000000E+00 0. -1.
         11    1    1    2    0    0  0.61067179016E+02  0.47571218435E+02  0.24038941355E+02  0.81056103273E+02  0.00000000000E+00 0.  1.
</event>
<event>
 7    1  0.2855090E-009  0.1678085E+03  0.7561462E-02  0.1180153E+00
         -1   -1    0    0    0  501 -0.00000000000E+00  0.00000000000E+00  0.47842078201E+02  0.47842078201E+02  0.00000000000E+00 0.  1.
          1   -1    0    0  501    0  0.00000000000E+00 -0.00000000000E+00 -0.69632068678E+03  0.69632068678E+03  0.00000000000E+00 0. -1.
         25    2    1    2    0    0  0.13047689552E+03 -0.66102700367E+02 -0.37100461357E+03  0.41795490004E+03  0.12509231758E+03 0.  0.
          5    1    3    3  502    0 -0.19304917924E+02 -0.84080545758E+01 -0.10560725361E+03  0.10776706201E+03  0.41800000000E+01 0.  1.
         -5    1    3    3    0  502  0.14978181345E+03 -0.57694645791E+02 -0.26539735996E+03  0.31018783803E+03  0.41800000000E+01 0.  1.
        -11    1    1    2    0    0 -0.44777725250E+02  0.48663836896E+02 -0.51240689869E+02  0.83658962450E+02  0.00000000000E+00 0.  1.
         11    1    1    2    0    0 -0.85699170271E+02  0.17438863471E+02 -0.22623330514E+03  0.24254890249E+03  0.00000000000E+00 0. -1.
</event>
<event>
 7    1  0.2855090E-009  0.1097281E+03  0.7561462E-02  0.1261074E+00
         -1   -1    0    0    0  501 -0.00000000000E+00  0.00000000000E+00  0.79612781277E+02  0.79612781277E+02  0.00000000000E+00 0.  1.
          1   -1    0    0  501    0  0.00000000000E+00 -0.00000000000E+00 -0.29986261049E+03  0.29986261049E+03  0.00000000000E+00 0. -1.
         25    2    1    2    0    0 -0.11281117851E+02  0.74628944971E+02 -0.22051735297E+03  0.26452479518E+03  0.12509484903E+03 0.  0.
          5    1    3    3  502    0  0.52477652805E+02  0.44918751650E+02 -0.70536132339E+02  0.98815062916E+02  0.41800000000E+01 0.  1.
         -5    1    3    3    0  502 -0.63758770657E+02  0.29710193321E+02 -0.14998122063E+03  0.16570973226E+03  0.41800000000E+01 0.  1.
        -11    1    1    2    0    0  0.19382138043E+01 -0.68689623157E+02 -0.35615725797E+02  0.77398326378E+02  0.00000000000E+00 0. -1.
         11    1    1    2    0    0  0.93429040468E+01 -0.59393218147E+01  0.35883249555E+02  0.37552270215E+02  0.00000000000E+00 0.  1.
</event>
<event>
 7    1  0.2855090E-009  0.1350742E+03  0.7561462E-02  0.1220115E+00
         -2   -1    0    0    0  501 -0.00000000000E+00  0.00000000000E+00  0.47685759233E+02  0.47685759233E+02  0.00000000000E+00 0.  1.
          2   -1    0    0  501    0  0.00000000000E+00 -0.00000000000E+00 -0.38960311314E+03  0.38960311314E+03  0.00000000000E+00 0. -1.
         25    2    1    2    0    0 -0.79963387972E+02 -0.11274796430E+02 -0.17875238260E+03  0.23263915398E+03  0.12508915711E+03 0.  0.
          5    1    3    3  502    0 -0.21073124101E+02  0.55554805496E+02 -0.66429530504E+02  0.89223135430E+02  0.41800000000E+01 0.  1.
         -5    1    3    3    0  502 -0.58890263870E+02 -0.66829601926E+02 -0.11232285210E+03  0.14341601854E+03  0.41800000000E+01 0.  1.
        -11    1    1    2    0    0  0.31681637904E+02 -0.39970939633E+02 -0.87604041746E+02  0.10136996757E+03  0.00000000000E+00 0. -1.
         11    1    1    2    0    0  0.48281750068E+02  0.51245736063E+02 -0.75560929557E+02  0.10327975082E+03  0.00000000000E+00 0.  1.
</event>
<event>
 7    1  0.2855090E-009  0.2872635E+03  0.7561462E-02  0.1091787E+00
         -1   -1    0    0    0  501 -0.00000000000E+00  0.00000000000E+00  0.91443361791E+02  0.91443361791E+02  0.00000000000E+00 0.  1.
          1   -1    0    0  501    0  0.00000000000E+00 -0.00000000000E+00 -0.90473633783E+03  0.90473633783E+03  0.00000000000E+00 0. -1.
         25    2    1    2    0    0  0.26482698285E+03 -0.23705540616E+02 -0.39235451114E+03  0.49018775102E+03  0.12508671129E+03 0.  0.
          5    1    3    3  502    0  0.51755117877E+02  0.46165257075E+02 -0.97926349531E+02  0.12007025243E+03  0.41800000000E+01 0.  1.
         -5    1    3    3    0  502  0.21307186497E+03 -0.69870797691E+02 -0.29442816160E+03  0.37011749859E+03  0.41800000000E+01 0.  1.
        -11    1    1    2    0    0 -0.18457891013E+03  0.58040207076E+02 -0.29188610715E+03  0.35019357397E+03  0.00000000000E+00 0. -1.
         11    1    1    2    0    0 -0.80248072722E+02 -0.34334666459E+02 -0.12905235775E+03  0.15579837463E+03  0.00000000000E+00 0.  1.
</event>
<event>
 7    1  0.2855090E-009  0.1098244E+03  0.7561462E-02  0.1260895E+00
          2   -1    0    0  501    0  0.00000000000E+00  0.00000000000E+00  0.36046458892E+03  0.36046458892E+03  0.00000000000E+00 0. -1.
         -2   -1    0    0    0  501 -0.00000000000E+00 -0.00000000000E+00 -0.40919108489E+02  0.40919108489E+02  0.00000000000E+00 0.  1.
         25    2    1    2    0    0 -0.39507582274E+02  0.88563124628E+00  0.11242638169E+03  0.17276815924E+03  0.12509001618E+03 0.  0.
          5    1    3    3  502    0  0.30369958994E+02  0.35065549939E+02  0.17000341394E+02  0.49582367928E+02  0.41800000000E+01 0.  1.
         -5    1    3    3    0  502 -0.69877541269E+02 -0.34179918693E+02  0.95426040293E+02  0.12318579131E+03  0.41800000000E+01 0.  1.
        -11    1    1    2    0    0 -0.88334769969E+01  0.34275008960E+02  0.57804448659E+02  0.67780239302E+02  0.00000000000E+00 0. -1.
         11    1    1    2    0    0  0.48341059271E+02 -0.35160640207E+02  0.14931465009E+03  0.16083529887E+03  0.00000000000E+00 0.  1.
</event>
<event>
 7    1  0.2855090E-009  0.1546711E+03  0.7561462E-02  0.1194848E+00
          1   -1    0    0  501    0  0.00000000000E+00  0.00000000000E+00  0.69690560761E+02  0.69690560761E+02  0.00000000000E+00 0. -1.
         -1   -1    0    0    0  501 -0.00000000000E+00 -0.00000000000E+00 -0.43286743541E+03  0.43286743541E+03  0.00000000000E+00 0.  1.
         25    2    1    2    0    0  0.12724098307E+03 -0.86452236633E+01 -0.12806732250E+03  0.21980147781E+03  0.12508574216E+03 0.  0.
          5    1    3    3  502    0  0.78628024029E+02  0.46819260581E+02 -0.11111747076E+03  0.14401032613E+03  0.41800000000E+01 0. -1.
         -5    1    3    3    0  502  0.48612959042E+02 -0.55464484245E+02 -0.16949851736E+02  0.75791151681E+02  0.41800000000E+01 0. -1.
        -11    1    1    2    0    0 -0.38864750468E+02 -0.28298924582E+02 -0.13893854855E+03  0.14702114893E+03  0.00000000000E+00 0.  1.
         11    1    1    2    0    0 -0.88376232602E+02  0.36944148245E+02 -0.96171003605E+02  0.13573536942E+03  0.00000000000E+00 0. -1.
</event>
<event>
 7    1  0.2855090E-009  0.9872106E+02  0.7561462E-02  0.1283009E+00
          2   -1    0    0  501    0  0.00000000000E+00  0.00000000000E+00  0.18117898387E+03  0.18117898387E+03  0.00000000000E+00 0.  1.
         -2   -1    0    0    0  501 -0.00000000000E+00 -0.00000000000E+00 -0.72049176279E+02  0.72049176279E+02  0.00000000000E+00 0. -1.
         25    2    1    2    0    0  0.16903278114E+02  0.24662660313E+02  0.39886292121E+02  0.13465518548E+03  0.12508850888E+03 0.  0.
          5    1    3    3  502    0 -0.21508154608E+02  0.67303453365E+02  0.17500241302E+02  0.72911497002E+02  0.41800000000E+01 0. -1.
         -5    1    3    3    0  502  0.38411432723E+02 -0.42640793052E+02  0.22386050819E+02  0.61743688481E+02  0.41800000000E+01 0. -1.
        -11    1    1    2    0    0 -0.33524729454E+01 -0.44757301399E+02  0.80254433562E+02  0.91952320306E+02  0.00000000000E+00 0.  1.
         11    1    1    2    0    0 -0.13550805169E+02  0.20094641086E+02 -0.11010918094E+02  0.26620654357E+02  0.00000000000E+00 0. -1.
</event>
<event>
 7    1  0.2855090E-009  0.3595409E+03  0.7561462E-02  0.1058766E+00
         -2   -1    0    0    0  501 -0.00000000000E+00  0.00000000000E+00  0.20884216253E+03  0.20884216253E+03  0.00000000000E+00 0.  1.
          2   -1    0    0  501    0  0.00000000000E+00 -0.00000000000E+00 -0.84150882308E+03  0.84150882308E+03  0.00000000000E+00 0. -1.
         25    2    1    2    0    0  0.34524279752E+03  0.34803830210E+02 -0.58018336029E+03  0.68750603959E+03  0.12509167471E+03 0.  0.
          5    1    3    3  502    0  0.28932966799E+03 -0.16953946430E+02 -0.49060524719E+03  0.56983337393E+03  0.41800000000E+01 0.  1.
         -5    1    3    3    0  502  0.55913129536E+02  0.51757776640E+02 -0.89578113101E+02  0.11767266566E+03  0.41800000000E+01 0.  1.
        -11    1    1    2    0    0 -0.16844360182E+03 -0.49347371172E+02 -0.59433240267E+02  0.18531249306E+03  0.00000000000E+00 0. -1.
         11    1    1    2    0    0 -0.17679919570E+03  0.14543540962E+02  0.69499400034E+01  0.17753245295E+03  0.00000000000E+00 0.  1.
</event>
<event>
 7    1  0.2855090E-009  0.1321252E+03  0.7561462E-02  0.1224336E+00
          1   -1    0    0  501    0  0.00000000000E+00  0.00000000000E+00  0.10581855384E+03  0.10581855384E+03  0.00000000000E+00 0. -1.
         -1   -1    0    0    0  501 -0.00000000000E+00 -0.00000000000E+00 -0.27155639334E+03  0.27155639334E+03  0.00000000000E+00 0.  1.
         25    2    1    2    0    0 -0.88904355140E+02  0.20765424766E+02  0.14882935258E+02  0.15557678073E+03  0.12508975063E+03 0.  0.
          5    1    3    3  502    0 -0.26067517977E+01  0.51095010609E+02  0.34608051577E+02  0.61908681928E+02  0.41800000000E+01 0.  1.
         -5    1    3    3    0  502 -0.86297603343E+02 -0.30329585843E+02 -0.19725116319E+02  0.93668098806E+02  0.41800000000E+01 0.  1.
        -11    1    1    2    0    0  0.50380808784E+02  0.29221289739E+02 -0.50117552848E+02  0.76836701981E+02  0.00000000000E+00 0. -1.
         11    1    1    2    0    0  0.38523546356E+02 -0.49986714505E+02 -0.13050322190E+03  0.14496146446E+03  0.00000000000E+00 0.  1.
</event>
<event>
 7    1  0.2855090E-009  0.7325850E+02  0.7561462E-02  0.1349350E+00
         -2   -1    0    0    0  501 -0.00000000000E+00  0.00000000000E+00  0.14782164931E+03  0.14782164931E+03  0.00000000000E+00 0.  1.
          2   -1    0    0  501    0  0.00000000000E+00 -0.00000000000E+00 -0.10711549164E+03  0.10711549164E+03  0.00000000000E+00 0. -1.
         25    2    1    2    0    0 -0.53144401328E+02  0.30388917775E+02  0.41392812594E+02  0.14531279920E+03  0.12511846770E+03 0.  0.
          5    1    3    3  502    0 -0.47451850090E+02  0.48612780698E+01 -0.38311166432E+02  0.61323143876E+02  0.41800000000E+01 0.  1.
         -5    1    3    3    0  502 -0.56925512383E+01  0.25527639705E+02  0.79703979026E+02  0.83989655322E+02  0.41800000000E+01 0.  1.
        -11    1    1    2    0    0  0.16594579005E+02 -0.31474770841E+02  0.40924584135E+02  0.54229722832E+02  0.00000000000E+00 0.  1.
         11    1    1    2    0    0  0.36549822324E+02  0.10858530661E+01 -0.41611239060E+02  0.55394618917E+02  0.00000000000E+00 0. -1.
</event>
<event>
 7    1  0.2855090E-009  0.9630046E+02  0.7561462E-02  0.1288274E+00
         -2   -1    0    0    0  501 -0.00000000000E+00  0.00000000000E+00  0.65706460635E+02  0.65706460635E+02  0.00000000000E+00 0.  1.
          2   -1    0    0  501    0  0.00000000000E+00 -0.00000000000E+00 -0.21260928270E+03  0.21260928270E+03  0.00000000000E+00 0. -1.
         25    2    1    2    0    0 -0.65573664876E+01 -0.46772090019E+02 -0.92925229283E+02  0.16283614434E+03  0.12509949723E+03 0.  0.
          5    1    3    3  502    0 -0.55317559683E+02 -0.21179739530E+02 -0.57753405080E+01  0.59661048715E+02  0.41800000000E+01 0. -1.
         -5    1    3    3    0  502  0.48760193195E+02 -0.25592350489E+02 -0.87149888775E+02  0.10317509563E+03  0.41800000000E+01 0. -1.
        -11    1    1    2    0    0 -0.27235149009E+02  0.12859394753E+02  0.13285603652E+02  0.32918454389E+02  0.00000000000E+00 0.  1.
         11    1    1    2    0    0  0.33792515497E+02  0.33912695266E+02 -0.67263196433E+02  0.82561144603E+02  0.00000000000E+00 0. -1.
</event>
<event>
 7    1  0.2855090E-009  0.1032150E+03  0.7561462E-02  0.1273677E+00
         -2   -1    0    0    0  501 -0.00000000000E+00  0.00000000000E+00  0.10046847363E+03  0.10046847363E+03  0.00000000000E+00 0.  1.
          2   -1    0    0  501    0  0.00000000000E+00 -0.00000000000E+00 -0.12753447261E+03  0.12753447261E+03  0.00000000000E+00 0. -1.
         25    2    1    2    0    0  0.55047316614E+01 -0.32656583933E+02 -0.17642113924E+02  0.13059700738E+03  0.12509028583E+03 0.  0.
          5    1    3    3  502    0 -0.39125172664E+02  0.23639215149E+02  0.19195127783E+02  0.49754567222E+02  0.41800000000E+01 0.  1.
         -5    1    3    3    0  502  0.44629904326E+02 -0.56295799083E+02 -0.36837241707E+02  0.80842440160E+02  0.41800000000E+01 0.  1.
        -11    1    1    2    0    0  0.48624599319E+01 -0.27294588676E+02  0.15378321465E+02  0.31703798805E+02  0.00000000000E+00 0.  1.
         11    1    1    2    0    0 -0.10367191593E+02  0.59951172609E+02 -0.24802206523E+02  0.65702140050E+02  0.00000000000E+00 0. -1.
</event>
<event>
 7    1  0.2855090E-009  0.1800434E+03  0.7561462E-02  0.1167761E+00
         -1   -1    0    0    0  501 -0.00000000000E+00  0.00000000000E+00  0.13592578406E+03  0.13592578406E+03  0.00000000000E+00 0.  1.
          1   -1    0    0  501    0  0.00000000000E+00 -0.00000000000E+00 -0.27246339702E+03  0.27246339702E+03  0.00000000000E+00 0. -1.
         25    2    1    2    0    0 -0.14541617214E+03 -0.37272432487E+02 -0.12669520340E+03  0.23288387670E+03  0.12509247828E+03 0.  0.
          5    1    3    3  502    0 -0.79268768236E+02 -0.82576492688E+02 -0.83246197291E+02  0.14159737471E+03  0.41800000000E+01 0.  1.
         -5    1    3    3    0  502 -0.66147403901E+02  0.45304060202E+02 -0.43449006110E+02  0.91286501990E+02  0.41800000000E+01 0.  1.
        -11    1    1    2    0    0  0.15216615773E+03  0.29557097430E+02 -0.25195369898E+02  0.15704447851E+03  0.00000000000E+00 0. -1.
         11    1    1    2    0    0 -0.67499855899E+01  0.77153350568E+01  0.15352960342E+02  0.18460825869E+02  0.00000000000E+00 0.  1.
</event>
<event>
 7    1  0.2855090E-009  0.1436066E+03  0.7561462E-02  0.1208557E+00
          1   -1    0    0  501    0  0.00000000000E+00  0.00000000000E+00  0.73654272872E+03  0.73654272872E+03  0.00000000000E+00 0. -1.
         -1   -1    0    0    0  501 -0.00000000000E+00 -0.00000000000E+00 -0.33037541982E+02  0.33037541982E+02  0.00000000000E+00 0.  1.
         25    2    1    2    0    0 -0.93800298791E+02 -0.62362625394E+02  0.38166889784E+03  0.41714061642E+03  0.12509018022E+03 0.  0.
          5    1    3    3  502    0  0.30881321897E+02 -0.14816099431E+02  0.68424704380E+02  0.76632795942E+02  0.41800000000E+01 0.  1.
         -5    1    3    3    0  502 -0.12468162069E+03 -0.47546525963E+02  0.31324419346E+03  0.34050782047E+03  0.41800000000E+01 0.  1.
        -11    1    1    2    0    0  0.24745028237E+02 -0.19703687842E+01  0.10220303915E+02  0.26844988130E+02  0.00000000000E+00 0.  1.
         11    1    1    2    0    0  0.69055270554E+02  0.64332994178E+02  0.31161598498E+03  0.32559466616E+03  0.00000000000E+00 0. -1.
</event>
<event>
 7    1  0.2855090E-009  0.8032217E+02  0.7561462E-02  0.1328140E+00
          1   -1    0    0  501    0  0.00000000000E+00  0.00000000000E+00  0.58073115517E+02  0.58073115517E+02  0.00000000000E+00 0. -1.
         -1   -1    0    0    0  501 -0.00000000000E+00 -0.00000000000E+00 -0.22099229734E+03  0.22099229734E+03  0.00000000000E+00 0.  1.
         25    2    1    2    0    0  0.13231471395E+02 -0.44468819712E-01 -0.57243778443E+02  0.13819853066E+03  0.12508760887E+03 0.  0.
          5    1    3    3  502    0  0.40194275261E+02  0.61726641431E+01 -0.87747598699E+02  0.96802866816E+02  0.41800000000E+01 0.  1.
         -5    1    3    3    0  502 -0.26962803866E+02 -0.62171329628E+01  0.30503820256E+02  0.41395663841E+02  0.41800000000E+01 0.  1.
        -11    1    1    2    0    0  0.25751495261E+02 -0.32171266202E+02 -0.59560026755E+02  0.72426008203E+02  0.00000000000E+00 0.  1.
         11    1    1    2    0    0 -0.38982966656E+02  0.32215735021E+02 -0.46115376623E+02  0.68440873996E+02  0.00000000000E+00 0. -1.
</event>
<event>
 7    1  0.2855090E-009  0.1660571E+03  0.7561462E-02  0.1182023E+00
         -1   -1    0    0    0  501 -0.00000000000E+00  0.00000000000E+00  0.14141333309E+03  0.14141333309E+03  0.00000000000E+00 0.  1.
          1   -1    0    0  501    0  0.00000000000E+00 -0.00000000000E+00 -0.22235141690E+03  0.22235141690E+03  0.00000000000E+00 0. -1.
         25    2    1    2    0    0  0.16685869763E+02  0.13451586682E+03 -0.76073856313E+02  0.19951819624E+03  0.12508933744E+03 0.  0.
          5    1    3    3  502    0  0.47110308949E+01 -0.24280476090E+02 -0.86249200025E+01  0.26525402472E+02  0.41800000000E+01 0. -1.
         -5    1    3    3    0  502  0.11974838868E+02  0.15879634291E+03 -0.67448936310E+02  0.17299279377E+03  0.41800000000E+01 0. -1.
        -11    1    1    2    0    0 -0.30736407430E+02 -0.32436155392E+02  0.31832738181E+02  0.54864871625E+02  0.00000000000E+00 0.  1.
         11    1    1    2    0    0  0.14050537667E+02 -0.10207971143E+03 -0.36696965671E+02  0.10938168212E+03  0.00000000000E+00 0. -1.
</event>
<event>
 7    1  0.2855090E-009  0.1248731E+03  0.7561462E-02  0.1235268E+00
          2   -1    0    0  501    0  0.00000000000E+00  0.00000000000E+00  0.56039665534E+03  0.56039665534E+03  0.00000000000E+00 0. -1.
         -2   -1    0    0    0  501 -0.00000000000E+00 -0.00000000000E+00 -0.45693706139E+02  0.45693706139E+02  0.00000000000E+00 0.  1.
         25    2    1    2    0    0 -0.31569670386E+02 -0.53390555616E+02  0.95089303061E+02  0.16893162672E+03  0.12509485773E+03 0.  0.
          5    1    3    3  502    0 -0.71296754701E+02 -0.55643303190E+02  0.35696806425E+02  0.97319776046E+02  0.41800000000E+01 0.  1.
         -5    1    3    3    0  502  0.39727084315E+02  0.22527475740E+01  0.59392496636E+02  0.71611850670E+02  0.41800000000E+01 0.  1.
        -11    1    1    2    0    0  0.39414680039E+02  0.81223846960E+02  0.26760495911E+03  0.28242387374E+03  0.00000000000E+00 0. -1.
         11    1    1    2    0    0 -0.78450096531E+01 -0.27833291344E+02  0.15200868703E+03  0.15473486103E+03  0.00000000000E+00 0.  1.
</event>
<event>
 7    1  0.2855090E-009  0.1098005E+03  0.7561462E-02  0.1260940E+00
          2   -1    0    0  501    0  0.00000000000E+00  0.00000000000E+00  0.29544716761E+02  0.29544716761E+02  0.00000000000E+00 0.  1.
         -2   -1    0    0    0  501 -0.00000000000E+00 -0.00000000000E+00 -0.73004727676E+03  0.73004727676E+03  0.00000000000E+00 0. -1.
         25    2    1    2    0    0 -0.83131319375E+02  0.24489389894E+02 -0.50392682816E+03  0.52640229296E+03  0.12508628787E+03 0.  0.
          5    1    3    3  502    0 -0.86903840293E+02  0.30785275145E+02 -0.17923180782E+03  0.20159743043E+03  0.41800000000E+01 0. -1.
         -5    1    3    3    0  502  0.37725209178E+01 -0.62958852503E+01 -0.32469502034E+03  0.32480486253E+03  0.41800000000E+01 0. -1.
        -11    1    1    2    0    0 -0.82010605307E+01  0.16752477252E+02 -0.66039326198E+02  0.68622849639E+02  0.00000000000E+00 0. -1.
         11    1    1    2    0    0  0.91332379906E+02 -0.41241867147E+02 -0.13053640564E+03  0.16456685092E+03  0.00000000000E+00 0.  1.
</event>
<event>
 7    1  0.2855090E-009  0.9282435E+02  0.7561462E-02  0.1296153E+00
          2   -1    0    0  501    0  0.00000000000E+00  0.00000000000E+00  0.10732757914E+04  0.10732757914E+04  0.00000000000E+00 0. -1.
         -2   -1    0    0    0  501 -0.00000000000E+00 -0.00000000000E+00 -0.11834423660E+02  0.11834423660E+02  0.00000000000E+00 0.  1.
         25    2    1    2    0    0 -0.43407292765E+02  0.53522300088E+02  0.84186770767E+03  0.85389577649E+03  0.12509168730E+03 0.  0.
          5    1    3    3  502    0 -0.13376771516E+02 -0.27056256632E+02  0.59916928005E+02  0.67219712143E+02  0.41800000000E+01 0.  1.
         -5    1    3    3    0  502 -0.30030521249E+02  0.80578556720E+02  0.78195077966E+03  0.78667606435E+03  0.41800000000E+01 0.  1.
        -11    1    1    2    0    0  0.26426140302E+02 -0.28747131299E+02  0.88303026347E+02  0.96551348573E+02  0.00000000000E+00 0.  1.
         11    1    1    2    0    0  0.16981152463E+02 -0.24775168788E+02  0.13127063371E+03  0.13466308998E+03  0.00000000000E+00 0. -1.
</event>
<event>
 7    1  0.2855090E-009  0.9411559E+02  0.7561462E-02  0.1293181E+00
         -1   -1    0    0    0  501 -0.00000000000E+00  0.00000000000E+00  0.28569179375E+03  0.28569179375E+03  0.00000000000E+00 0.  1.
          1   -1    0    0  501    0  0.00000000000E+00 -0.00000000000E+00 -0.63119799485E+02  0.63119799485E+02  0.00000000000E+00 0. -1.
         25    2    1    2    0    0 -0.11656933610E+02  0.63129862910E+02  0.62825804254E+02  0.15400141945E+03  0.12509233317E+03 0.  0.
          5    1    3    3  502    0  0.21679949911E+02  0.23019796214E+02 -0.32325598661E+02  0.45413081537E+02  0.41800000000E+01 0. -1.
         -5    1    3    3    0  502 -0.33336883521E+02  0.40110066697E+02  0.95151402915E+02  0.10858833791E+03  0.41800000000E+01 0. -1.
        -11    1    1    2    0    0  0.43927337635E+02 -0.15707543465E+02  0.10764680949E+03  0.11732081446E+03  0.00000000000E+00 0.  1.
         11    1    1    2    0    0 -0.32270404025E+02 -0.47422319445E+02  0.52099380520E+02  0.77489359322E+02  0.00000000000E+00 0. -1.
</event>
<event>
 7    1  0.2855090E-009  0.1240141E+03  0.7561462E-02  0.1236618E+00
         -2   -1    0    0    0  501 -0.00000000000E+00  0.00000000000E+00  0.21333993242E+02  0.21333993242E+02  0.00000000000E+00 0.  1.
          2   -1    0    0  501    0  0.00000000000E+00 -0.00000000000E+00 -0.93187841112E+03  0.93187841112E+03  0.00000000000E+00 0. -1.
         25    2    1    2    0    0  0.18114350793E+02  0.84649926709E+02 -0.56443279856E+03  0.58457287206E+03  0.12508924355E+03 0.  0.
          5    1    3    3  502    0 -0.41706486060E+02  0.66710859832E+02 -0.20285763648E+03  0.21761999650E+03  0.41800000000E+01 0. -1.
         -5    1    3    3    0  502  0.59820836852E+02  0.17939066877E+02 -0.36157516208E+03  0.36695287555E+03  0.41800000000E+01 0. -1.
        -11    1    1    2    0    0 -0.34815867972E+02 -0.20590424918E+02 -0.24133506053E+03  0.24470129076E+03  0.00000000000E+00 0. -1.
         11    1    1    2    0    0  0.16701517179E+02 -0.64059501791E+02 -0.10477655879E+03  0.12393824154E+03  0.00000000000E+00 0.  1.
</event>
<event>
 7    1  0.2855090E-009  0.1085713E+03  0.7561462E-02  0.1263239E+00
         -2   -1    0    0    0  501 -0.00000000000E+00  0.00000000000E+00  0.12627497965E+03  0.12627497965E+03  0.00000000000E+00 0.  1.
          2   -1    0    0  501    0  0.00000000000E+00 -0.00000000000E+00 -0.12257501491E+03  0.12257501491E+03  0.00000000000E+00 0. -1.
         25    2    1    2    0    0  0.46145769171E+02 -0.22821712654E+02  0.34946194772E+02  0.13971066719E+03  0.12509025309E+03 0.  0.
          5    1    3    3  502    0 -0.29838865384E+02  0.12982586497E+02 -0.20767834256E+02  0.38828865283E+02  0.41800000000E+01 0.  1.
         -5    1    3    3    0  502  0.75984634555E+02 -0.35804299151E+02  0.55714029027E+02  0.10088180191E+03  0.41800000000E+01 0.  1.
        -11    1    1    2    0    0  0.24350046637E+01  0.46238678222E+02 -0.30044052325E+02  0.55195920969E+02  0.00000000000E+00 0. -1.
         11    1    1    2    0    0 -0.48580773835E+02 -0.23416965568E+02 -0.12021777140E+01  0.53943406400E+02  0.00000000000E+00 0.  1.
</event>
<event>
 7    1  0.2855090E-009  0.1040675E+03  0.7561462E-02  0.1271968E+00
          2   -1    0    0  501    0  0.00000000000E+00  0.00000000000E+00  0.40454770469E+03  0.40454770469E+03  0.00000000000E+00 0. -1.
         -2   -1    0    0    0  501 -0.00000000000E+00 -0.00000000000E+00 -0.34885255016E+02  0.34885255016E+02  0.00000000000E+00 0.  1.
         25    2    1    2    0    0  0.24554059396E+01 -0.35016398868E+02  0.27681671094E+03  0.30578869624E+03  0.12508820122E+03 0.  0.
          5    1    3    3  502    0  0.35750951631E+02  0.24711742695E+02  0.19127315867E+03  0.19619300293E+03  0.41800000000E+01 0.  1.
         -5    1    3    3    0  502 -0.33295545692E+02 -0.59728141563E+02  0.85543552269E+02  0.10959569331E+03  0.41800000000E+01 0.  1.
        -11    1    1    2    0    0 -0.86596564781E+01 -0.29707683467E+02  0.33625082158E+02  0.45696632890E+02  0.00000000000E+00 0.  1.
         11    1    1    2    0    0  0.62042505385E+01  0.64724082335E+02  0.59220656574E+02  0.87947630576E+02  0.00000000000E+00 0. -1.
</event>
<event>
 7    1  0.2855090E-009  0.1064715E+03  0.7561462E-02  0.1267247E+00
         -2   -1    0    0    0  501 -0.00000000000E+00  0.00000000000E+00  0.19840247473E+03  0.19840247473E+03  0.00000000000E+00 0.  1.
          2   -1    0    0  501    0  0.00000000000E+00 -0.00000000000E+00 -0.85096500191E+02  0.85096500191E+02  0.00000000000E+00 0. -1.
         25    2    1    2    0    0 -0.16247449941E+02 -0.51864799172E+02  0.19603216114E+02  0.13779497286E+03  0.12509688821E+03 0.  0.
          5    1    3    3  502    0 -0.47977180459E+02 -0.99835509452E+01  0.55398029328E+02  0.74080329290E+02  0.41800000000E+01 0. -1.
         -5    1    3    3    0  502  0.31729730518E+02 -0.41881248227E+02 -0.35794813214E+02  0.63714643567E+02  0.41800000000E+01 0. -1.
        -11    1    1    2    0    0  0.13014388574E+02  0.80847421718E+02  0.62656706623E+02  0.10310937297E+03  0.00000000000E+00 0. -1.
         11    1    1    2    0    0  0.32330613669E+01 -0.28982622546E+02  0.31046051801E+02  0.42594629096E+02  0.00000000000E+00 0.  1.
</event>
<event>
 7    1  0.2855090E-009  0.1055825E+03  0.7561462E-02  0.1268976E+00
          1   -1    0    0  501    0  0.00000000000E+00  0.00000000000E+00  0.70563360766E+02  0.70563360766E+02  0.00000000000E+00 0.  1.
         -1   -1    0    0    0  501 -0.00000000000E+00 -0.00000000000E+00 -0.25155239751E+03  0.25155239751E+03  0.00000000000E+00 0. -1.
         25    2    1    2    0    0  0.65846524415E+02  0.36835632826E+02 -0.12040060911E+03  0.18930522362E+03  0.12509009711E+03 0.  0.
          5    1    3    3  502    0  0.53277237054E+02 -0.86003253572E+00  0.87105625678E+01  0.54153023409E+02  0.41800000000E+01 0.  1.
         -5    1    3    3    0  502  0.12569287361E+02  0.37695665362E+02 -0.12911117167E+03  0.13515220021E+03  0.41800000000E+01 0.  1.
        -11    1    1    2    0    0  0.22982119313E+02 -0.88792983322E+01 -0.82265446213E+01  0.25974906802E+02  0.00000000000E+00 0.  1.
         11    1    1    2    0    0 -0.88828643728E+02 -0.27956334494E+02 -0.52361883017E+02  0.10683562785E+03  0.00000000000E+00 0. -1.
</event>
<event>
 7    1  0.2855090E-009  0.9526070E+02  0.7561462E-02  0.1290590E+00
          1   -1    0    0  501    0  0.00000000000E+00  0.00000000000E+00  0.12068053983E+03  0.12068053983E+03  0.00000000000E+00 0. -1.
         -1   -1    0    0    0  501 -0.00000000000E+00 -0.00000000000E+00 -0.17042774905E+03  0.17042774905E+03  0.00000000000E+00 0.  1.
         25    2    1    2    0    0 -0.65521651295E+02 -0.22379008625E+02  0.34677812334E+02  0.14711718236E+03  0.12508800047E+03 0.  0.
          5    1    3    3  502    0 -0.82919892782E+02 -0.37859620303E+02  0.62494537633E+02  0.11059882053E+03  0.41800000000E+01 0. -1.
         -5    1    3    3    0  502  0.17398241486E+02  0.15480611679E+02 -0.27816725298E+02  0.36518361835E+02  0.41800000000E+01 0. -1.
        -11    1    1    2    0    0  0.58940077042E+02  0.75939900580E+01 -0.14420791511E+01  0.59444772344E+02  0.00000000000E+00 0. -1.
         11    1    1    2    0    0  0.65815742529E+01  0.14785018567E+02 -0.82982942399E+02  0.84546334177E+02  0.00000000000E+00 0.  1.
</event>
<event>
 7    1  0.2855090E-009  0.9874364E+02  0.7561462E-02  0.1282960E+00
         -1   -1    0    0    0  501 -0.00000000000E+00  0.00000000000E+00  0.23285474287E+02  0.23285474287E+02  0.00000000000E+00 0.  1.
          1   -1    0    0  501    0  0.00000000000E+00 -0.00000000000E+00 -0.72256530544E+03  0.72256530544E+03  0.00000000000E+00 0. -1.
         25    2    1    2    0    0  0.68636224086E+02 -0.16463930403E+02 -0.43697690063E+03  0.45997608632E+03  0.12508875266E+03 0.  0.
          5    1    3    3  502    0 -0.97851052499E+01 -0.37504047362E+02 -0.28467704947E+03  0.28733394639E+03  0.41800000000E+01 0.  1.
         -5    1    3    3    0  502  0.78421329336E+02  0.21040116958E+02 -0.15229985116E+03  0.17264213993E+03  0.41800000000E+01 0.  1.
        -11    1    1    2    0    0 -0.35938508646E+02 -0.74357028565E+01 -0.23315318620E+02  0.43479537291E+02  0.00000000000E+00 0.  1.
         11    1    1    2    0    0 -0.32697715440E+02  0.23899633260E+02 -0.23898761190E+03  0.24239515611E+03  0.00000000000E+00 0. -1.
</event>
<event>
 7    1  0.2855090E-009  0.1232200E+03  0.7561462E-02  0.1237878E+00
         -1   -1    0    0    0  501 -0.00000000000E+00  0.00000000000E+00  0.21421711226E+03  0.21421711226E+03  0.00000000000E+00 0.  1.
          1   -1    0    0  501    0  0.00000000000E+00 -0.00000000000E+00 -0.13157628972E+03  0.13157628972E+03  0.00000000000E+00 0. -1.
         25    2    1    2    0    0 -0.72999021933E+02 -0.47967343201E+01 -0.63756862503E+02  0.15831797141E+03  0.12509107359E+03 0.  0.
          5    1    3    3  502    0 -0.88072392388E+02 -0.38906439538E+02 -0.71501675834E+02  0.12000174743E+03  0.41800000000E+01 0. -1.
         -5    1    3    3    0  502  0.15073370455E+02  0.34109705218E+02  0.77448133309E+01  0.38316223985E+02  0.41800000000E+01 0. -1.
        -11    1    1    2    0    0  0.94463113055E+01  0.39166486272E+02  0.29056538145E+02  0.49674227253E+02  0.00000000000E+00 0.  1.
         11    1    1    2    0    0  0.63552710628E+02 -0.34369751952E+02  0.11734114690E+03  0.13780120331E+03  0.00000000000E+00 0. -1.
</event>
<event>
 7    1  0.2855090E-009  0.1845347E+03  0.7561462E-02  0.1163485E+00
         -1   -1    0    0    0  501 -0.00000000000E+00  0.00000000000E+00  0.25156084502E+03  0.25156084502E+03  0.00000000000E+00 0.  1.
          1   -1    0    0  501    0  0.00000000000E+00 -0.00000000000E+00 -0.26246487233E+03  0.26246487233E+03  0.00000000000E+00 0. -1.
         25    2    1    2    0    0  0.13983676786E+03 -0.67105345656E+02  0.16759756973E+03  0.26037158441E+03  0.12508783924E+03 0.  0.
          5    1    3    3  502    0  0.13176338861E+03 -0.61686449365E+01  0.14140758733E+03  0.19342497490E+03  0.41800000000E+01 0.  1.
         -5    1    3    3    0  502  0.80733792531E+01 -0.60936700719E+02  0.26189982394E+02  0.66946609510E+02  0.41800000000E+01 0.  1.
        -11    1    1    2    0    0 -0.47737573989E+02  0.68357827972E+02 -0.11387598365E+03  0.14113613381E+03  0.00000000000E+00 0.  1.
         11    1    1    2    0    0 -0.92099193872E+02 -0.12524823163E+01 -0.64625613384E+02  0.11251799913E+03  0.00000000000E+00 0. -1.
</event>
<event>
 7    1  0.2855090E-009  0.8911937E+02  0.7561462E-02  0.1304998E+00
         -1   -1    0    0    0  501 -0.00000000000E+00  0.00000000000E+00  0.14605022483E+02  0.14605022483E+02  0.00000000000E+00 0.  1.
          1   -1    0    0  501    0  0.00000000000E+00 -0.00000000000E+00 -0.10333043711E+04  0.10333043711E+04  0.00000000000E+00 0. -1.
         25    2    1    2    0    0 -0.49835478380E+02 -0.10018690317E+01 -0.69608264679E+03  0.70898651551E+03  0.12508496854E+03 0.  0.
          5    1    3    3  502    0  0.36172880493E+01  0.17862606405E+02 -0.57418120625E+03  0.57448558510E+03  0.41800000000E+01 0.  1.
         -5    1    3    3    0  502 -0.53452766430E+02 -0.18864475437E+02 -0.12190144055E+03  0.13450093040E+03  0.41800000000E+01 0.  1.
        -11    1    1    2    0    0  0.67764602482E+02  0.25448881963E+02 -0.24899741097E+03  0.25930560659E+03  0.00000000000E+00 0. -1.
         11    1    1    2    0    0 -0.17929124102E+02 -0.24447012932E+02 -0.73619290864E+02  0.79617271491E+02  0.00000000000E+00 0.  1.
</event>
<event>
 7    1  0.2855090E-009  0.1116039E+03  0.7561462E-02  0.1257628E+00
         -1   -1    0    0    0  501 -0.00000000000E+00  0.00000000000E+00  0.70522089316E+03  0.70522089316E+03  0.00000000000E+00 0.  1.
          1   -1    0    0  501    0  0.00000000000E+00 -0.00000000000E+00 -0.24629224012E+02  0.24629224012E+02  0.00000000000E+00 0. -1.
         25    2    1    2    0    0 -0.71024013959E+01  0.54360736554E+02  0.49076223517E+03  0.50941212041E+03  0.12509038000E+03 0.  0.
          5    1    3    3  502    0  0.49932488849E+02  0.20636749029E+02  0.34515702966E+03  0.34938514046E+03  0.41800000000E+01 0.  1.
         -5    1    3    3    0  502 -0.57034890245E+02  0.33723987525E+02  0.14560520551E+03  0.16002697995E+03  0.41800000000E+01 0.  1.
        -11    1    1    2    0    0  0.24831866130E+02 -0.72876625545E+02  0.17409409855E+03  0.19035855451E+03  0.00000000000E+00 0. -1.
         11    1    1    2    0    0 -0.17729464734E+02  0.18515888990E+02  0.15735335427E+02  0.30079442247E+02  0.00000000000E+00 0.  1.
</event>
<event>
 7    1  0.2855090E-009  0.1156974E+03  0.7561462E-02  0.1250369E+00
         -1   -1    0    0    0  501 -0.00000000000E+00  0.00000000000E+00  0.20274600059E+03  0.20274600059E+03  0.00000000000E+00 0.  1.
          1   -1    0    0  501    0  0.00000000000E+00 -0.00000000000E+00 -0.10335834088E+03  0.10335834088E+03  0.00000000000E+00 0. -1.
         25    2    1    2    0    0  0.68353275857E+02 -0.64364315009E+02  0.38700532519E+02  0.16112196099E+03  0.12509044620E+03 0.  0.
          5    1    3    3  502    0  0.81114812948E+02 -0.35181365911E+02 -0.23092756445E+02  0.91477260493E+02  0.41800000000E+01 0. -1.
         -5    1    3    3    0  502 -0.12761537092E+02 -0.29182949098E+02  0.61793288964E+02  0.69644700502E+02  0.41800000000E+01 0. -1.
        -11    1    1    2    0    0 -0.36346682351E+01  0.42186510590E+02 -0.13135866023E+02  0.44333547851E+02  0.00000000000E+00 0.  1.
         11    1    1    2    0    0 -0.64718607622E+02  0.22177804419E+02  0.73822993215E+02  0.10064883262E+03  0.00000000000E+00 0. -1.
</event>
<event>
 7    1  0.2855090E-009  0.1314154E+03  0.7561462E-02  0.1225371E+00
         -1   -1    0    0    0  501 -0.00000000000E+00  0.00000000000E+00  0.24768749718E+03  0.24768749718E+03  0.00000000000E+00 0.  1.
          1   -1    0    0  501    0  0.00000000000E+00 -0.00000000000E+00 -0.96898482666E+02  0.96898482666E+02  0.00000000000E+00 0. -1.
         25    2    1    2    0    0 -0.26447809144E+02  0.79901661631E+02  0.16107316907E+03  0.22062477332E+03  0.12508781982E+03 0.  0.
          5    1    3    3  502    0  0.12134533083E+00 -0.29329147206E+02  0.69571915835E+02  0.75617044861E+02  0.41800000000E+01 0. -1.
         -5    1    3    3    0  502 -0.26569154474E+02  0.10923080884E+03  0.91501253240E+02  0.14500772846E+03  0.41800000000E+01 0. -1.
        -11    1    1    2    0    0  0.44690618665E+02 -0.66015743545E+01  0.88615372585E+01  0.46036496644E+02  0.00000000000E+00 0.  1.
         11    1    1    2    0    0 -0.18242809522E+02 -0.73300087277E+02 -0.19145691822E+02  0.77924709877E+02  0.00000000000E+00 0. -1.
</event>
<event>
 7    1  0.2855090E-009  0.1013861E+03  0.7561462E-02  0.1277408E+00
          2   -1    0    0  501    0  0.00000000000E+00  0.00000000000E+00  0.50206829599E+03  0.50206829599E+03  0.00000000000E+00 0. -1.
         -2   -1    0    0    0  501 -0.00000000000E+00 -0.00000000000E+00 -0.42927735215E+02  0.42927735215E+02  0.00000000000E+00 0.  1.
         25    2    1    2    0    0  0.46885705692E+02  0.27679949571E+02  0.40342668977E+03  0.42587462695E+03  0.12510657397E+03 0.  0.
          5    1    3    3  502    0 -0.36164971417E+02 -0.17999407294E+01  0.51739880400E+02  0.63290066899E+02  0.41800000000E+01 0. -1.
         -5    1    3    3    0  502  0.83050677109E+02  0.29479890301E+02  0.35168680937E+03  0.36258456005E+03  0.41800000000E+01 0. -1.
        -11    1    1    2    0    0 -0.55313544052E+02 -0.69885131757E+01 -0.34697215372E+01  0.55861135323E+02  0.00000000000E+00 0.  1.
         11    1    1    2    0    0  0.84278383600E+01 -0.20691436395E+02  0.59183592541E+02  0.63260268934E+02  0.00000000000E+00 0. -1.
</event>
<event>
 7    1  0.2855090E-009  0.7362006E+02  0.7561462E-02  0.1348198E+00
          1   -1    0    0  501    0  0.00000000000E+00  0.00000000000E+00  0.69700700111E+03  0.69700700111E+03  0.00000000000E+00 0. -1.
         -1   -1    0    0    0  501 -0.00000000000E+00 -0.00000000000E+00 -0.24107515972E+02  0.24107515972E+02  0.00000000000E+00 0.  1.
         25    2    1    2    0    0 -0.54121391197E+01  0.33101854912E+01  0.57268062110E+03  0.58621751449E+03  0.12509049499E+03 0.  0.
          5    1    3    3  502    0 -0.34112899611E+02  0.30343958646E+02  0.82070635519E+02  0.94008017534E+02  0.41800000000E+01 0. -1.
         -5    1    3    3    0  502  0.28700760491E+02 -0.27033773155E+02  0.49060998558E+03  0.49220949696E+03  0.41800000000E+01 0. -1.
        -11    1    1    2    0    0  0.42444825698E+01  0.29052470850E+02  0.98149775881E+02  0.10244725570E+03  0.00000000000E+00 0. -1.
         11    1    1    2    0    0  0.11676565499E+01 -0.32362656341E+02  0.20690881529E+01  0.32449746887E+02  0.00000000000E+00 0.  1.
</event>
<event>
 7    1  0.2855090E-009  0.1023522E+03  0.7561462E-02  0.1275426E+00
         -2   -1    0    0    0  501 -0.00000000000E+00  0.00000000000E+00  0.25532690755E+03  0.25532690755E+03  0.00000000000E+00 0.  1.
          2   -1    0    0  501    0  0.00000000000E+00 -0.00000000000E+00 -0.45548849005E+02  0.45548849005E+02  0.00000000000E+00 0. -1.
         25    2    1    2    0    0 -0.17010814789E+02 -0.68420862723E+01  0.11975253165E+03  0.17416454708E+03  0.12512569144E+03 0.  0.
          5    1    3    3  502    0  0.15895013765E+02  0.54186812863E+02  0.47134999106E+02  0.73675251554E+02  0.41800000000E+01 0.  1.
         -5    1    3    3    0  502 -0.32905828554E+02 -0.61028899136E+02  0.72617532541E+02  0.10048929552E+03  0.41800000000E+01 0.  1.
        -11    1    1    2    0    0  0.24997662287E+02 -0.31068496264E+02  0.15626384325E+02  0.42828944266E+02  0.00000000000E+00 0. -1.
         11    1    1    2    0    0 -0.79868474983E+01  0.37910582536E+02  0.74399142576E+02  0.83882265213E+02  0.00000000000E+00 0.  1.
</event>
<event>
 7    1  0.2855090E-009  0.2804906E+03  0.7561462E-02  0.1095421E+00
         -2   -1    0    0    0  501 -0.00000000000E+00  0.00000000000E+00  0.49963151013E+02  0.49963151013E+02  0.00000000000E+00 0.  1.
          2   -1    0    0  501    0  0.00000000000E+00 -0.00000000000E+00 -0.17685270998E+04  0.17685270998E+04  0.00000000000E+00 0. -1.
         25    2    1    2    0    0  0.17364890398E+03 -0.20868185291E+03 -0.10409341485E+04  0.10830019455E+04  0.12508898826E+03 0.  0.
          5    1    3    3  502    0  0.12845424764E+03 -0.18062616150E+03 -0.96537664815E+03  0.99050282643E+03  0.41800000000E+01 0.  1.
         -5    1    3    3    0  502  0.45194656335E+02 -0.28055691406E+02 -0.75557500335E+02  0.92499119122E+02  0.41800000000E+01 0.  1.
        -11    1    1    2    0    0  0.10821366463E+02  0.88560167912E+01 -0.32968414018E+02  0.35811273762E+02  0.00000000000E+00 0.  1.
         11    1    1    2    0    0 -0.18447027044E+03  0.19982583612E+03 -0.64466138632E+03  0.69967703154E+03  0.00000000000E+00 0. -1.
</event>
<event>
 7    1  0.2855090E-009  0.8692211E+02  0.7561462E-02  0.1310481E+00
          1   -1    0    0  501    0  0.00000000000E+00  0.00000000000E+00  0.38142730573E+03  0.38142730573E+03  0.00000000000E+00 0. -1.
         -1   -1    0    0    0  501 -0.00000000000E+00 -0.00000000000E+00 -0.54046000835E+02  0.54046000835E+02  0.00000000000E+00 0.  1.
         25    2    1    2    0    0  0.49065408380E+02 -0.54552188765E+02  0.28257459824E+03  0.31761584406E+03  0.12509222689E+03 0.  0.
          5    1    3    3  502    0 -0.11387246922E+02 -0.18695420394E+01  0.20695061296E+03  0.20731423778E+03  0.41800000000E+01 0.  1.
         -5    1    3    3    0  502  0.60452655302E+02 -0.52682646725E+02  0.75623985277E+02  0.11030160628E+03  0.41800000000E+01 0.  1.
        -11    1    1    2    0    0 -0.27036979292E+02  0.56230767682E+01  0.56546065776E+02  0.62929125183E+02  0.00000000000E+00 0. -1.
         11    1    1    2    0    0 -0.22028429088E+02  0.48929111996E+02 -0.11739359118E+02  0.54928337326E+02  0.00000000000E+00 0.  1.
</event>
<event>
 7    1  0.2855090E-009  0.8318444E+02  0.7561462E-02  0.1320250E+00
          1   -1    0    0  501    0  0.00000000000E+00  0.00000000000E+00  0.18553962363E+04  0.18553962363E+04  0.00000000000E+00 0. -1.
         -1   -1    0    0    0  501 -0.00000000000E+00 -0.00000000000E+00 -0.10784966109E+02  0.10784966109E+02  0.00000000000E+00 0.  1.
         25    2    1    2    0    0  0.26245037281E+02 -0.38659412865E+02  0.15853039630E+04  0.15909177911E+04  0.12508961098E+03 0.  0.
          5    1    3    3  502    0  0.34180507977E+02  0.11072700720E-02  0.14364880858E+04  0.14369007621E+04  0.41800000000E+01 0. -1.
         -5    1    3    3    0  502 -0.79354706955E+01 -0.38660520135E+02  0.14881587720E+03  0.15401702899E+03  0.41800000000E+01 0. -1.
        -11    1    1    2    0    0  0.23493144558E+02  0.35289416450E+02  0.12588183430E+03  0.13282886343E+03  0.00000000000E+00 0. -1.
         11    1    1    2    0    0 -0.49738181839E+02  0.33699964153E+01  0.13342547282E+03  0.14243454779E+03  0.00000000000E+00 0.  1.
</event>
<event>
 7    1  0.2855090E-009  0.8476083E+02  0.7561462E-02  0.1316059E+00
          1   -1    0    0  501    0  0.00000000000E+00  0.00000000000E+00  0.54369685981E+03  0.54369685981E+03  0.00000000000E+00 0. -1.
         -1   -1    0    0    0  501 -0.00000000000E+00 -0.00000000000E+00 -0.22149000848E+02  0.22149000848E+02  0.00000000000E+00 0.  1.
         25    2    1    2    0    0 -0.13498733793E+01 -0.42258385266E+01  0.34455888266E+03  0.36658928057E+03  0.12508875704E+03 0.  0.
          5    1    3    3  502    0 -0.17410891800E+02  0.35499987674E+02  0.30667470533E+03  0.30924138721E+03  0.41800000000E+01 0. -1.
         -5    1    3    3    0  502  0.16061018421E+02 -0.39725826201E+02  0.37884177330E+02  0.57347893353E+02  0.41800000000E+01 0. -1.
        -11    1    1    2    0    0  0.25397396863E+02  0.37721447431E+02  0.12425861374E+03  0.13231832244E+03  0.00000000000E+00 0.  1.
         11    1    1    2    0    0 -0.24047523484E+02 -0.33495608904E+02  0.52730362560E+02  0.66938257650E+02  0.00000000000E+00 0. -1.
</event>
<event>
 7    1  0.2855090E-009  0.1290175E+03  0.7561462E-02  0.1228921E+00
          1   -1    0    0  501    0  0.00000000000E+00  0.00000000000E+00  0.97204398944E+03  0.97204398944E+03  0.00000000000E+00 0. -1.
         -1   -1    0    0    0  501 -0.00000000000E+00 -0.00000000000E+00 -0.19794757794E+02  0.19794757794E+02  0.00000000000E+00 0.  1.
         25    2    1    2    0    0  0.73795756213E+02  0.29453398751E+02  0.63195401460E+03  0.64909728525E+03  0.12509233714E+03 0.  0.
          5    1    3    3  502    0  0.71786222716E+02 -0.29016503300E+02  0.47987595237E+03  0.48610042306E+03  0.41800000000E+01 0. -1.
         -5    1    3    3    0  502  0.20095334971E+01  0.58469902051E+02  0.15207806223E+03  0.16299686219E+03  0.41800000000E+01 0. -1.
        -11    1    1    2    0    0 -0.80279442413E+02  0.10857930629E+02  0.22097664827E+03  0.23535794572E+03  0.00000000000E+00 0.  1.
         11    1    1    2    0    0  0.64836861996E+01 -0.40311329380E+02  0.99318568765E+02  0.10738351626E+03  0.00000000000E+00 0. -1.
</event>
<event>
 7    1  0.2855090E-009  0.1296332E+03  0.7561462E-02  0.1228001E+00
          1   -1    0    0  501    0  0.00000000000E+00  0.00000000000E+00  0.38591478623E+03  0.38591478623E+03  0.00000000000E+00 0. -1.
         -1   -1    0    0    0  501 -0.00000000000E+00 -0.00000000000E+00 -0.83044661516E+02  0.83044661516E+02  0.00000000000E+00 0.  1.
         25    2    1    2    0    0 -0.12423378777E+03 -0.10278953499E+02  0.24883020744E+03  0.30512894818E+03  0.12509001549E+03 0.  0.
          5    1    3    3  502    0 -0.11089014640E+03  0.52880322372E+01  0.84777736482E+02  0.13974736082E+03  0.41800000000E+01 0. -1.
         -5    1    3    3    0  502 -0.13343641367E+02 -0.15566985736E+02  0.16405247096E+03  0.16538158736E+03  0.41800000000E+01 0. -1.
        -11    1    1    2    0    0  0.87213073679E+02  0.18894784664E+02 -0.95505388786E+01  0.89746007716E+02  0.00000000000E+00 0.  1.
         11    1    1    2    0    0  0.37020714091E+02 -0.86158311657E+01  0.63590456154E+02  0.74084491848E+02  0.00000000000E+00 0. -1.
</event>
<event>
 7    1  0.2855090E-009  0.1576761E+03  0.7561462E-02  0.1191346E+00
          2   -1    0    0  501    0  0.00000000000E+00  0.00000000000E+00  0.54152450994E+03  0.54152450994E+03  0.00000000000E+00 0. -1.
         -2   -1    0    0    0  501 -0.00000000000E+00 -0.00000000000E+00 -0.52218402491E+02  0.52218402491E+02  0.00000000000E+00 0.  1.
         25    2    1    2    0    0 -0.11661564586E+03 -0.14665698965E+02  0.16972223898E+03  0.24138675929E+03  0.12509051750E+03 0.  0.
          5    1    3    3  502    0 -0.29366133229E+02 -0.61291905706E+02  0.97094472770E+02  0.11859121607E+03  0.41800000000E+01 0. -1.
         -5    1    3    3    0  502 -0.87249512634E+02  0.46626206741E+02  0.72627766209E+02  0.12279554322E+03  0.41800000000E+01 0. -1.
        -11    1    1    2    0    0  0.11175792485E+03 -0.19748918281E+02  0.25119028107E+03  0.27563818830E+03  0.00000000000E+00 0.  1.
         11    1    1    2    0    0  0.48577210107E+01  0.34414617246E+02  0.68393587400E+02  0.76717964852E+02  0.00000000000E+00 0. -1.
</event>
<event>
 7    1  0.2855090E-009  0.1068529E+03  0.7561462E-02  0.1266511E+00
         -2   -1    0    0    0  501 -0.00000000000E+00  0.00000000000E+00  0.63646719317E+02  0.63646719317E+02  0.00000000000E+00 0.  1.
          2   -1    0    0  501    0  0.00000000000E+00 -0.00000000000E+00 -0.20845964972E+03  0.20845964972E+03  0.00000000000E+00 0. -1.
         25    2    1    2    0    0 -0.19648770010E+01 -0.18018180380E+02 -0.45752860525E+02  0.13442263584E+03  0.12509038818E+03 0.  0.
          5    1    3    3  502    0 -0.15093277308E+02 -0.70409435164E+02 -0.23560690953E+02  0.75880657207E+02  0.41800000000E+01 0.  1.
         -5    1    3    3    0  502  0.13128400307E+02  0.52391254784E+02 -0.22192169571E+02  0.58541978638E+02  0.41800000000E+01 0.  1.
        -11    1    1    2    0    0 -0.41507553643E+02  0.38766005854E+01 -0.19722836940E+02  0.46118275537E+02  0.00000000000E+00 0.  1.
         11    1    1    2    0    0  0.43472430644E+02  0.14141579794E+02 -0.79337232940E+02  0.91565457656E+02  0.00000000000E+00 0. -1.
</event>
<event>
 6    1  0.2855090E-009  0.2019915E+03  0.7561462E-02  0.1148070E+00
         -2   -1    0    0    0  501 -0.00000000000E+00  0.00000000000E+00  0.76915588958E+02  0.76915588958E+02  0.00000000000E+00 0.  1.
          2   -1    0    0  501    0  0.00000000000E+00 -0.00000000000E+00 -0.56628778009E+03  0.56628778009E+03  0.00000000000E+00 0. -1.
          5    1    1    2  502    0 -0.17499712542E+02  0.49131485252E+02 -0.24970359087E+02  0.57975287969E+02  0.41800000000E+01 0. -1.
         -5    1    1    2    0  502 -0.15224343700E+03  0.31344822786E+01 -0.24723592488E+03  0.29039794083E+03  0.41800000000E+01 0. -1.
        -11    1    1    2    0    0  0.57383581388E+02 -0.64467981838E+02 -0.98202141140E+02  0.13073888717E+03  0.00000000000E+00 0.  1.
         11    1    1    2    0    0  0.11235956815E+03  0.12202014307E+02 -0.11896376602E+03  0.16409125307E+03  0.00000000000E+00 0. -1.
</event>
<event>
 7    1  0.2855090E-009  0.5557636E+02  0.7561462E-02  0.1417393E+00
          2   -1    0    0  501    0  0.00000000000E+00  0.00000000000E+00  0.31755600580E+03  0.31755600580E+03  0.00000000000E+00 0. -1.
         -2   -1    0    0    0  501 -0.00000000000E+00 -0.00000000000E+00 -0.38798621150E+02  0.38798621150E+02  0.00000000000E+00 0.  1.
         25    2    1    2    0    0  0.19316402599E+02 -0.86880625161E+01  0.12794810801E+03  0.18018625069E+03  0.12509100988E+03 0.  0.
          5    1    3    3  502    0  0.12105846024E+02 -0.25470289586E+02  0.14917349458E+03  0.15187327298E+03  0.41800000000E+01 0. -1.
         -5    1    3    3    0  502  0.72105565756E+01  0.16782227070E+02 -0.21225386572E+02  0.28312977708E+02  0.41800000000E+01 0. -1.
        -11    1    1    2    0    0 -0.44107661801E+01  0.34132856051E+02  0.14092491718E+03  0.14506667089E+03  0.00000000000E+00 0.  1.
         11    1    1    2    0    0 -0.14905636419E+02 -0.25444793535E+02  0.98843594560E+01  0.31101705371E+02  0.00000000000E+00 0. -1.
</event>
<event>
 6    1  0.2855090E-009  0.9174560E+02  0.7561462E-02  0.1298679E+00
         -1   -1    0    0    0  501 -0.00000000000E+00  0.00000000000E+00  0.23281929479E+02  0.23281929479E+02  0.00000000000E+00 0.  1.
          1   -1    0    0  501    0  0.00000000000E+00 -0.00000000000E+00 -0.41126960474E+03  0.41126960474E+03  0.00000000000E+00 0. -1.
          5    1    1    2  502    0  0.25431804398E+02  0.51353125102E+02 -0.17523213093E+03  0.18441174649E+03  0.41800000000E+01 0. -1.
         -5    1    1    2    0  502 -0.23195245425E+01 -0.66885567575E+02 -0.11828777890E+03  0.13597253540E+03  0.41800000000E+01 0. -1.
        -11    1    1    2    0    0  0.75292380453E+01  0.25631429812E+02 -0.65768215066E+02  0.70986743359E+02  0.00000000000E+00 0. -1.
         11    1    1    2    0    0 -0.30641517901E+02 -0.10098987339E+02 -0.28699550365E+02  0.43180508979E+02  0.00000000000E+00 0.  1.
</event>
<event>
 7    1  0.2855090E-009  0.1383895E+03  0.7561462E-02  0.1215513E+00
          2   -1    0    0  501    0  0.00000000000E+00  0.00000000000E+00  0.43954112118E+03  0.43954112118E+03  0.00000000000E+00 0. -1.
         -2   -1    0    0    0  501 -0.00000000000E+00 -0.00000000000E+00 -0.51383044364E+02  0.51383044364E+02  0.00000000000E+00 0.  1.
         25    2    1    2    0    0 -0.11743374156E+01 -0.10264139860E+03  0.23827264216E+03  0.28802277348E+03  0.12508649113E+03 0.  0.
          5    1    3    3  502    0 -0.60700130281E+02 -0.72282139522E+02  0.12963797081E+03  0.16041411841E+03  0.41800000000E+01 0. -1.
         -5    1    3    3    0  502  0.59525792866E+02 -0.30359259078E+02  0.10863467135E+03  0.12760865507E+03  0.41800000000E+01 0. -1.
        -11    1    1    2    0    0 -0.25324287044E+02  0.60231528714E+02  0.27867515328E+02  0.71033477855E+02  0.00000000000E+00 0.  1.
         11    1    1    2    0    0  0.26498624460E+02  0.42409869885E+02  0.12201791932E+03  0.13186791421E+03  0.00000000000E+00 0. -1.
</event>
<event>
 7    1  0.2855090E-009  0.2016377E+03  0.7561462E-02  0.1148365E+00
          1   -1    0    0  501    0  0.00000000000E+00  0.00000000000E+00  0.60627897204E+03  0.60627897204E+03  0.00000000000E+00 0. -1.
         -1   -1    0    0    0  501 -0.00000000000E+00 -0.00000000000E+00 -0.72706849791E+02  0.72706849791E+02  0.00000000000E+00 0.  1.
         25    2    1    2    0    0  0.11087217714E+03 -0.12932043214E+03  0.36999572910E+03  0.42609855162E+03  0.12508685904E+03 0.  0.
          5    1    3    3  502    0  0.68555914864E+02 -0.14888487783E+03  0.27431318205E+03  0.31958068552E+03  0.41800000000E+01 0.  1.
         -5    1    3    3    0  502  0.42316262273E+02  0.19564445691E+02  0.95682547054E+02  0.10651786610E+03  0.41800000000E+01 0.  1.
        -11    1    1    2    0    0 -0.61790962075E+02  0.88523063204E+01  0.60325387602E+02  0.86808056715E+02  0.00000000000E+00 0. -1.
         11    1    1    2    0    0 -0.49081215061E+02  0.12046812582E+03  0.10325100554E+03  0.16607921349E+03  0.00000000000E+00 0.  1.
</event>
<event>
 7    1  0.2855090E-009  0.1311110E+03  0.7561462E-02  0.1225816E+00
          2   -1    0    0  501    0  0.00000000000E+00  0.00000000000E+00  0.54574669258E+03  0.54574669258E+03  0.00000000000E+00 0. -1.
         -2   -1    0    0    0  501 -0.00000000000E+00 -0.00000000000E+00 -0.52457212173E+02  0.52457212173E+02  0.00000000000E+00 0.  1.
         25    2    1    2    0    0  0.63430947015E+02  0.10516519818E+03  0.29785626422E+03  0.34561411298E+03  0.12509019549E+03 0.  0.
          5    1    3    3  502    0 -0.68504503955E+00  0.40507218253E+02  0.22573458280E+03  0.22937933275E+03  0.41800000000E+01 0.  1.
         -5    1    3    3    0  502  0.64115992055E+02  0.64657979925E+02  0.72121681414E+02  0.11623478023E+03  0.41800000000E+01 0.  1.
        -11    1    1    2    0    0 -0.29952670464E+02 -0.87505429837E+02  0.56025824074E+02  0.10813535815E+03  0.00000000000E+00 0.  1.
         11    1    1    2    0    0 -0.33478276551E+02 -0.17659768341E+02  0.13940739212E+03  0.14445443363E+03  0.00000000000E+00 0. -1.
</event>
<event>
 7    1  0.2855090E-009  0.1036173E+03  0.7561462E-02  0.1272868E+00
          2   -1    0    0  501    0  0.00000000000E+00  0.00000000000E+00  0.67457423268E+03  0.67457423268E+03  0.00000000000E+00 0. -1.
         -2   -1    0    0    0  501 -0.00000000000E+00 -0.00000000000E+00 -0.27673837294E+02  0.27673837294E+02  0.00000000000E+00 0.  1.
         25    2    1    2    0    0  0.27111401708E+02 -0.78693653413E+02  0.39126683683E+03  0.41912357808E+03  0.12508843637E+03 0.  0.
          5    1    3    3  502    0  0.18566560443E+02 -0.26438112043E+02  0.35090479039E+03  0.35241358551E+03  0.41800000000E+01 0.  1.
         -5    1    3    3    0  502  0.85448412652E+01 -0.52255541370E+02  0.40362046439E+02  0.66709992571E+02  0.41800000000E+01 0.  1.
        -11    1    1    2    0    0  0.10952332591E+02 -0.16055774109E+02  0.35849830518E+02  0.40779306267E+02  0.00000000000E+00 0.  1.
         11    1    1    2    0    0 -0.38063734299E+02  0.94749427522E+02  0.21978372804E+03  0.24234518563E+03  0.00000000000E+00 0. -1.
</event>
<event>
 7    1  0.2855090E-009  0.8972641E+02  0.7561462E-02  0.1303516E+00
          1   -1    0    0  501    0  0.00000000000E+00  0.00000000000E+00  0.17769113503E+03  0.17769113503E+03  0.00000000000E+00 0. -1.
         -1   -1    0    0    0  501 -0.00000000000E+00 -0.00000000000E+00 -0.75606630211E+02  0.75606630211E+02  0.00000000000E+00 0.  1.
         25    2    1    2    0    0  0.29737435145E+02  0.29157347130E+02  0.61354757965E+02  0.14541577084E+03  0.12508746597E+03 0.  0.
          5    1    3    3  502    0  0.63085221668E+02  0.46398552858E+02  0.63350594965E+01  0.78677673320E+02  0.41800000000E+01 0.  1.
         -5    1    3    3    0  502 -0.33347786523E+02 -0.17241205728E+02  0.55019698469E+02  0.66738097520E+02  0.41800000000E+01 0.  1.
        -11    1    1    2    0    0  0.10945145274E+02  0.30580394241E+01  0.53291744601E+02  0.54489979380E+02  0.00000000000E+00 0. -1.
         11    1    1    2    0    0 -0.40682580418E+02 -0.32215386554E+02 -0.12561997750E+02  0.53392015019E+02  0.00000000000E+00 0.  1.
</event>
<event>
 7    1  0.2855090E-009  0.1258839E+03  0.7561462E-02  0.1233694E+00
         -3   -1    0    0    0  501 -0.00000000000E+00  0.00000000000E+00  0.28144775213E+03  0.28144775213E+03  0.00000000000E+00 0.  1.
          3   -1    0    0  501    0  0.00000000000E+00 -0.00000000000E+00 -0.94005050422E+02  0.94005050422E+02  0.00000000000E+00 0. -1.
         25    2    1    2    0    0  0.85733183264E+02  0.64737320185E+02  0.37107819008E+02  0.16901020566E+03  0.12508541102E+03 0.  0.
          5    1    3    3  502    0  0.54728635945E+02  0.61125303103E+02 -0.35782952548E+02  0.89607021850E+02  0.41800000000E+01 0.  1.
         -5    1    3    3    0  502  0.31004547319E+02  0.36120170816E+01  0.72890771556E+02  0.79403183814E+02  0.41800000000E+01 0.  1.
        -11    1    1    2    0    0 -0.42670356166E+02 -0.81434086810E+02  0.77728387385E+02  0.12039091326E+03  0.00000000000E+00 0. -1.
         11    1    1    2    0    0 -0.43062827098E+02  0.16696766626E+02  0.72606495317E+02  0.86051683630E+02  0.00000000000E+00 0.  1.
</event>
<event>
 7    1  0.2855090E-009  0.8220229E+02  0.7561462E-02  0.1322915E+00
          3   -1    0    0  501    0  0.00000000000E+00  0.00000000000E+00  0.12654182819E+03  0.12654182819E+03  0.00000000000E+00 0. -1.
         -3   -1    0    0    0  501 -0.00000000000E+00 -0.00000000000E+00 -0.10395481286E+03  0.10395481286E+03  0.00000000000E+00 0.  1.
         25    2    1    2    0    0  0.16257070303E+02 -0.22983345394E+01 -0.23643338717E+02  0.12839346141E+03  0.12512513253E+03 0.  0.
          5    1    3    3  502    0  0.69984143751E+02 -0.81389543161E+01 -0.22837272601E+02  0.74182453274E+02  0.41800000000E+01 0. -1.
         -5    1    3    3    0  502 -0.53727073447E+02  0.58406197767E+01 -0.80606611612E+00  0.54211008136E+02  0.41800000000E+01 0. -1.
        -11    1    1    2    0    0 -0.23116323419E+02  0.13289381378E+02  0.70069271754E+02  0.74971160522E+02  0.00000000000E+00 0. -1.
         11    1    1    2    0    0  0.68592531161E+01 -0.10991046839E+02 -0.23838917709E+02  0.27132019119E+02  0.00000000000E+00 0.  1.
</event>
<event>
 7    1  0.2855090E-009  0.1672517E+03  0.7561462E-02  0.1180745E+00
          1   -1    0    0  501    0  0.00000000000E+00  0.00000000000E+00  0.50931077318E+03  0.50931077318E+03  0.00000000000E+00 0. -1.
         -1   -1    0    0    0  501 -0.00000000000E+00 -0.00000000000E+00 -0.73731800138E+02  0.73731800138E+02  0.00000000000E+00 0.  1.
         25    2    1    2    0    0 -0.38981820604E+02  0.14630400938E+03  0.30077384287E+03  0.35921814876E+03  0.12509327859E+03 0.  0.
          5    1    3    3  502    0  0.19256486016E+02  0.61248876627E+02  0.21694996626E+03  0.22628963167E+03  0.41800000000E+01 0.  1.
         -5    1    3    3    0  502 -0.58238306620E+02  0.85055132757E+02  0.83823876603E+02  0.13292851709E+03  0.41800000000E+01 0.  1.
        -11    1    1    2    0    0  0.25553728411E+02 -0.62605102762E+01 -0.34995542736E+01  0.26541173764E+02  0.00000000000E+00 0.  1.
         11    1    1    2    0    0  0.13428092193E+02 -0.14004349911E+03  0.13830468445E+03  0.19728325079E+03  0.00000000000E+00 0. -1.
</event>
<event>
 7    1  0.2855090E-009  0.2377200E+03  0.7561462E-02  0.1121321E+00
          1   -1    0    0  501    0  0.00000000000E+00  0.00000000000E+00  0.96778612611E+02  0.96778612611E+02  0.00000000000E+00 0. -1.
         -1   -1    0    0    0  501 -0.00000000000E+00 -0.00000000000E+00 -0.78692235069E+03  0.78692235069E+03  0.00000000000E+00 0.  1.
         25    2    1    2    0    0 -0.18231784933E+03 -0.12466860725E+03 -0.15281986732E+03  0.29628399071E+03  0.12509289142E+03 0.  0.
          5    1    3    3  502    0  0.18360244699E+02 -0.82786100250E+01 -0.21144333448E+02  0.29498969580E+02  0.41800000000E+01 0.  1.
         -5    1    3    3    0  502 -0.20067809403E+03 -0.11638999722E+03 -0.13167553387E+03  0.26678502113E+03  0.41800000000E+01 0.  1.
        -11    1    1    2    0    0  0.59051256650E+02  0.57701717403E+02 -0.30543744831E+03  0.31639938991E+03  0.00000000000E+00 0.  1.
         11    1    1    2    0    0  0.12326659268E+03  0.66966889844E+02 -0.23188642244E+03  0.27101758268E+03  0.00000000000E+00 0. -1.
</event>
<event>
 7    1  0.2855090E-009  0.1107649E+03  0.7561462E-02  0.1259160E+00
          1   -1    0    0  501    0  0.00000000000E+00  0.00000000000E+00  0.28661127401E+03  0.28661127401E+03  0.00000000000E+00 0. -1.
         -1   -1    0    0    0  501 -0.00000000000E+00 -0.00000000000E+00 -0.55405554143E+02  0.55405554143E+02  0.00000000000E+00 0.  1.
         25    2    1    2    0    0 -0.51827014945E+02  0.13542632064E+02  0.90034619203E+02  0.16316557978E+03  0.12508929374E+03 0.  0.
          5    1    3    3  502    0 -0.17147088473E+02 -0.55435446409E+02  0.31257770205E+02  0.66042652581E+02  0.41800000000E+01 0. -1.
         -5    1    3    3    0  502 -0.34679926472E+02  0.68978078473E+02  0.58776848997E+02  0.97122927200E+02  0.41800000000E+01 0. -1.
        -11    1    1    2    0    0 -0.13509459580E+02  0.97603846376E+01  0.92797804228E+02  0.94282570372E+02  0.00000000000E+00 0. -1.
         11    1    1    2    0    0  0.65336474526E+02 -0.23303016701E+02  0.48373296439E+02  0.84568678003E+02  0.00000000000E+00 0.  1.
</event>
<event>
 7    1  0.2855090E-009  0.1639635E+03  0.7561462E-02  0.1184293E+00
          1   -1    0    0  501    0  0.00000000000E+00  0.00000000000E+00  0.61163111735E+03  0.61163111735E+03  0.00000000000E+00 0. -1.
         -1   -1    0    0    0  501 -0.00000000000E+00 -0.00000000000E+00 -0.93471890867E+02  0.93471890867E+02  0.00000000000E+00 0.  1.
         25    2    1    2    0    0  0.11348617667E+03 -0.84637186424E+02  0.32049231799E+02  0.19161877006E+03  0.12509210271E+03 0.  0.
          5    1    3    3  502    0 -0.57534090782E+01 -0.46168367478E+02 -0.26009657797E+02  0.53465826191E+02  0.41800000000E+01 0. -1.
         -5    1    3    3    0  502  0.11923958574E+03 -0.38468818947E+02  0.58058889596E+02  0.13815294387E+03  0.41800000000E+01 0. -1.
        -11    1    1    2    0    0 -0.82882924799E+02  0.21401771429E+02  0.34997253120E+03  0.36028931103E+03  0.00000000000E+00 0.  1.
         11    1    1    2    0    0 -0.30603251866E+02  0.63235414995E+02  0.13613746348E+03  0.15319492713E+03  0.00000000000E+00 0. -1.
</event>
<event>
 7    1  0.2855090E-009  0.1054098E+03  0.7561462E-02  0.1269314E+00
          1   -1    0    0  501    0  0.00000000000E+00  0.00000000000E+00  0.15240153793E+02  0.15240153793E+02  0.00000000000E+00 0. -1.
         -1   -1    0    0    0  501 -0.00000000000E+00 -0.00000000000E+00 -0.12878554165E+04  0.12878554165E+04  0.00000000000E+00 0.  1.
         25    2    1    2    0    0 -0.75860915939E+02 -0.26215191331E+02 -0.84929097666E+03  0.86219748277E+03  0.12508885413E+03 0.  0.
          5    1    3    3  502    0 -0.13498864763E+02  0.97060060460E+01 -0.10062366040E+02  0.19878367981E+02  0.41800000000E+01 0.  1.
         -5    1    3    3    0  502 -0.62362051176E+02 -0.35921197377E+02 -0.83922861062E+03  0.84231911479E+03  0.41800000000E+01 0.  1.
        -11    1    1    2    0    0  0.21894388924E+02  0.55871934892E+02 -0.17303958915E+03  0.18314949301E+03  0.00000000000E+00 0. -1.
         11    1    1    2    0    0  0.53966527015E+02 -0.29656743561E+02 -0.25028469686E+03  0.25774859449E+03  0.00000000000E+00 0.  1.
</event>
<event>
 7    1  0.2855090E-009  0.9823691E+02  0.7561462E-02  0.1284048E+00
          1   -1    0    0  501    0  0.00000000000E+00  0.00000000000E+00  0.27391466114E+02  0.27391466114E+02  0.00000000000E+00 0. -1.
         -1   -1    0    0    0  501 -0.00000000000E+00 -0.00000000000E+00 -0.57656965837E+03  0.57656965837E+03  0.00000000000E+00 0.  1.
         25    2    1    2    0    0 -0.58578118846E+02 -0.32518179591E+01 -0.25479574451E+03  0.28984393913E+03  0.12508663918E+03 0.  0.
          5    1    3    3  502    0 -0.63045418799E+02 -0.22335032685E+02 -0.48860952246E+02  0.82936382673E+02  0.41800000000E+01 0. -1.
         -5    1    3    3    0  502  0.44672999528E+01  0.19083214726E+02 -0.20593479226E+03  0.20690755645E+03  0.41800000000E+01 0. -1.
        -11    1    1    2    0    0  0.43418260982E+02 -0.42780996896E+02 -0.17250227605E+03  0.18295462368E+03  0.00000000000E+00 0.  1.
         11    1    1    2    0    0  0.15159857864E+02  0.46032814855E+02 -0.12188017170E+03  0.13116256168E+03  0.00000000000E+00 0. -1.
</event>
<event>
 7    1  0.2855090E-009  0.9209786E+02  0.7561462E-02  0.1297850E+00
          2   -1    0    0  501    0  0.00000000000E+00  0.00000000000E+00  0.70197995229E+03  0.70197995229E+03  0.00000000000E+00 0. -1.
         -2   -1    0    0    0  501 -0.00000000000E+00 -0.00000000000E+00 -0.27792727608E+02  0.27792727608E+02  0.00000000000E+00 0.  1.
         25    2    1    2    0    0 -0.91619470945E+01  0.62225398234E+02  0.20707377935E+03  0.24996463727E+03  0.12508728285E+03 0.  0.
          5    1    3    3  502    0 -0.12585679691E+02  0.68005268897E+02  0.34846244299E+02  0.77555458046E+02  0.41800000000E+01 0.  1.
         -5    1    3    3    0  502  0.34237325962E+01 -0.57798706631E+01  0.17222753506E+03  0.17240917923E+03  0.41800000000E+01 0.  1.
        -11    1    1    2    0    0  0.29762211806E+02  0.10384404794E+02  0.94223869296E+02  0.99356744409E+02  0.00000000000E+00 0.  1.
         11    1    1    2    0    0 -0.20600264711E+02 -0.72609803027E+02  0.37288957603E+03  0.38045129822E+03  0.00000000000E+00 0. -1.
</event>
<event>
 7    1  0.2855090E-009  0.1207416E+03  0.7561462E-02  0.1241879E+00
          2   -1    0    0  501    0  0.00000000000E+00  0.00000000000E+00  0.13748649360E+04  0.13748649360E+04  0.00000000000E+00 0.  1.
         -2   -1    0    0    0  501 -0.00000000000E+00 -0.00000000000E+00 -0.15220290228E+02  0.15220290228E+02  0.00000000000E+00 0. -1.
         25    2    1    2    0    0  0.86365527267E+02  0.31915219551E+01  0.94063229222E+03  0.95284157428E+03  0.12509502944E+03 0.  0.
          5    1    3    3  502    0  0.23902694296E+02  0.43456318611E+02  0.67915494964E+03  0.68097629066E+03  0.41800000000E+01 0. -1.
         -5    1    3    3    0  502  0.62462832971E+02 -0.40264796656E+02  0.26147734259E+03  0.27186528362E+03  0.41800000000E+01 0. -1.
        -11    1    1    2    0    0 -0.94390985357E+02  0.16673970332E+02  0.38720882866E+03  0.39889642314E+03  0.00000000000E+00 0.  1.
         11    1    1    2    0    0  0.80254580897E+01 -0.19865492287E+02  0.31803524858E+02  0.38347228775E+02  0.00000000000E+00 0. -1.
</event>
<event>
 7    1  0.2855090E-009  0.1238551E+03  0.7561462E-02  0.1236870E+00
          1   -1    0    0  501    0  0.00000000000E+00  0.00000000000E+00  0.31931008217E+03  0.31931008217E+03  0.00000000000E+00 0. -1.
         -1   -1    0    0    0  501 -0.00000000000E+00 -0.00000000000E+00 -0.11621871657E+03  0.11621871657E+03  0.00000000000E+00 0.  1.
         25    2    1    2    0    0  0.11011851868E+03  0.27732610467E+02  0.23421643121E+03  0.28878887089E+03  0.12508592832E+03 0.  0.
          5    1    3    3  502    0  0.86616334134E+02  0.38774310513E+02  0.24312254874E+03  0.26102084706E+03  0.41800000000E+01 0.  1.
         -5    1    3    3    0  502  0.23502184542E+02 -0.11041700046E+02 -0.89061175288E+01  0.27768023833E+02  0.41800000000E+01 0.  1.
        -11    1    1    2    0    0 -0.28312445565E+02 -0.34150633452E+02  0.21460388820E+02  0.49278886222E+02  0.00000000000E+00 0. -1.
         11    1    1    2    0    0 -0.81806073111E+02  0.64180229849E+01 -0.52585454428E+02  0.97461041623E+02  0.00000000000E+00 0.  1.
</event>
<event>
 7    1  0.2855090E-009  0.1485181E+03  0.7561462E-02  0.1202306E+00
          2   -1    0    0  501    0  0.00000000000E+00  0.00000000000E+00  0.23761794893E+03  0.23761794893E+03  0.00000000000E+00 0. -1.
         -2   -1    0    0    0  501 -0.00000000000E+00 -0.00000000000E+00 -0.12889518512E+03  0.12889518512E+03  0.00000000000E+00 0.  1.
         25    2    1    2    0    0 -0.52209785522E+01  0.10818115171E+03  0.14597506684E+03  0.22064621556E+03  0.12508242122E+03 0.  0.
          5    1    3    3  502    0  0.56974656304E+02  0.76219839046E+02  0.79414990286E+02  0.12401527490E+03  0.41800000000E+01 0.  1.
         -5    1    3    3    0  502 -0.62195634857E+02  0.31961312669E+02  0.66560076557E+02  0.96630940666E+02  0.41800000000E+01 0.  1.
        -11    1    1    2    0    0  0.37024197577E+02 -0.31119882473E+02  0.10920844967E+02  0.49583295031E+02  0.00000000000E+00 0. -1.
         11    1    1    2    0    0 -0.31803219025E+02 -0.77061269242E+02 -0.48173148003E+02  0.96283623457E+02  0.00000000000E+00 0.  1.
</event>
<event>
 7    1  0.2855090E-009  0.1807182E+03  0.7561462E-02  0.1167110E+00
          2   -1    0    0  501    0  0.00000000000E+00  0.00000000000E+00  0.20874405069E+04  0.20874405069E+04  0.00000000000E+00 0. -1.
         -2   -1    0    0    0  501 -0.00000000000E+00 -0.00000000000E+00 -0.19273421636E+02  0.19273421636E+02  0.00000000000E+00 0.  1.
         25    2    1    2    0    0  0.52735232080E+02  0.16042007580E+03  0.11109367951E+04  0.11306388906E+04  0.12509249663E+03 0.  0.
          5    1    3    3  502    0 -0.23472325414E+01  0.13353595502E+02  0.48772437087E+03  0.48793069421E+03  0.41800000000E+01 0. -1.
         -5    1    3    3    0  502  0.55082464622E+02  0.14706648030E+03  0.62321242425E+03  0.64270819637E+03  0.41800000000E+01 0. -1.
        -11    1    1    2    0    0  0.24467154360E+02 -0.31575572159E+02  0.23786042806E+03  0.24119129677E+03  0.00000000000E+00 0. -1.
         11    1    1    2    0    0 -0.77202386440E+02 -0.12884450365E+03  0.71936986209E+03  0.73488374120E+03  0.00000000000E+00 0.  1.
</event>
<event>
 7    1  0.2855090E-009  0.9905827E+02  0.7561462E-02  0.1282289E+00
         -2   -1    0    0    0  501 -0.00000000000E+00  0.00000000000E+00  0.39249540897E+02  0.39249540897E+02  0.00000000000E+00 0. -1.
          2   -1    0    0  501    0  0.00000000000E+00 -0.00000000000E+00 -0.50915951136E+03  0.50915951136E+03  0.00000000000E+00 0.  1.
         25    2    1    2    0    0  0.70729145770E+02  0.17418291249E+02 -0.15339215247E+03  0.21090937878E+03  0.12509038607E+03 0.  0.
          5    1    3    3  502    0  0.52552807676E+02 -0.63706608615E+01  0.14718802661E+01  0.53122704618E+02  0.41800000000E+01 0. -1.
         -5    1    3    3    0  502  0.18176338095E+02  0.23788952111E+02 -0.15486403273E+03  0.15778667416E+03  0.41800000000E+01 0. -1.
        -11    1    1    2    0    0 -0.61233760221E+01 -0.44364895794E+02 -0.91985385339E+02  0.10230860584E+03  0.00000000000E+00 0.  1.
         11    1    1    2    0    0 -0.64605769748E+02  0.26946604544E+02 -0.22453243266E+03  0.23519106764E+03  0.00000000000E+00 0. -1.
</event>
<event>
 7    1  0.2855090E-009  0.9508461E+02  0.7561462E-02  0.1290986E+00
          1   -1    0    0  501    0  0.00000000000E+00  0.00000000000E+00  0.12727598709E+03  0.12727598709E+03  0.00000000000E+00 0. -1.
         -1   -1    0    0    0  501 -0.00000000000E+00 -0.00000000000E+00 -0.11799993845E+03  0.11799993845E+03  0.00000000000E+00 0.  1.
         25    2    1    2    0    0  0.30608623909E+02 -0.11467508421E+02  0.48967787348E+02  0.13825255068E+03  0.12509009539E+03 0.  0.
          5    1    3    3  502    0  0.58844593278E+01 -0.46861428918E+02 -0.24170228045E+02  0.53219288848E+02  0.41800000000E+01 0. -1.
         -5    1    3    3    0  502  0.24724164581E+02  0.35393920497E+02  0.73138015393E+02  0.85033261833E+02  0.41800000000E+01 0. -1.
        -11    1    1    2    0    0 -0.55651758022E+02  0.34397494137E+02 -0.26915157916E+02  0.70744126961E+02  0.00000000000E+00 0.  1.
         11    1    1    2    0    0  0.25043134113E+02 -0.22929985716E+02 -0.12776580798E+02  0.36279247898E+02  0.00000000000E+00 0. -1.
</event>
<event>
 7    1  0.2855090E-009  0.1136002E+03  0.7561462E-02  0.1254044E+00
         -1   -1    0    0    0  501 -0.00000000000E+00  0.00000000000E+00  0.78036492569E+02  0.78036492569E+02  0.00000000000E+00 0.  1.
          1   -1    0    0  501    0  0.00000000000E+00 -0.00000000000E+00 -0.20242827700E+03  0.20242827700E+03  0.00000000000E+00 0. -1.
         25    2    1    2    0    0 -0.39677404314E+02 -0.35354896579E+02 -0.30839529757E+02  0.13937011508E+03  0.12509471315E+03 0.  0.
          5    1    3    3  502    0  0.19000185191E+02  0.34047199329E+02 -0.28294212597E+02  0.48355492820E+02  0.41800000000E+01 0.  1.
         -5    1    3    3    0  502 -0.58677589504E+02 -0.69402095908E+02 -0.25453171600E+01  0.91014622264E+02  0.41800000000E+01 0.  1.
        -11    1    1    2    0    0 -0.16463334684E+02  0.37365123258E+02 -0.68140860892E+02  0.79437842041E+02  0.00000000000E+00 0. -1.
         11    1    1    2    0    0  0.56140738998E+02 -0.20102266785E+01 -0.25411393779E+02  0.61656812441E+02  0.00000000000E+00 0.  1.
</event>
<event>
 7    1  0.2855090E-009  0.1107080E+03  0.7561462E-02  0.1259264E+00
          1   -1    0    0  501    0  0.00000000000E+00  0.00000000000E+00  0.21626102783E+03  0.21626102783E+03  0.00000000000E+00 0. -1.
         -1   -1    0    0    0  501 -0.00000000000E+00 -0.00000000000E+00 -0.10203343663E+03  0.10203343663E+03  0.00000000000E+00 0.  1.
         25    2    1    2    0    0 -0.37353466459E+02  0.68874481677E+02 -0.71084998324E+01  0.14777403046E+03  0.12509059767E+03 0.  0.
          5    1    3    3  502    0  0.96768674302E+00  0.74906876213E+02  0.41263032916E+02  0.85627605403E+02  0.41800000000E+01 0. -1.
         -5    1    3    3    0  502 -0.38321153202E+02 -0.60323945359E+01 -0.48371532749E+02  0.62146425055E+02  0.41800000000E+01 0. -1.
        -11    1    1    2    0    0 -0.37114700723E+01 -0.66106617472E+02  0.10903451349E+03  0.12756325888E+03  0.00000000000E+00 0. -1.
         11    1    1    2    0    0  0.41064936532E+02 -0.27678642052E+01  0.12301577545E+02  0.42957175125E+02  0.00000000000E+00 0.  1.
</event>
<event>
 7    1  0.2855090E-009  0.1149703E+03  0.7561462E-02  0.1251633E+00
         -4   -1    0    0    0  501 -0.00000000000E+00  0.00000000000E+00  0.73510061667E+02  0.73510061667E+02  0.00000000000E+00 0.  1.
          4   -1    0    0  501    0  0.00000000000E+00 -0.00000000000E+00 -0.33858879384E+03  0.33858879384E+03  0.00000000000E+00 0. -1.
         25    2    1    2    0    0 -0.66472000602E+02 -0.30020918379E+02 -0.25715806605E+03  0.29513673926E+03  0.12512250605E+03 0.  0.
          5    1    3    3  502    0 -0.14387765127E+02  0.47953345136E+02 -0.10412304613E+03  0.11560974107E+03  0.41800000000E+01 0. -1.
         -5    1    3    3    0  502 -0.52084235475E+02 -0.77974263515E+02 -0.15303501992E+03  0.17952699818E+03  0.41800000000E+01 0. -1.
        -11    1    1    2    0    0  0.49552812326E+01  0.23454465624E+02  0.34455483894E+02  0.41974362892E+02  0.00000000000E+00 0.  1.
         11    1    1    2    0    0  0.61516719369E+02  0.65664527549E+01 -0.42376150022E+02  0.74987753363E+02  0.00000000000E+00 0. -1.
</event>
<event>
 7    1  0.2855090E-009  0.7141844E+02  0.7561462E-02  0.1355335E+00
          2   -1    0    0  501    0  0.00000000000E+00  0.00000000000E+00  0.14574019624E+04  0.14574019624E+04  0.00000000000E+00 0.  1.
         -2   -1    0    0    0  501 -0.00000000000E+00 -0.00000000000E+00 -0.10107785613E+02  0.10107785613E+02  0.00000000000E+00 0. -1.
         25    2    1    2    0    0  0.40836863511E+02  0.12705137527E+02  0.10442687025E+04  0.10526030648E+04  0.12508804535E+03 0.  0.
          5    1    3    3  502    0  0.37842275674E+02  0.57822776962E+01  0.10432034243E+04  0.10439139473E+04  0.41800000000E+01 0.  1.
         -5    1    3    3    0  502  0.29945878371E+01  0.69228598305E+01  0.10652781740E+01  0.86891174543E+01  0.41800000000E+01 0.  1.
        -11    1    1    2    0    0  0.22995942280E+02 -0.21239081215E+02  0.18268561090E+03  0.18534817065E+03  0.00000000000E+00 0.  1.
         11    1    1    2    0    0 -0.63832805791E+02  0.85339436887E+01  0.22033986345E+03  0.22955851262E+03  0.00000000000E+00 0. -1.
</event>
<event>
 6    1  0.2855090E-009  0.1058886E+03  0.7561462E-02  0.1268379E+00
         -1   -1    0    0    0  501 -0.00000000000E+00  0.00000000000E+00  0.19381370503E+02  0.19381370503E+02  0.00000000000E+00 0.  1.
          1   -1    0    0  501    0  0.00000000000E+00 -0.00000000000E+00 -0.79422447951E+03  0.79422447951E+03  0.00000000000E+00 0. -1.
          5    1    1    2  502    0  0.50504782172E+02  0.19441143413E+02 -0.12047533522E+03  0.13213807126E+03  0.41800000000E+01 0. -1.
         -5    1    1    2    0  502 -0.58044688483E+02  0.37372086126E+02 -0.41382352925E+03  0.41956315906E+03  0.41800000000E+01 0. -1.
        -11    1    1    2    0    0  0.11476526239E+02  0.13610499359E+02 -0.91858797673E+01  0.20033390487E+02  0.00000000000E+00 0.  1.
         11    1    1    2    0    0 -0.39366199274E+01 -0.70423728898E+02 -0.23135836476E+03  0.24187122920E+03  0.00000000000E+00 0. -1.
</event>
<event>
 7    1  0.2855090E-009  0.1266419E+03  0.7561462E-02  0.1232525E+00
         -2   -1    0    0    0  501 -0.00000000000E+00  0.00000000000E+00  0.53681321867E+02  0.53681321867E+02  0.00000000000E+00 0.  1.
          2   -1    0    0  501    0  0.00000000000E+00 -0.00000000000E+00 -0.62795483231E+03  0.62795483231E+03  0.00000000000E+00 0. -1.
         25    2    1    2    0    0 -0.59880924670E+02  0.85562660556E+02 -0.49619391700E+03  0.52225631984E+03  0.12504625676E+03 0.  0.
          5    1    3    3  502    0 -0.51133083234E+02  0.11054417151E+03 -0.29346014573E+03  0.31775924155E+03  0.41800000000E+01 0.  1.
         -5    1    3    3    0  502 -0.87478414364E+01 -0.24981510955E+02 -0.20273377126E+03  0.20449707829E+03  0.41800000000E+01 0.  1.
        -11    1    1    2    0    0  0.48966198754E+02 -0.73842206870E+02 -0.96791036838E+01  0.89129373296E+02  0.00000000000E+00 0.  1.
         11    1    1    2    0    0  0.10914725916E+02 -0.11720453686E+02 -0.68400489769E+02  0.70250461045E+02  0.00000000000E+00 0. -1.
</event>
<event>
 7    1  0.2855090E-009  0.1395187E+03  0.7561462E-02  0.1213978E+00
         -1   -1    0    0    0  501 -0.00000000000E+00  0.00000000000E+00  0.99101334500E+02  0.99101334500E+02  0.00000000000E+00 0.  1.
          1   -1    0    0  501    0  0.00000000000E+00 -0.00000000000E+00 -0.21247343812E+03  0.21247343812E+03  0.00000000000E+00 0. -1.
         25    2    1    2    0    0 -0.92876608005E+02 -0.21643337011E+02 -0.31575706571E+02  0.16043550292E+03  0.12509207410E+03 0.  0.
          5    1    3    3  502    0 -0.11497659569E+03 -0.46206164632E+02 -0.25567313393E+02  0.12659299792E+03  0.41800000000E+01 0.  1.
         -5    1    3    3    0  502  0.22099987689E+02  0.24562827621E+02 -0.60083931786E+01  0.33842505008E+02  0.41800000000E+01 0.  1.
        -11    1    1    2    0    0  0.47928827026E+01  0.32631724256E+02 -0.42189748039E+01  0.33250577452E+02  0.00000000000E+00 0.  1.
         11    1    1    2    0    0  0.88083725302E+02 -0.10988387245E+02 -0.77577422248E+02  0.11788869225E+03  0.00000000000E+00 0. -1.
</event>
<event>
 7    1  0.2855090E-009  0.1530885E+03  0.7561462E-02  0.1196728E+00
         -1   -1    0    0    0  501 -0.00000000000E+00  0.00000000000E+00  0.18318275393E+03  0.18318275393E+03  0.00000000000E+00 0.  1.
          1   -1    0    0  501    0  0.00000000000E+00 -0.00000000000E+00 -0.16800276063E+03  0.16800276063E+03  0.00000000000E+00 0. -1.
         25    2    1    2    0    0  0.17367101497E+02  0.12046240749E+03  0.63815960760E+02  0.18582798362E+03  0.12508698899E+03 0.  0.
          5    1    3    3  502    0  0.52376861362E+02  0.50530970936E+02 -0.15319468319E+02  0.74490758752E+02  0.41800000000E+01 0. -1.
         -5    1    3    3    0  502 -0.35009759865E+02  0.69931436556E+02  0.79135429079E+02  0.11133722486E+03  0.41800000000E+01 0. -1.
        -11    1    1    2    0    0 -0.50552441748E+02 -0.10847744723E+03 -0.23313647298E+02  0.12192797904E+03  0.00000000000E+00 0.  1.
         11    1    1    2    0    0  0.33185340250E+02 -0.11984960265E+02 -0.25322320159E+02  0.43429551901E+02  0.00000000000E+00 0. -1.
</event>
<event>
 7    1  0.2855090E-009  0.1045908E+03  0.7561462E-02  0.1270928E+00
          1   -1    0    0  501    0  0.00000000000E+00  0.00000000000E+00  0.23074402370E+03  0.23074402370E+03  0.00000000000E+00 0. -1.
         -1   -1    0    0    0  501 -0.00000000000E+00 -0.00000000000E+00 -0.76431777661E+02  0.76431777661E+02  0.00000000000E+00 0.  1.
         25    2    1    2    0    0 -0.40679213887E+02 -0.53845129708E+02  0.12685750511E+03  0.19050887987E+03  0.12508681094E+03 0.  0.
          5    1    3    3  502    0  0.55699093033E+01 -0.63418744358E+02  0.10234088688E+02  0.64615555379E+02  0.41800000000E+01 0.  1.
         -5    1    3    3    0  502 -0.46249123190E+02  0.95736146503E+01  0.11662341642E+03  0.12589332449E+03  0.41800000000E+01 0.  1.
        -11    1    1    2    0    0  0.55004652150E+02  0.60846050217E+02 -0.32303760709E+01  0.82086472179E+02  0.00000000000E+00 0.  1.
         11    1    1    2    0    0 -0.14325438263E+02 -0.70009205090E+01  0.30685117000E+02  0.34580449314E+02  0.00000000000E+00 0. -1.
</event>
<event>
 7    1  0.3447425E-009  0.1298619E+03  0.7561462E-02  0.1227661E+00
         -2   -1    0    0    0  501 -0.00000000000E+00  0.00000000000E+00  0.18201638246E+02  0.18201638246E+02  0.00000000000E+00 0.  1.
          2   -1    0    0  501    0  0.00000000000E+00 -0.00000000000E+00 -0.11023255113E+04  0.11023255113E+04  0.00000000000E+00 0. -1.
         25    2    1    2    0    0  0.32598570625E+02  0.77584799733E+02 -0.72793736652E+03  0.74338446714E+03  0.12508232669E+03 0.  0.
          5    1    3    3  502    0 -0.21328315547E+02 -0.21728832407E+02 -0.80939670356E+02  0.86577952384E+02  0.41800000000E+01 0.  1.
         -5    1    3    3    0  502  0.53926886171E+02  0.99313632139E+02 -0.64699769617E+03  0.65680651476E+03  0.41800000000E+01 0.  1.
        -11    1    1    2    0    0  0.25774024017E+02 -0.35817379899E+02 -0.20616806790E+03  0.21083751383E+03  0.00000000000E+00 0. -1.
         11    1    1    2    0    0 -0.58372594642E+02 -0.41767419833E+02 -0.15001843862E+03  0.16630516856E+03  0.00000000000E+00 0.  1.
</event>
<event>
 7    1  0.2855090E-009  0.1178995E+03  0.7561462E-02  0.1246603E+00
         -3   -1    0    0    0  501 -0.00000000000E+00  0.00000000000E+00  0.17525711191E+03  0.17525711191E+03  0.00000000000E+00 0.  1.
          3   -1    0    0  501    0  0.00000000000E+00 -0.00000000000E+00 -0.98811567988E+02  0.98811567988E+02  0.00000000000E+00 0. -1.
         25    2    1    2    0    0  0.72949718494E+02  0.12001400931E+02  0.43666700565E+02  0.15172073791E+03  0.12508679595E+03 0.  0.
          5    1    3    3  502    0  0.28070209753E+02  0.61767673465E+02 -0.59471498070E+01  0.68235058084E+02  0.41800000000E+01 0. -1.
         -5    1    3    3    0  502  0.44879508741E+02 -0.49766272533E+02  0.49613850372E+02  0.83485679823E+02  0.41800000000E+01 0. -1.
        -11    1    1    2    0    0  0.64817916880E+01 -0.19830659011E+02  0.36938579386E+02  0.42423193036E+02  0.00000000000E+00 0.  1.
         11    1    1    2    0    0 -0.79431510182E+02  0.78292580799E+01 -0.41597360277E+01  0.79924748956E+02  0.00000000000E+00 0. -1.
</event>
<event>
 7    1  0.2855090E-009  0.1078186E+03  0.7561462E-02  0.1264664E+00
          1   -1    0    0  501    0  0.00000000000E+00  0.00000000000E+00  0.63893726243E+03  0.63893726243E+03  0.00000000000E+00 0. -1.
         -1   -1    0    0    0  501 -0.00000000000E+00 -0.00000000000E+00 -0.22824358357E+02  0.22824358357E+02  0.00000000000E+00 0.  1.
         25    2    1    2    0    0  0.39361058418E+01  0.37205067551E+02  0.43138190650E+03  0.45070465977E+03  0.12507849976E+03 0.  0.
          5    1    3    3  502    0 -0.45663680776E+02  0.47641625345E+02  0.33765329579E+03  0.34406702365E+03  0.41800000000E+01 0. -1.
         -5    1    3    3    0  502  0.49599786618E+02 -0.10436557794E+02  0.93728610715E+02  0.10663763612E+03  0.41800000000E+01 0. -1.
        -11    1    1    2    0    0  0.43681979207E+02 -0.19743258703E+02  0.62852551769E+02  0.79046535886E+02  0.00000000000E+00 0.  1.
         11    1    1    2    0    0 -0.47618085049E+02 -0.17461808847E+02  0.12187844580E+03  0.13201042513E+03  0.00000000000E+00 0. -1.
</event>
<event>
 7    1  0.2855090E-009  0.1181315E+03  0.7561462E-02  0.1246212E+00
          2   -1    0    0  501    0  0.00000000000E+00  0.00000000000E+00  0.86709620268E+03  0.86709620268E+03  0.00000000000E+00 0. -1.
         -2   -1    0    0    0  501 -0.00000000000E+00 -0.00000000000E+00 -0.17623429272E+02  0.17623429272E+02  0.00000000000E+00 0.  1.
         25    2    1    2    0    0 -0.48968525735E+02  0.26862107131E+02  0.43474122443E+03  0.45581705321E+03  0.12509901866E+03 0.  0.
          5    1    3    3  502    0  0.35239278819E+01 -0.45200645292E+02  0.18783589244E+03  0.19327522162E+03  0.41800000000E+01 0.  1.
         -5    1    3    3    0  502 -0.52492453617E+02  0.72062752423E+02  0.24690533199E+03  0.26254183159E+03  0.41800000000E+01 0.  1.
        -11    1    1    2    0    0  0.26620572256E+02  0.30164581946E+02  0.92023551184E+02  0.10043351454E+03  0.00000000000E+00 0.  1.
         11    1    1    2    0    0  0.22347953479E+02 -0.57026689077E+02  0.32270799780E+03  0.32846906419E+03  0.00000000000E+00 0. -1.
</event>
<event>
 7    1  0.2855090E-009  0.1622706E+03  0.7561462E-02  0.1186157E+00
          2   -1    0    0  501    0  0.00000000000E+00  0.00000000000E+00  0.76990869011E+03  0.76990869011E+03  0.00000000000E+00 0. -1.
         -2   -1    0    0    0  501 -0.00000000000E+00 -0.00000000000E+00 -0.40290866260E+02  0.40290866260E+02  0.00000000000E+00 0.  1.
         25    2    1    2    0    0  0.57097692749E+02  0.12258795980E+03  0.46490814485E+03  0.50006581377E+03  0.12505311089E+03 0.  0.
          5    1    3    3  502    0 -0.11971162593E+02  0.11253314873E+03  0.31240956063E+03  0.33230140576E+03  0.41800000000E+01 0.  1.
         -5    1    3    3    0  502  0.69068855342E+02  0.10054811067E+02  0.15249858422E+03  0.16776440801E+03  0.41800000000E+01 0.  1.
        -11    1    1    2    0    0 -0.32550624906E+02 -0.10804640017E+03  0.12870277507E+03  0.17116650398E+03  0.00000000000E+00 0.  1.
         11    1    1    2    0    0 -0.24547067843E+02 -0.14541559624E+02  0.13600690393E+03  0.13896723863E+03  0.00000000000E+00 0. -1.
</event>
<event>
 7    1  0.2855090E-009  0.1699616E+03  0.7561462E-02  0.1177888E+00
          1   -1    0    0  501    0  0.00000000000E+00  0.00000000000E+00  0.14215447748E+03  0.14215447748E+03  0.00000000000E+00 0. -1.
         -1   -1    0    0    0  501 -0.00000000000E+00 -0.00000000000E+00 -0.23340015729E+03  0.23340015729E+03  0.00000000000E+00 0.  1.
         25    2    1    2    0    0  0.29984463081E+02 -0.13537440252E+03 -0.87656856761E+02  0.20629506794E+03  0.12509449883E+03 0.  0.
          5    1    3    3  502    0  0.31115532101E+02 -0.15491763115E+03 -0.95635302427E+02  0.18474639982E+03  0.41800000000E+01 0. -1.
         -5    1    3    3    0  502 -0.11310690195E+01  0.19543228629E+02  0.79784456658E+01  0.21548668117E+02  0.41800000000E+01 0. -1.
        -11    1    1    2    0    0  0.20921387791E+02  0.93825634489E+02  0.22218358228E+02  0.98664125176E+02  0.00000000000E+00 0. -1.
         11    1    1    2    0    0 -0.50905850872E+02  0.41548768028E+02 -0.25807181276E+02  0.70595441659E+02  0.00000000000E+00 0.  1.
</event>
<event>
 7    1  0.4790287E-009  0.1563160E+03  0.7561462E-02  0.1192920E+00
         -1   -1    0    0    0  501 -0.00000000000E+00  0.00000000000E+00  0.10235653428E+03  0.10235653428E+03  0.00000000000E+00 0.  1.
          1   -1    0    0  501    0  0.00000000000E+00 -0.00000000000E+00 -0.27451573852E+03  0.27451573852E+03  0.00000000000E+00 0. -1.
         25    2    1    2    0    0 -0.11670611704E+03  0.18384455227E+01 -0.34800852471E+02  0.17459079696E+03  0.12508856628E+03 0.  0.
          5    1    3    3  502    0 -0.96363796071E+02 -0.52406562495E+02 -0.38653623053E+02  0.11637870923E+03  0.41800000000E+01 0. -1.
         -5    1    3    3    0  502 -0.20342320967E+02  0.54245008018E+02  0.38527705820E+01  0.58212087734E+02  0.41800000000E+01 0. -1.
        -11    1    1    2    0    0  0.84193478026E+02  0.38823320358E+02 -0.65376622865E+02  0.11344555859E+03  0.00000000000E+00 0. -1.
         11    1    1    2    0    0  0.32512639012E+02 -0.40661765881E+02 -0.71981728895E+02  0.88835917256E+02  0.00000000000E+00 0.  1.
</event>
<event>
 7    1  0.2855090E-009  0.1390140E+03  0.7561462E-02  0.1214662E+00
         -1   -1    0    0    0  501 -0.00000000000E+00  0.00000000000E+00  0.84997907739E+02  0.84997907739E+02  0.00000000000E+00 0.  1.
          1   -1    0    0  501    0  0.00000000000E+00 -0.00000000000E+00 -0.32900333654E+03  0.32900333654E+03  0.00000000000E+00 0. -1.
         25    2    1    2    0    0  0.89440262987E+02  0.38414986750E+02 -0.23049263587E+03  0.27973225069E+03  0.12509198630E+03 0.  0.
          5    1    3    3  502    0  0.36591852173E+02  0.77274654521E+02 -0.87778326306E+02  0.12260849418E+03  0.41800000000E+01 0. -1.
         -5    1    3    3    0  502  0.52848410814E+02 -0.38859667771E+02 -0.14271430956E+03  0.15712375651E+03  0.41800000000E+01 0. -1.
        -11    1    1    2    0    0  0.15640011150E+02 -0.55345456887E+01 -0.17471446681E+02  0.24093413911E+02  0.00000000000E+00 0.  1.
         11    1    1    2    0    0 -0.10508027414E+03 -0.32880441061E+02  0.39586537519E+01  0.11017557967E+03  0.00000000000E+00 0. -1.
</event>
<event>
 7    1  0.2855090E-009  0.8779321E+02  0.7561462E-02  0.1308285E+00
          2   -1    0    0  501    0  0.00000000000E+00  0.00000000000E+00  0.66863239593E+03  0.66863239593E+03  0.00000000000E+00 0. -1.
         -2   -1    0    0    0  501 -0.00000000000E+00 -0.00000000000E+00 -0.25335212851E+02  0.25335212851E+02  0.00000000000E+00 0.  1.
         25    2    1    2    0    0  0.25744898823E+02  0.64226671341E+02  0.31387133969E+03  0.34489290792E+03  0.12509210575E+03 0.  0.
          5    1    3    3  502    0  0.60797741384E+01  0.18236187933E+02  0.28754089725E+03  0.28821305001E+03  0.41800000000E+01 0.  1.
         -5    1    3    3    0  502  0.19665124685E+02  0.45990483408E+02  0.26330442443E+02  0.56679857906E+02  0.41800000000E+01 0.  1.
        -11    1    1    2    0    0  0.28264895987E+02 -0.32544289164E+02  0.20838643105E+03  0.21279788474E+03  0.00000000000E+00 0.  1.
         11    1    1    2    0    0 -0.54009794810E+02 -0.31682382178E+02  0.12103941234E+03  0.13627681613E+03  0.00000000000E+00 0. -1.
</event>
<event>
 7    1  0.2855090E-009  0.1166036E+03  0.7561462E-02  0.1248808E+00
          1   -1    0    0  501    0  0.00000000000E+00  0.00000000000E+00  0.10397692619E+03  0.10397692619E+03  0.00000000000E+00 0. -1.
         -1   -1    0    0    0  501 -0.00000000000E+00 -0.00000000000E+00 -0.25335861037E+03  0.25335861037E+03  0.00000000000E+00 0.  1.
         25    2    1    2    0    0  0.10115758033E+03 -0.41862097297E+02 -0.13862635311E+03  0.21644714270E+03  0.12508720382E+03 0.  0.
          5    1    3    3  502    0  0.53347129895E+02 -0.48257207870E+02 -0.26469391243E+01  0.72105152841E+02  0.41800000000E+01 0. -1.
         -5    1    3    3    0  502  0.47810450433E+02  0.63951105725E+01 -0.13597941399E+03  0.14434198986E+03  0.41800000000E+01 0. -1.
        -11    1    1    2    0    0 -0.34268592558E+02  0.86299802527E+00 -0.43918617422E+02  0.55712890409E+02  0.00000000000E+00 0.  1.
         11    1    1    2    0    0 -0.66888987771E+02  0.40999099272E+02  0.33163286344E+02  0.85175503446E+02  0.00000000000E+00 0. -1.
</event>
<event>
 7    1  0.2855090E-009  0.8430363E+02  0.7561462E-02  0.1317264E+00
          1   -1    0    0  501    0  0.00000000000E+00  0.00000000000E+00  0.22380800767E+03  0.22380800767E+03  0.00000000000E+00 0. -1.
         -1   -1    0    0    0  501 -0.00000000000E+00 -0.00000000000E+00 -0.95831417619E+02  0.95831417619E+02  0.00000000000E+00 0.  1.
         25    2    1    2    0    0  0.43928364255E+01  0.11227670728E+02 -0.36547282610E+02  0.13087518760E+03  0.12508898137E+03 0.  0.
          5    1    3    3  502    0  0.52363798740E+02  0.77917458840E+01 -0.57480350875E+02  0.78256896560E+02  0.41800000000E+01 0.  1.
         -5    1    3    3    0  502 -0.47970962315E+02  0.34359248438E+01  0.20933068265E+02  0.52618291039E+02  0.41800000000E+01 0.  1.
        -11    1    1    2    0    0  0.27722524586E+02  0.91484623142E+01  0.14111665313E+03  0.14410462353E+03  0.00000000000E+00 0. -1.
         11    1    1    2    0    0 -0.32115361012E+02 -0.20376133042E+02  0.23407219531E+02  0.44659614159E+02  0.00000000000E+00 0.  1.
</event>
<event>
 7    1  0.2855090E-009  0.9583386E+02  0.7561462E-02  0.1289309E+00
          1   -1    0    0  501    0  0.00000000000E+00  0.00000000000E+00  0.37047715487E+03  0.37047715487E+03  0.00000000000E+00 0. -1.
         -1   -1    0    0    0  501 -0.00000000000E+00 -0.00000000000E+00 -0.40575161367E+02  0.40575161367E+02  0.00000000000E+00 0.  1.
         25    2    1    2    0    0  0.47391719660E+02  0.22086366796E+02  0.21666249860E+03  0.25558512099E+03  0.12508930044E+03 0.  0.
          5    1    3    3  502    0 -0.33384888761E+02  0.32887921736E+02  0.43143723870E+02  0.63835879434E+02  0.41800000000E+01 0. -1.
         -5    1    3    3    0  502  0.80776608421E+02 -0.10801554941E+02  0.17351877473E+03  0.19174924156E+03  0.41800000000E+01 0. -1.
        -11    1    1    2    0    0 -0.24978386303E+02  0.73316808316E+01  0.11551675229E+03  0.11841365371E+03  0.00000000000E+00 0. -1.
         11    1    1    2    0    0 -0.22413333357E+02 -0.29418047628E+02 -0.22772573861E+01  0.37053541526E+02  0.00000000000E+00 0.  1.
</event>
<event>
 7    1  0.2855090E-009  0.9706024E+02  0.7561462E-02  0.1286602E+00
          1   -1    0    0  501    0  0.00000000000E+00  0.00000000000E+00  0.10477151274E+03  0.10477151274E+03  0.00000000000E+00 0. -1.
         -1   -1    0    0    0  501 -0.00000000000E+00 -0.00000000000E+00 -0.12385227614E+03  0.12385227614E+03  0.00000000000E+00 0.  1.
         25    2    1    2    0    0  0.15241495653E+02  0.20028090846E+02 -0.33427049740E+02  0.13190211939E+03  0.12508946332E+03 0.  0.
          5    1    3    3  502    0  0.37427060929E+02 -0.26977041944E+02  0.25772285293E+02  0.53011590912E+02  0.41800000000E+01 0.  1.
         -5    1    3    3    0  502 -0.22185565276E+02  0.47005132790E+02 -0.59199335034E+02  0.78890528478E+02  0.41800000000E+01 0.  1.
        -11    1    1    2    0    0 -0.39088888531E+02  0.23792517056E+02  0.65543704828E+01  0.46227533428E+02  0.00000000000E+00 0. -1.
         11    1    1    2    0    0  0.23847392877E+02 -0.43820607902E+02  0.77919158484E+01  0.50494136061E+02  0.00000000000E+00 0.  1.
</event>
<event>
 6    1  0.2855090E-009  0.1429836E+03  0.7561462E-02  0.1209370E+00
          1   -1    0    0  501    0  0.00000000000E+00  0.00000000000E+00  0.11996678457E+04  0.11996678457E+04  0.00000000000E+00 0. -1.
         -1   -1    0    0    0  501 -0.00000000000E+00 -0.00000000000E+00 -0.29179073474E+02  0.29179073474E+02  0.00000000000E+00 0.  1.
          5    1    1    2  502    0 -0.63264236348E+02  0.39987482758E+02  0.15977003976E+03  0.17648031160E+03  0.41800000000E+01 0. -1.
         -5    1    1    2    0  502 -0.30221087035E+02  0.63749438039E+02  0.70180516146E+03  0.70535470651E+03  0.41800000000E+01 0. -1.
        -11    1    1    2    0    0  0.71908242852E+02 -0.70462504582E+02  0.13369968686E+03  0.16736596490E+03  0.00000000000E+00 0.  1.
         11    1    1    2    0    0  0.21577080531E+02 -0.33274416215E+02  0.17521388419E+03  0.17964593620E+03  0.00000000000E+00 0. -1.
</event>
<event>
 7    1  0.2855090E-009  0.7503034E+02  0.7561462E-02  0.1343777E+00
         -2   -1    0    0    0  501 -0.00000000000E+00  0.00000000000E+00  0.26858371456E+02  0.26858371456E+02  0.00000000000E+00 0.  1.
          2   -1    0    0  501    0  0.00000000000E+00 -0.00000000000E+00 -0.50475070731E+03  0.50475070731E+03  0.00000000000E+00 0. -1.
         25    2    1    2    0    0 -0.30246287600E+02  0.39304007913E+01 -0.35800627895E+03  0.38045586166E+03  0.12509149027E+03 0.  0.
          5    1    3    3  502    0  0.13228013824E+02 -0.35415784359E+02 -0.33552553057E+02  0.50719861476E+02  0.41800000000E+01 0.  1.
         -5    1    3    3    0  502 -0.43474301424E+02  0.39346185150E+02 -0.32445372589E+03  0.32973600018E+03  0.41800000000E+01 0.  1.
        -11    1    1    2    0    0  0.32069107044E+02  0.14161557946E+02 -0.12690794896E+03  0.13166094660E+03  0.00000000000E+00 0. -1.
         11    1    1    2    0    0 -0.18228194440E+01 -0.18091958737E+02  0.70218920534E+01  0.19492270511E+02  0.00000000000E+00 0.  1.
</event>
<event>
 7    1  0.2855090E-009  0.1077511E+03  0.7561462E-02  0.1264792E+00
          1   -1    0    0  501    0  0.00000000000E+00  0.00000000000E+00  0.20778977077E+03  0.20778977077E+03  0.00000000000E+00 0. -1.
         -1   -1    0    0    0  501 -0.00000000000E+00 -0.00000000000E+00 -0.81576567547E+02  0.81576567547E+02  0.00000000000E+00 0.  1.
         25    2    1    2    0    0 -0.60006275383E+02 -0.26919143747E+02  0.10216389597E+03  0.17440215856E+03  0.12511298047E+03 0.  0.
          5    1    3    3  502    0  0.11742239067E+02 -0.56278079950E+02  0.19143594432E+02  0.60737567196E+02  0.41800000000E+01 0. -1.
         -5    1    3    3    0  502 -0.71748514450E+02  0.29358936202E+02  0.83020301543E+02  0.11366459136E+03  0.41800000000E+01 0. -1.
        -11    1    1    2    0    0  0.15145916537E+02 -0.13163132151E+02 -0.28656197727E+02  0.34983489019E+02  0.00000000000E+00 0.  1.
         11    1    1    2    0    0  0.44860358846E+02  0.40082275899E+02  0.52705504976E+02  0.79980690744E+02  0.00000000000E+00 0. -1.
</event>
<event>
 7    1  0.2855090E-009  0.1283384E+03  0.7561462E-02  0.1229942E+00
          4   -1    0    0  501    0  0.00000000000E+00  0.00000000000E+00  0.13084294879E+03  0.13084294879E+03  0.00000000000E+00 0. -1.
         -4   -1    0    0    0  501 -0.00000000000E+00 -0.00000000000E+00 -0.14202214853E+03  0.14202214853E+03  0.00000000000E+00 0.  1.
         25    2    1    2    0    0  0.52837634534E+02 -0.61947803991E+02  0.17785762476E+01  0.14924590036E+03  0.12506729947E+03 0.  0.
          5    1    3    3  502    0  0.92101454629E+02 -0.53260698676E+02  0.13056936940E+02  0.10727225163E+03  0.41800000000E+01 0.  1.
         -5    1    3    3    0  502 -0.39263820095E+02 -0.86871053153E+01 -0.11278360692E+02  0.41973648723E+02  0.41800000000E+01 0.  1.
        -11    1    1    2    0    0 -0.56959068254E+02  0.10205691727E+02 -0.34556085300E+02  0.67398921588E+02  0.00000000000E+00 0.  1.
         11    1    1    2    0    0  0.41214337198E+01  0.51742112264E+02  0.21598309313E+02  0.56220275370E+02  0.00000000000E+00 0. -1.
</event>
<event>
 7    1  0.2855090E-009  0.1566833E+03  0.7561462E-02  0.1192493E+00
         -1   -1    0    0    0  501 -0.00000000000E+00  0.00000000000E+00  0.52759931512E+03  0.52759931512E+03  0.00000000000E+00 0.  1.
          1   -1    0    0  501    0  0.00000000000E+00 -0.00000000000E+00 -0.64422530355E+02  0.64422530355E+02  0.00000000000E+00 0. -1.
         25    2    1    2    0    0  0.11125273474E+03  0.83448571227E+02  0.17604806577E+03  0.25687215588E+03  0.12509815338E+03 0.  0.
          5    1    3    3  502    0  0.74979000274E+02 -0.78634666792E+01  0.30983962739E+02  0.81615947813E+02  0.41800000000E+01 0. -1.
         -5    1    3    3    0  502  0.36273734470E+02  0.91312037907E+02  0.14506410303E+03  0.17525620807E+03  0.41800000000E+01 0. -1.
        -11    1    1    2    0    0 -0.36008909646E+02 -0.33678621573E+02  0.21227152990E+03  0.21792221899E+03  0.00000000000E+00 0.  1.
         11    1    1    2    0    0 -0.75243825098E+02 -0.49769949655E+02  0.74857189096E+02  0.11722747060E+03  0.00000000000E+00 0. -1.
</event>
<event>
 7    1  0.2855090E-009  0.1178744E+03  0.7561462E-02  0.1246645E+00
         -1   -1    0    0    0  501 -0.00000000000E+00  0.00000000000E+00  0.42220272478E+02  0.42220272478E+02  0.00000000000E+00 0.  1.
          1   -1    0    0  501    0  0.00000000000E+00 -0.00000000000E+00 -0.35258283618E+03  0.35258283618E+03  0.00000000000E+00 0. -1.
         25    2    1    2    0    0  0.54207667986E+02  0.14125991967E+02 -0.15801382003E+03  0.20917590989E+03  0.12509268181E+03 0.  0.
          5    1    3    3  502    0 -0.38587138365E+02 -0.38525288086E+01 -0.26456459289E+02  0.47129882914E+02  0.41800000000E+01 0. -1.
         -5    1    3    3    0  502  0.92794806350E+02  0.17978520775E+02 -0.13155736074E+03  0.16204602698E+03  0.41800000000E+01 0. -1.
        -11    1    1    2    0    0 -0.55118720543E+02  0.26735691680E+02 -0.11481474302E+03  0.13013568219E+03  0.00000000000E+00 0. -1.
         11    1    1    2    0    0  0.91105255735E+00 -0.40861683647E+02 -0.37534000664E+02  0.55491516587E+02  0.00000000000E+00 0.  1.
</event>
<event>
 7    1  0.2855090E-009  0.1248474E+03  0.7561462E-02  0.1235308E+00
          2   -1    0    0  501    0  0.00000000000E+00  0.00000000000E+00  0.14009711217E+04  0.14009711217E+04  0.00000000000E+00 0. -1.
         -2   -1    0    0    0  501 -0.00000000000E+00 -0.00000000000E+00 -0.16383134186E+02  0.16383134186E+02  0.00000000000E+00 0.  1.
         25    2    1    2    0    0 -0.49763628059E+01  0.94230592003E+02  0.97095080000E+03  0.98351249159E+03  0.12508875427E+03 0.  0.
          5    1    3    3  502    0 -0.30101050525E+02  0.76492197293E+01  0.63125389513E+03  0.63203127796E+03  0.41800000000E+01 0. -1.
         -5    1    3    3    0  502  0.25124687719E+02  0.86581372274E+02  0.33969690487E+03  0.35148121364E+03  0.41800000000E+01 0. -1.
        -11    1    1    2    0    0 -0.24787297281E+02 -0.95153494853E+02  0.27522372528E+03  0.29226134991E+03  0.00000000000E+00 0.  1.
         11    1    1    2    0    0  0.29763660087E+02  0.92290285018E+00  0.13841346225E+03  0.14158041440E+03  0.00000000000E+00 0. -1.
</event>
<event>
 7    1  0.2855090E-009  0.1561493E+03  0.7561462E-02  0.1193114E+00
          1   -1    0    0  501    0  0.00000000000E+00  0.00000000000E+00  0.26466306239E+02  0.26466306239E+02  0.00000000000E+00 0. -1.
         -1   -1    0    0    0  501 -0.00000000000E+00 -0.00000000000E+00 -0.11006575362E+04  0.11006575362E+04  0.00000000000E+00 0.  1.
         25    2    1    2    0    0 -0.30636326921E+02  0.12690318622E+03 -0.59801884759E+03  0.62475608264E+03  0.12510242812E+03 0.  0.
          5    1    3    3  502    0  0.34571310623E+02  0.70408504632E+02 -0.41511825982E+03  0.42248452643E+03  0.41800000000E+01 0.  1.
         -5    1    3    3    0  502 -0.65207637544E+02  0.56494681589E+02 -0.18290058777E+03  0.20227155620E+03  0.41800000000E+01 0.  1.
        -11    1    1    2    0    0 -0.13175155741E+02 -0.87376928889E+02 -0.37477180229E+03  0.38504832972E+03  0.00000000000E+00 0.  1.
         11    1    1    2    0    0  0.43811482662E+02 -0.39526257333E+02 -0.10140058005E+03  0.11731943004E+03  0.00000000000E+00 0. -1.
</event>
<event>
 7    1  0.2855090E-009  0.9314772E+02  0.7561462E-02  0.1295403E+00
         -1   -1    0    0    0  501 -0.00000000000E+00  0.00000000000E+00  0.54093581161E+03  0.54093581161E+03  0.00000000000E+00 0.  1.
          1   -1    0    0  501    0  0.00000000000E+00 -0.00000000000E+00 -0.29865043316E+02  0.29865043316E+02  0.00000000000E+00 0. -1.
         25    2    1    2    0    0  0.63625247868E+02 -0.16875811254E+02  0.26245501684E+03  0.29809980650E+03  0.12509154089E+03 0.  0.
          5    1    3    3  502    0 -0.92257770082E+01  0.13547533504E+02  0.19034247441E+03  0.19109259690E+03  0.41800000000E+01 0.  1.
         -5    1    3    3    0  502  0.72851024876E+02 -0.30423344758E+02  0.72112542423E+02  0.10700720960E+03  0.41800000000E+01 0.  1.
        -11    1    1    2    0    0 -0.51868613599E+02  0.39250571848E+02  0.23531507144E+03  0.24413959801E+03  0.00000000000E+00 0.  1.
         11    1    1    2    0    0 -0.11756634269E+02 -0.22374760594E+02  0.13300680014E+02  0.28561450415E+02  0.00000000000E+00 0. -1.
</event>
<event>
 7    1  0.2855090E-009  0.1149060E+03  0.7561462E-02  0.1251745E+00
          1   -1    0    0  501    0  0.00000000000E+00  0.00000000000E+00  0.14378200420E+03  0.14378200420E+03  0.00000000000E+00 0. -1.
         -1   -1    0    0    0  501 -0.00000000000E+00 -0.00000000000E+00 -0.12078121003E+03  0.12078121003E+03  0.00000000000E+00 0.  1.
         25    2    1    2    0    0 -0.36624878775E+01  0.75484466260E+02  0.17422740566E+02  0.14718205095E+03  0.12509071017E+03 0.  0.
          5    1    3    3  502    0  0.41532030514E+02  0.96968594370E+01  0.45467304272E+02  0.62479491029E+02  0.41800000000E+01 0.  1.
         -5    1    3    3    0  502 -0.45194518392E+02  0.65787606823E+02 -0.28044563705E+02  0.84702559924E+02  0.41800000000E+01 0.  1.
        -11    1    1    2    0    0 -0.33867280475E+02 -0.17921041748E+02  0.25268968904E+02  0.45898553502E+02  0.00000000000E+00 0. -1.
         11    1    1    2    0    0  0.37529768352E+02 -0.57563424512E+02 -0.19690915298E+02  0.71482609769E+02  0.00000000000E+00 0.  1.
</event>
<event>
 7    1  0.2855090E-009  0.1192844E+03  0.7561462E-02  0.1244282E+00
         -2   -1    0    0    0  501 -0.00000000000E+00  0.00000000000E+00  0.61448557065E+02  0.61448557065E+02  0.00000000000E+00 0.  1.
          2   -1    0    0  501    0  0.00000000000E+00 -0.00000000000E+00 -0.24530132671E+03  0.24530132671E+03  0.00000000000E+00 0. -1.
         25    2    1    2    0    0  0.46164567960E+02  0.17560262316E+02 -0.13883555534E+03  0.19329538609E+03  0.12509302422E+03 0.  0.
          5    1    3    3  502    0  0.75533515216E+02  0.49846975119E+02 -0.91068926208E+02  0.12845643063E+03  0.41800000000E+01 0. -1.
         -5    1    3    3    0  502 -0.29368947256E+02 -0.32286712802E+02 -0.47766629128E+02  0.64838955457E+02  0.41800000000E+01 0. -1.
        -11    1    1    2    0    0 -0.73516364424E+02 -0.40666885648E+01 -0.32652282417E+02  0.80544182540E+02  0.00000000000E+00 0.  1.
         11    1    1    2    0    0  0.27351796464E+02 -0.13493573751E+02 -0.12364931890E+02  0.32910315146E+02  0.00000000000E+00 0. -1.
</event>
<event>
 7    1  0.2855090E-009  0.1431218E+03  0.7561462E-02  0.1209189E+00
          1   -1    0    0  501    0  0.00000000000E+00  0.00000000000E+00  0.89082212490E+03  0.89082212490E+03  0.00000000000E+00 0. -1.
         -1   -1    0    0    0  501 -0.00000000000E+00 -0.00000000000E+00 -0.27863232975E+02  0.27863232975E+02  0.00000000000E+00 0.  1.
         25    2    1    2    0    0 -0.31399835707E+02  0.10823513538E+03  0.45991918455E+03  0.48977042828E+03  0.12509445188E+03 0.  0.
          5    1    3    3  502    0 -0.29646313835E+02 -0.14173920122E+01  0.19206580625E+02  0.35598849187E+02  0.41800000000E+01 0. -1.
         -5    1    3    3    0  502 -0.17535218726E+01  0.10965252739E+03  0.44071260392E+03  0.45417157910E+03  0.41800000000E+01 0. -1.
        -11    1    1    2    0    0  0.25189896372E+02  0.10742355294E+02  0.67004506450E+02  0.72384618263E+02  0.00000000000E+00 0. -1.
         11    1    1    2    0    0  0.62099393351E+01 -0.11897749067E+03  0.33603520092E+03  0.35653031133E+03  0.00000000000E+00 0.  1.
</event>
<event>
 7    1  0.2855090E-009  0.1022256E+03  0.7561462E-02  0.1275684E+00
         -1   -1    0    0    0  501 -0.00000000000E+00  0.00000000000E+00  0.71575670245E+02  0.71575670245E+02  0.00000000000E+00 0.  1.
          1   -1    0    0  501    0  0.00000000000E+00 -0.00000000000E+00 -0.18295408437E+03  0.18295408437E+03  0.00000000000E+00 0. -1.
         25    2    1    2    0    0  0.34650084769E+02 -0.67711757517E+01 -0.63868305277E+02  0.14480466177E+03  0.12507098966E+03 0.  0.
          5    1    3    3  502    0  0.55258607597E+02 -0.42833402020E+02 -0.18743749667E+01  0.70065681497E+02  0.41800000000E+01 0.  1.
         -5    1    3    3    0  502 -0.20608522828E+02  0.36062226268E+02 -0.61993930311E+02  0.74738980271E+02  0.41800000000E+01 0.  1.
        -11    1    1    2    0    0  0.19418494810E+02 -0.23670220408E+02 -0.34866800190E+02  0.46400980920E+02  0.00000000000E+00 0. -1.
         11    1    1    2    0    0 -0.54068579579E+02  0.30441396159E+02 -0.12643308662E+02  0.63324111930E+02  0.00000000000E+00 0.  1.
</event>
<event>
 7    1  0.2855090E-009  0.7552533E+02  0.7561462E-02  0.1342252E+00
          1   -1    0    0  501    0  0.00000000000E+00  0.00000000000E+00  0.36530819323E+03  0.36530819323E+03  0.00000000000E+00 0. -1.
         -1   -1    0    0    0  501 -0.00000000000E+00 -0.00000000000E+00 -0.42945757636E+02  0.42945757636E+02  0.00000000000E+00 0.  1.
         25    2    1    2    0    0 -0.16095186891E+02 -0.55979045740E+02  0.13893187333E+03  0.19581229972E+03  0.12509069786E+03 0.  0.
          5    1    3    3  502    0 -0.37291651196E+00 -0.16583955208E+02 -0.22830830693E+02  0.28528684989E+02  0.41800000000E+01 0.  1.
         -5    1    3    3    0  502 -0.15722270379E+02 -0.39395090532E+02  0.16176270402E+03  0.16728361473E+03  0.41800000000E+01 0.  1.
        -11    1    1    2    0    0  0.20039809630E+02  0.72044304909E+02  0.87525336715E+02  0.11512019982E+03  0.00000000000E+00 0.  1.
         11    1    1    2    0    0 -0.39446227382E+01 -0.16065259169E+02  0.95905225545E+02  0.97321451323E+02  0.00000000000E+00 0. -1.
</event>
<event>
 7    1  0.2855090E-009  0.1109769E+03  0.7561462E-02  0.1258771E+00
         -1   -1    0    0    0  501 -0.00000000000E+00  0.00000000000E+00  0.82470275162E+02  0.82470275162E+02  0.00000000000E+00 0.  1.
          1   -1    0    0  501    0  0.00000000000E+00 -0.00000000000E+00 -0.20082941870E+03  0.20082941870E+03  0.00000000000E+00 0. -1.
         25    2    1    2    0    0 -0.52297159793E+02 -0.30696480685E+02 -0.28465312000E+02  0.14189802146E+03  0.12508999823E+03 0.  0.
          5    1    3    3  502    0 -0.19535922399E+02 -0.63587599995E+02 -0.56610436530E+02  0.87448550938E+02  0.41800000000E+01 0.  1.
         -5    1    3    3    0  502 -0.32761237394E+02  0.32891119309E+02  0.28145124530E+02  0.54449470519E+02  0.41800000000E+01 0.  1.
        -11    1    1    2    0    0  0.77249256599E+02  0.13584702785E+02 -0.58893947801E+02  0.98084090873E+02  0.00000000000E+00 0.  1.
         11    1    1    2    0    0 -0.24952096806E+02  0.17111777901E+02 -0.30999883735E+02  0.43317581529E+02  0.00000000000E+00 0. -1.
</event>
<event>
 7    1  0.2855090E-009  0.9658737E+02  0.7561462E-02  0.1287640E+00
         -1   -1    0    0    0  501 -0.00000000000E+00  0.00000000000E+00  0.34811387371E+03  0.34811387371E+03  0.00000000000E+00 0.  1.
          1   -1    0    0  501    0  0.00000000000E+00 -0.00000000000E+00 -0.67054141374E+02  0.67054141374E+02  0.00000000000E+00 0. -1.
         25    2    1    2    0    0  0.17703425940E+02 -0.37029614553E+01  0.29619993509E+03  0.32203137866E+03  0.12507071632E+03 0.  0.
          5    1    3    3  502    0 -0.21859082140E+02  0.51671161209E+02  0.16223604145E+03  0.17171410518E+03  0.41800000000E+01 0. -1.
         -5    1    3    3    0  502  0.39562508081E+02 -0.55374122665E+02  0.13396389364E+03  0.15031727348E+03  0.41800000000E+01 0. -1.
        -11    1    1    2    0    0 -0.40444044911E+02  0.15254232006E+02 -0.38993730510E+02  0.58214460248E+02  0.00000000000E+00 0. -1.
         11    1    1    2    0    0  0.22740618971E+02 -0.11551270551E+02  0.23853527755E+02  0.34922176176E+02  0.00000000000E+00 0.  1.
</event>
<event>
 7    1  0.2855090E-009  0.1961608E+03  0.7561462E-02  0.1153019E+00
         -1   -1    0    0    0  501 -0.00000000000E+00  0.00000000000E+00  0.84872662690E+02  0.84872662690E+02  0.00000000000E+00 0.  1.
          1   -1    0    0  501    0  0.00000000000E+00 -0.00000000000E+00 -0.45854007185E+03  0.45854007185E+03  0.00000000000E+00 0. -1.
         25    2    1    2    0    0 -0.10886785981E+03 -0.12243220559E+03 -0.19023473960E+03  0.28049730997E+03  0.12509048280E+03 0.  0.
          5    1    3    3  502    0 -0.13591517111E+03 -0.95191847803E+02 -0.16685800052E+03  0.23535820862E+03  0.41800000000E+01 0. -1.
         -5    1    3    3    0  502  0.27047311303E+02 -0.27240357782E+02 -0.23376739081E+02  0.45139101352E+02  0.41800000000E+01 0. -1.
        -11    1    1    2    0    0  0.56805139688E+02  0.23690690476E+01 -0.45891507137E+02  0.73064812396E+02  0.00000000000E+00 0. -1.
         11    1    1    2    0    0  0.52062720123E+02  0.12006313654E+03 -0.13754116242E+03  0.18985061217E+03  0.00000000000E+00 0.  1.
</event>
<event>
 7    1  0.2855090E-009  0.8318673E+02  0.7561462E-02  0.1320244E+00
         -2   -1    0    0    0  501 -0.00000000000E+00  0.00000000000E+00  0.32585910558E+02  0.32585910558E+02  0.00000000000E+00 0.  1.
          2   -1    0    0  501    0  0.00000000000E+00 -0.00000000000E+00 -0.44148910475E+03  0.44148910475E+03  0.00000000000E+00 0. -1.
         25    2    1    2    0    0  0.14851956073E+02  0.43943573510E+02 -0.24383412065E+03  0.27794660614E+03  0.12509044416E+03 0.  0.
          5    1    3    3  502    0  0.58915249296E+02  0.42615356482E+02 -0.20984478863E+03  0.22212470129E+03  0.41800000000E+01 0. -1.
         -5    1    3    3    0  502 -0.44063293223E+02  0.13282170281E+01 -0.33989332016E+02  0.55821904850E+02  0.41800000000E+01 0. -1.
        -11    1    1    2    0    0 -0.51358632790E+01 -0.36909387240E+02 -0.17599875852E+03  0.17990064747E+03  0.00000000000E+00 0. -1.
         11    1    1    2    0    0 -0.97160927935E+01 -0.70341862706E+01  0.10929684986E+02  0.16227761693E+02  0.00000000000E+00 0.  1.
</event>
<event>
 7    1  0.2855090E-009  0.7862273E+02  0.7561462E-02  0.1333006E+00
          2   -1    0    0  501    0  0.00000000000E+00  0.00000000000E+00  0.92383594828E+03  0.92383594828E+03  0.00000000000E+00 0.  1.
         -2   -1    0    0    0  501 -0.00000000000E+00 -0.00000000000E+00 -0.14851938691E+02  0.14851938691E+02  0.00000000000E+00 0. -1.
         25    2    1    2    0    0  0.52947726289E+01  0.53564449507E+02  0.59575956162E+03  0.61112491233E+03  0.12508804234E+03 0.  0.
          5    1    3    3  502    0  0.16008032978E+02  0.42027586585E+02  0.59286170916E+03  0.59457972867E+03  0.41800000000E+01 0. -1.
         -5    1    3    3    0  502 -0.10713260349E+02  0.11536862923E+02  0.28978524589E+01  0.16545183658E+02  0.41800000000E+01 0. -1.
        -11    1    1    2    0    0 -0.40008815041E+01  0.20917126919E+02  0.74757927848E+02  0.77732110659E+02  0.00000000000E+00 0.  1.
         11    1    1    2    0    0 -0.12938911249E+01 -0.74481576427E+02  0.23846652012E+03  0.24983086399E+03  0.00000000000E+00 0. -1.
</event>
<event>
 7    1  0.2855090E-009  0.7805558E+02  0.7561462E-02  0.1334662E+00
         -2   -1    0    0    0  501 -0.00000000000E+00  0.00000000000E+00  0.14337964031E+02  0.14337964031E+02  0.00000000000E+00 0.  1.
          2   -1    0    0  501    0  0.00000000000E+00 -0.00000000000E+00 -0.11656823191E+04  0.11656823191E+04  0.00000000000E+00 0. -1.
         25    2    1    2    0    0  0.42788667126E+02 -0.26921982446E+02 -0.84760824425E+03  0.85827992658E+03  0.12509609700E+03 0.  0.
          5    1    3    3  502    0  0.69487832120E+01 -0.19399451297E+02 -0.78743195660E+03  0.78771262715E+03  0.41800000000E+01 0. -1.
         -5    1    3    3    0  502  0.35839883914E+02 -0.75225311489E+01 -0.60176287646E+02  0.70567299429E+02  0.41800000000E+01 0. -1.
        -11    1    1    2    0    0  0.17609974958E+02  0.33120010086E+02 -0.61722388865E+02  0.72226723402E+02  0.00000000000E+00 0.  1.
         11    1    1    2    0    0 -0.60398642084E+02 -0.61980276396E+01 -0.24201372199E+03  0.24951363318E+03  0.00000000000E+00 0. -1.
</event>
<event>
 7    1  0.2855090E-009  0.1290411E+03  0.7561462E-02  0.1228885E+00
         -1   -1    0    0    0  501 -0.00000000000E+00  0.00000000000E+00  0.40893332368E+02  0.40893332368E+02  0.00000000000E+00 0.  1.
          1   -1    0    0  501    0  0.00000000000E+00 -0.00000000000E+00 -0.47087727647E+03  0.47087727647E+03  0.00000000000E+00 0. -1.
         25    2    1    2    0    0 -0.64615725501E+02 -0.53557788756E+02 -0.16700738768E+03  0.22490568274E+03  0.12508984719E+03 0.  0.
          5    1    3    3  502    0 -0.31794405404E+02  0.35891259818E+02 -0.91025150313E+02  0.10296658262E+03  0.41800000000E+01 0.  1.
         -5    1    3    3    0  502 -0.32821320097E+02 -0.89449048574E+02 -0.75982237369E+02  0.12193910012E+03  0.41800000000E+01 0.  1.
        -11    1    1    2    0    0  0.80672204331E+02  0.29998630290E+02 -0.19479187044E+03  0.21295960922E+03  0.00000000000E+00 0. -1.
         11    1    1    2    0    0 -0.16056478830E+02  0.23559158466E+02 -0.68184685981E+02  0.73905316875E+02  0.00000000000E+00 0.  1.
</event>
<event>
 7    1  0.2855090E-009  0.2147661E+03  0.7561462E-02  0.1137846E+00
          2   -1    0    0  501    0  0.00000000000E+00  0.00000000000E+00  0.27429865364E+03  0.27429865364E+03  0.00000000000E+00 0. -1.
         -2   -1    0    0    0  501 -0.00000000000E+00 -0.00000000000E+00 -0.19225103501E+03  0.19225103501E+03  0.00000000000E+00 0.  1.
         25    2    1    2    0    0  0.85875526596E+01  0.19814061415E+03 -0.37579540688E+01  0.23450249627E+03  0.12507537529E+03 0.  0.
          5    1    3    3  502    0  0.54031364915E+02  0.16003337831E+03  0.20681814450E+02  0.17022126899E+03  0.41800000000E+01 0. -1.
         -5    1    3    3    0  502 -0.45443812256E+02  0.38107235836E+02 -0.24439768519E+02  0.64281227280E+02  0.41800000000E+01 0. -1.
        -11    1    1    2    0    0  0.10127410594E+02 -0.13179283734E+03  0.14676681761E+02  0.13299368935E+03  0.00000000000E+00 0.  1.
         11    1    1    2    0    0 -0.18714963253E+02 -0.66347776804E+02  0.71128890940E+02  0.99053503032E+02  0.00000000000E+00 0. -1.
</event>
<event>
 7    1  0.3662139E-009  0.1598990E+03  0.7561462E-02  0.1188811E+00
         -2   -1    0    0    0  501 -0.00000000000E+00  0.00000000000E+00  0.35633471846E+02  0.35633471846E+02  0.00000000000E+00 0.  1.
          2   -1    0    0  501    0  0.00000000000E+00 -0.00000000000E+00 -0.10439390249E+04  0.10439390249E+04  0.00000000000E+00 0. -1.
         25    2    1    2    0    0  0.13454031192E+03  0.72144211183E+02 -0.65730547947E+03  0.68629782603E+03  0.12509328494E+03 0.  0.
          5    1    3    3  502    0  0.50892014796E+02  0.49486813846E+01 -0.44923176288E+03  0.45215167344E+03  0.41800000000E+01 0.  1.
         -5    1    3    3    0  502  0.83648297122E+02  0.67195529799E+02 -0.20807371659E+03  0.23414615259E+03  0.41800000000E+01 0.  1.
        -11    1    1    2    0    0 -0.11165756452E+03 -0.34145140892E+02 -0.16548564758E+03  0.20253099002E+03  0.00000000000E+00 0.  1.
         11    1    1    2    0    0 -0.22882747393E+02 -0.37999070291E+02 -0.18551442602E+03  0.19074368072E+03  0.00000000000E+00 0. -1.
</event>
<event>
 7    1  0.2855090E-009  0.8723159E+02  0.7561462E-02  0.1309698E+00
          2   -1    0    0  501    0  0.00000000000E+00  0.00000000000E+00  0.64939696814E+03  0.64939696814E+03  0.00000000000E+00 0. -1.
         -2   -1    0    0    0  501 -0.00000000000E+00 -0.00000000000E+00 -0.21670038000E+02  0.21670038000E+02  0.00000000000E+00 0.  1.
         25    2    1    2    0    0 -0.30484076933E+02  0.31780956600E+02  0.43868151426E+03  0.45829361604E+03  0.12510899007E+03 0.  0.
          5    1    3    3  502    0 -0.42483018028E+02 -0.23034110331E+02  0.68937126602E+02  0.84292211287E+02  0.41800000000E+01 0. -1.
         -5    1    3    3    0  502  0.11998941095E+02  0.54815066930E+02  0.36974438766E+03  0.37400140475E+03  0.41800000000E+01 0. -1.
        -11    1    1    2    0    0  0.27136950179E+02 -0.46909958550E+02  0.18967555503E+03  0.19726574576E+03  0.00000000000E+00 0. -1.
         11    1    1    2    0    0  0.33471267546E+01  0.15129001951E+02 -0.63013915238E+00  0.15507644337E+02  0.00000000000E+00 0.  1.
</event>
<event>
 7    1  0.2855090E-009  0.1313755E+03  0.7561462E-02  0.1225429E+00
         -1   -1    0    0    0  501 -0.00000000000E+00  0.00000000000E+00  0.14364685470E+03  0.14364685470E+03  0.00000000000E+00 0.  1.
          1   -1    0    0  501    0  0.00000000000E+00 -0.00000000000E+00 -0.16324734483E+03  0.16324734483E+03  0.00000000000E+00 0. -1.
         25    2    1    2    0    0 -0.50675741760E+02  0.64336380639E+02 -0.79203695122E+02  0.16920176949E+03  0.12509521494E+03 0.  0.
          5    1    3    3  502    0 -0.15202969026E+02 -0.37319024842E+02 -0.31726447958E+02  0.51457553211E+02  0.41800000000E+01 0.  1.
         -5    1    3    3    0  502 -0.35472772734E+02  0.10165540548E+03 -0.47477247164E+02  0.11774421628E+03  0.41800000000E+01 0.  1.
        -11    1    1    2    0    0 -0.13032479833E+02 -0.46557926840E+02 -0.45766994296E+00  0.48349721241E+02  0.00000000000E+00 0. -1.
         11    1    1    2    0    0  0.63708221593E+02 -0.17778453799E+02  0.60060874928E+02  0.89342708797E+02  0.00000000000E+00 0.  1.
</event>
<event>
 7    1  0.2855090E-009  0.1123600E+03  0.7561462E-02  0.1256261E+00
         -2   -1    0    0    0  501 -0.00000000000E+00  0.00000000000E+00  0.22180111231E+02  0.22180111231E+02  0.00000000000E+00 0.  1.
          2   -1    0    0  501    0  0.00000000000E+00 -0.00000000000E+00 -0.90032279500E+03  0.90032279500E+03  0.00000000000E+00 0. -1.
         25    2    1    2    0    0 -0.39185977052E+02 -0.81560317980E+02 -0.47664012237E+03  0.50102154890E+03  0.12509660242E+03 0.  0.
          5    1    3    3  502    0 -0.60033066288E+02 -0.32495403893E+02 -0.40958381893E+03  0.41525449721E+03  0.41800000000E+01 0. -1.
         -5    1    3    3    0  502  0.20847089236E+02 -0.49064914087E+02 -0.67056303437E+02  0.85767051684E+02  0.41800000000E+01 0. -1.
        -11    1    1    2    0    0  0.99646522456E+01 -0.52467018703E+01 -0.17827569631E+01  0.11401771673E+02  0.00000000000E+00 0.  1.
         11    1    1    2    0    0  0.29221324806E+02  0.86807019850E+02 -0.39971980444E+03  0.41007958567E+03  0.00000000000E+00 0. -1.
</event>
<event>
 7    1  0.2855090E-009  0.1824450E+03  0.7561462E-02  0.1165458E+00
          1   -1    0    0  501    0  0.00000000000E+00  0.00000000000E+00  0.21025450121E+03  0.21025450121E+03  0.00000000000E+00 0. -1.
         -1   -1    0    0    0  501 -0.00000000000E+00 -0.00000000000E+00 -0.19684821201E+03  0.19684821201E+03  0.00000000000E+00 0.  1.
         25    2    1    2    0    0  0.16944078538E+03  0.11812536929E+01  0.16246898181E+02  0.21124147813E+03  0.12508966891E+03 0.  0.
          5    1    3    3  502    0  0.28762829339E+02  0.67460364740E+01  0.57237766932E+02  0.64547995500E+02  0.41800000000E+01 0. -1.
         -5    1    3    3    0  502  0.14067795604E+03 -0.55647827811E+01 -0.40990868752E+02  0.14669348263E+03  0.41800000000E+01 0. -1.
        -11    1    1    2    0    0 -0.11555987978E+03 -0.45740678398E+02  0.10332602004E+02  0.12471190055E+03  0.00000000000E+00 0. -1.
         11    1    1    2    0    0 -0.53880905605E+02  0.44559424706E+02 -0.13173210981E+02  0.71149334547E+02  0.00000000000E+00 0.  1.
</event>
<event>
 7    1  0.2855090E-009  0.1293618E+03  0.7561462E-02  0.1228406E+00
          1   -1    0    0  501    0  0.00000000000E+00  0.00000000000E+00  0.12467656164E+03  0.12467656164E+03  0.00000000000E+00 0. -1.
         -1   -1    0    0    0  501 -0.00000000000E+00 -0.00000000000E+00 -0.21782340999E+03  0.21782340999E+03  0.00000000000E+00 0.  1.
         25    2    1    2    0    0 -0.36021952185E+02  0.67416117631E+02 -0.15111380853E+03  0.21053720078E+03  0.12509202943E+03 0.  0.
          5    1    3    3  502    0 -0.44657811589E+02 -0.22280803822E+02 -0.26389462540E+02  0.56609455819E+02  0.41800000000E+01 0.  1.
         -5    1    3    3    0  502  0.86358594046E+01  0.89696921453E+02 -0.12472434599E+03  0.15392774496E+03  0.41800000000E+01 0.  1.
        -11    1    1    2    0    0  0.50697662864E+02 -0.13072734165E+01  0.21931738112E+02  0.55253625404E+02  0.00000000000E+00 0.  1.
         11    1    1    2    0    0 -0.14675710680E+02 -0.66108844214E+02  0.36035222066E+02  0.76709145456E+02  0.00000000000E+00 0. -1.
</event>
<event>
 7    1  0.2855090E-009  0.1144830E+03  0.7561462E-02  0.1252486E+00
          1   -1    0    0  501    0  0.00000000000E+00  0.00000000000E+00  0.78025471981E+03  0.78025471981E+03  0.00000000000E+00 0. -1.
         -1   -1    0    0    0  501 -0.00000000000E+00 -0.00000000000E+00 -0.22108270109E+02  0.22108270109E+02  0.00000000000E+00 0.  1.
         25    2    1    2    0    0  0.80861396460E+01 -0.72781902516E+02  0.35188087107E+03  0.38057062330E+03  0.12510499952E+03 0.  0.
          5    1    3    3  502    0  0.59625739690E+02 -0.23791519347E+02  0.23543233686E+03  0.24406376803E+03  0.41800000000E+01 0. -1.
         -5    1    3    3    0  502 -0.51539600044E+02 -0.48990383169E+02  0.11644853421E+03  0.13650685527E+03  0.41800000000E+01 0. -1.
        -11    1    1    2    0    0  0.13140575732E+01  0.80942776404E+02  0.39950924058E+03  0.40762862155E+03  0.00000000000E+00 0. -1.
         11    1    1    2    0    0 -0.94001972192E+01 -0.81608738882E+01  0.67563380437E+01  0.14163745061E+02  0.00000000000E+00 0.  1.
</event>
<event>
 7    1  0.2855090E-009  0.1314396E+03  0.7561462E-02  0.1225335E+00
         -3   -1    0    0    0  501 -0.00000000000E+00  0.00000000000E+00  0.45197658410E+03  0.45197658410E+03  0.00000000000E+00 0.  1.
          3   -1    0    0  501    0  0.00000000000E+00 -0.00000000000E+00 -0.53171705374E+02  0.53171705374E+02  0.00000000000E+00 0. -1.
         25    2    1    2    0    0 -0.89739162289E+02  0.61033254586E+02  0.18385608966E+03  0.24744475377E+03  0.12509064334E+03 0.  0.
          5    1    3    3  502    0 -0.51686679966E+02  0.11028874357E+01  0.16950212754E+01  0.51894843132E+02  0.41800000000E+01 0.  1.
         -5    1    3    3    0  502 -0.38052482323E+02  0.59930367150E+02  0.18216106838E+03  0.19554991064E+03  0.41800000000E+01 0.  1.
        -11    1    1    2    0    0 -0.14714544208E+01 -0.47695263350E+02  0.52672070826E+02  0.71072852548E+02  0.00000000000E+00 0. -1.
         11    1    1    2    0    0  0.91210616709E+02 -0.13337991235E+02  0.16227671825E+03  0.18663068316E+03  0.00000000000E+00 0.  1.
</event>
<event>
 7    1  0.2855090E-009  0.8807711E+02  0.7561462E-02  0.1307576E+00
         -3   -1    0    0    0  501 -0.00000000000E+00  0.00000000000E+00  0.64996495174E+02  0.64996495174E+02  0.00000000000E+00 0.  1.
          3   -1    0    0  501    0  0.00000000000E+00 -0.00000000000E+00 -0.24599814621E+03  0.24599814621E+03  0.00000000000E+00 0. -1.
         25    2    1    2    0    0  0.60836331895E+02  0.19283425377E+02 -0.95862585310E+02  0.17002928282E+03  0.12508961580E+03 0.  0.
          5    1    3    3  502    0  0.23619130218E+02  0.23866424131E+02 -0.12037169428E+03  0.12503714127E+03  0.41800000000E+01 0.  1.
         -5    1    3    3    0  502  0.37217201677E+02 -0.45829987539E+01  0.24509108973E+02  0.44992141546E+02  0.41800000000E+01 0.  1.
        -11    1    1    2    0    0 -0.30894109544E+02  0.32455340802E+02 -0.62805616789E+02  0.77151413800E+02  0.00000000000E+00 0.  1.
         11    1    1    2    0    0 -0.29942222350E+02 -0.51738766179E+02 -0.22333448937E+02  0.63813944765E+02  0.00000000000E+00 0. -1.
</event>
<event>
 7    1  0.2855090E-009  0.9415770E+02  0.7561462E-02  0.1293085E+00
         -2   -1    0    0    0  501 -0.00000000000E+00  0.00000000000E+00  0.34937457904E+02  0.34937457904E+02  0.00000000000E+00 0.  1.
          2   -1    0    0  501    0  0.00000000000E+00 -0.00000000000E+00 -0.57278189725E+03  0.57278189725E+03  0.00000000000E+00 0. -1.
         25    2    1    2    0    0 -0.51732034594E+01  0.24324501575E+02 -0.47888122100E+03  0.49557399556E+03  0.12509163776E+03 0.  0.
          5    1    3    3  502    0 -0.48423902153E+02  0.21150783482E+02 -0.41426130801E+03  0.41763875977E+03  0.41800000000E+01 0.  1.
         -5    1    3    3    0  502  0.43250698694E+02  0.31737180921E+01 -0.64619912988E+02  0.77935235796E+02  0.41800000000E+01 0.  1.
        -11    1    1    2    0    0 -0.13780695936E+01 -0.57706035154E+02 -0.51412870343E+02  0.77299216076E+02  0.00000000000E+00 0. -1.
         11    1    1    2    0    0  0.65512730529E+01  0.33381533580E+02 -0.75503479972E+01  0.34846143512E+02  0.00000000000E+00 0.  1.
</event>
<event>
 7    1  0.2855090E-009  0.8718627E+02  0.7561462E-02  0.1309812E+00
         -2   -1    0    0    0  501 -0.00000000000E+00  0.00000000000E+00  0.48022114671E+02  0.48022114671E+02  0.00000000000E+00 0.  1.
          2   -1    0    0  501    0  0.00000000000E+00 -0.00000000000E+00 -0.29881826754E+03  0.29881826754E+03  0.00000000000E+00 0. -1.
         25    2    1    2    0    0  0.84580039637E+01  0.25527951233E+02 -0.22053754542E+03  0.25496522819E+03  0.12508894644E+03 0.  0.
          5    1    3    3  502    0 -0.34488335830E+02  0.51112386138E+02 -0.57604563899E+02  0.84484788613E+02  0.41800000000E+01 0.  1.
         -5    1    3    3    0  502  0.42946339793E+02 -0.25584434905E+02 -0.16293298152E+03  0.17048043957E+03  0.41800000000E+01 0.  1.
        -11    1    1    2    0    0  0.99438218404E+01  0.14943012003E+02 -0.42185247307E+02  0.45845046525E+02  0.00000000000E+00 0. -1.
         11    1    1    2    0    0 -0.18401825804E+02 -0.40470963236E+02  0.11926639855E+02  0.46030107499E+02  0.00000000000E+00 0.  1.
</event>
<event>
 7    1  0.2855090E-009  0.1264459E+03  0.7561462E-02  0.1232827E+00
          2   -1    0    0  501    0  0.00000000000E+00  0.00000000000E+00  0.10211354376E+04  0.10211354376E+04  0.00000000000E+00 0. -1.
         -2   -1    0    0    0  501 -0.00000000000E+00 -0.00000000000E+00 -0.21628579518E+02  0.21628579518E+02  0.00000000000E+00 0.  1.
         25    2    1    2    0    0 -0.15097008483E+02 -0.93306161637E+02  0.66324780421E+03  0.68152686830E+03  0.12508902012E+03 0.  0.
          5    1    3    3  502    0 -0.43986251278E+02  0.12673012079E+02  0.23025655309E+03  0.23479980446E+03  0.41800000000E+01 0. -1.
         -5    1    3    3    0  502  0.28889242796E+02 -0.10597917372E+03  0.43299125113E+03  0.44672706384E+03  0.41800000000E+01 0. -1.
        -11    1    1    2    0    0  0.20669478900E+02  0.78646140389E+02  0.33584395683E+03  0.34554826884E+03  0.00000000000E+00 0. -1.
         11    1    1    2    0    0 -0.55724704171E+01  0.14660021248E+02  0.41509703730E+00  0.15688879982E+02  0.00000000000E+00 0.  1.
</event>
<event>
 7    1  0.2855090E-009  0.9535321E+02  0.7561462E-02  0.1290383E+00
         -2   -1    0    0    0  501 -0.00000000000E+00  0.00000000000E+00  0.40914475721E+02  0.40914475721E+02  0.00000000000E+00 0.  1.
          2   -1    0    0  501    0  0.00000000000E+00 -0.00000000000E+00 -0.31796775041E+03  0.31796775041E+03  0.00000000000E+00 0. -1.
         25    2    1    2    0    0 -0.12496540971E+02 -0.32618832397E+02 -0.16864076584E+03  0.21284538396E+03  0.12507316981E+03 0.  0.
          5    1    3    3  502    0  0.23020487719E+02  0.23562139120E+02 -0.13345569333E+03  0.13752458593E+03  0.41800000000E+01 0.  1.
         -5    1    3    3    0  502 -0.35517028690E+02 -0.56180971517E+02 -0.35185072514E+02  0.75320798027E+02  0.41800000000E+01 0.  1.
        -11    1    1    2    0    0  0.44791189474E+02 -0.29500623096E+00 -0.26518914206E+02  0.52053726993E+02  0.00000000000E+00 0.  1.
         11    1    1    2    0    0 -0.32294648503E+02  0.32913838628E+02 -0.81893594644E+02  0.93983115180E+02  0.00000000000E+00 0. -1.
</event>
<event>
 7    1  0.2855090E-009  0.9856641E+02  0.7561462E-02  0.1283340E+00
         -2   -1    0    0    0  501 -0.00000000000E+00  0.00000000000E+00  0.64325937872E+02  0.64325937872E+02  0.00000000000E+00 0. -1.
          2   -1    0    0  501    0  0.00000000000E+00 -0.00000000000E+00 -0.33397439141E+03  0.33397439141E+03  0.00000000000E+00 0.  1.
         25    2    1    2    0    0  0.33695486333E+02 -0.68593838225E+02 -0.23041885945E+03  0.27309629912E+03  0.12509291491E+03 0.  0.
          5    1    3    3  502    0 -0.11420846481E+02  0.51255369150E+01 -0.16265561426E+03  0.16319015936E+03  0.41800000000E+01 0. -1.
         -5    1    3    3    0  502  0.45116332814E+02 -0.73719375140E+02 -0.67763245193E+02  0.10990613976E+03  0.41800000000E+01 0. -1.
        -11    1    1    2    0    0  0.20402894082E+01  0.60793297514E+02  0.12254251009E+02  0.62049612982E+02  0.00000000000E+00 0. -1.
         11    1    1    2    0    0 -0.35735775741E+02  0.78005407117E+01 -0.51483845096E+02  0.63154417178E+02  0.00000000000E+00 0.  1.
</event>
<event>
 7    1  0.2855090E-009  0.2252864E+03  0.7561462E-02  0.1130002E+00
          1   -1    0    0  501    0  0.00000000000E+00  0.00000000000E+00  0.18605650866E+03  0.18605650866E+03  0.00000000000E+00 0. -1.
         -1   -1    0    0    0  501 -0.00000000000E+00 -0.00000000000E+00 -0.34733646769E+03  0.34733646769E+03  0.00000000000E+00 0.  1.
         25    2    1    2    0    0 -0.17751855778E+03 -0.11501652972E+03 -0.17144914602E+03  0.29963672030E+03  0.12508282863E+03 0.  0.
          5    1    3    3  502    0 -0.19303695484E+03 -0.10201487059E+03 -0.17343673625E+03  0.27886927697E+03  0.41800000000E+01 0. -1.
         -5    1    3    3    0  502  0.15518397066E+02 -0.13001659137E+02  0.19875902305E+01  0.20767443336E+02  0.41800000000E+01 0. -1.
        -11    1    1    2    0    0  0.75953918947E+02  0.48520594933E+02  0.53555175308E+02  0.10483989097E+03  0.00000000000E+00 0. -1.
         11    1    1    2    0    0  0.10156463883E+03  0.66495934790E+02 -0.43385988321E+02  0.12891636509E+03  0.00000000000E+00 0.  1.
</event>
<event>
 7    1  0.2855090E-009  0.8061580E+02  0.7561462E-02  0.1327313E+00
         -2   -1    0    0    0  501 -0.00000000000E+00  0.00000000000E+00  0.32221693704E+03  0.32221693704E+03  0.00000000000E+00 0.  1.
          2   -1    0    0  501    0  0.00000000000E+00 -0.00000000000E+00 -0.46621143501E+02  0.46621143501E+02  0.00000000000E+00 0. -1.
         25    2    1    2    0    0 -0.32920885416E+02 -0.44137937079E+01  0.83807612488E+02  0.15419144125E+03  0.12509203961E+03 0.  0.
          5    1    3    3  502    0  0.14467647192E+02  0.71652609366E+01  0.10094812917E+03  0.10231642567E+03  0.41800000000E+01 0. -1.
         -5    1    3    3    0  502 -0.47388532607E+02 -0.11579054645E+02 -0.17140516684E+02  0.51875015579E+02  0.41800000000E+01 0. -1.
        -11    1    1    2    0    0  0.52746585258E+01 -0.41588978296E+02  0.97946677687E+02  0.10654115077E+03  0.00000000000E+00 0. -1.
         11    1    1    2    0    0  0.27646226890E+02  0.46002772004E+02  0.93841503365E+02  0.10810548852E+03  0.00000000000E+00 0.  1.
</event>
<event>
 7    1  0.2855090E-009  0.1120967E+03  0.7561462E-02  0.1256736E+00
          2   -1    0    0  501    0  0.00000000000E+00  0.00000000000E+00  0.49007537564E+02  0.49007537564E+02  0.00000000000E+00 0. -1.
         -2   -1    0    0    0  501 -0.00000000000E+00 -0.00000000000E+00 -0.30482854728E+03  0.30482854728E+03  0.00000000000E+00 0.  1.
         25    2    1    2    0    0  0.46770346416E+02  0.76699350001E+01 -0.89966922426E+02  0.16120816831E+03  0.12509089971E+03 0.  0.
          5    1    3    3  502    0 -0.38724414012E+02 -0.15213374694E+02 -0.12848683259E+02  0.43744577626E+02  0.41800000000E+01 0.  1.
         -5    1    3    3    0  502  0.85494760429E+02  0.22883309694E+02 -0.77118239167E+02  0.11746359068E+03  0.41800000000E+01 0.  1.
        -11    1    1    2    0    0  0.42031826628E+01  0.30063075469E+02 -0.29895148822E+02  0.42604872658E+02  0.00000000000E+00 0.  1.
         11    1    1    2    0    0 -0.50973529079E+02 -0.37733010469E+02 -0.13595893847E+03  0.15002304388E+03  0.00000000000E+00 0. -1.
</event>
<event>
 7    1  0.2855090E-009  0.1185955E+03  0.7561462E-02  0.1245432E+00
          2   -1    0    0  501    0  0.00000000000E+00  0.00000000000E+00  0.56755825407E+03  0.56755825407E+03  0.00000000000E+00 0. -1.
         -2   -1    0    0    0  501 -0.00000000000E+00 -0.00000000000E+00 -0.36066843309E+02  0.36066843309E+02  0.00000000000E+00 0.  1.
         25    2    1    2    0    0  0.26451653801E+02  0.79861262383E+02  0.24480359054E+03  0.28749514907E+03  0.12508857494E+03 0.  0.
          5    1    3    3  502    0  0.41879760348E+02  0.27165255979E+02  0.16646519412E+02  0.52786783078E+02  0.41800000000E+01 0.  1.
         -5    1    3    3    0  502 -0.15428106546E+02  0.52696006404E+02  0.22815707113E+03  0.23470836600E+03  0.41800000000E+01 0.  1.
        -11    1    1    2    0    0 -0.30962472651E+02 -0.10346574215E+03  0.21650583357E+03  0.24194753663E+03  0.00000000000E+00 0. -1.
         11    1    1    2    0    0  0.45108188499E+01  0.23604479767E+02  0.70181986654E+02  0.74182411678E+02  0.00000000000E+00 0.  1.
</event>
<event>
 7    1  0.2855090E-009  0.1026355E+03  0.7561462E-02  0.1274849E+00
         -1   -1    0    0    0  501 -0.00000000000E+00  0.00000000000E+00  0.14049270954E+03  0.14049270954E+03  0.00000000000E+00 0.  1.
          1   -1    0    0  501    0  0.00000000000E+00 -0.00000000000E+00 -0.11830917127E+03  0.11830917127E+03  0.00000000000E+00 0. -1.
         25    2    1    2    0    0 -0.54242388501E+02 -0.26863686988E+02  0.53320875623E+02  0.14885324010E+03  0.12510106683E+03 0.  0.
          5    1    3    3  502    0  0.11510788165E+02  0.36242854288E+02 -0.77948296939E+01  0.39041958213E+02  0.41800000000E+01 0.  1.
         -5    1    3    3    0  502 -0.65753176666E+02 -0.63106541277E+02  0.61115705317E+02  0.10981128189E+03  0.41800000000E+01 0.  1.
        -11    1    1    2    0    0  0.10669868207E+02  0.30252012477E+02  0.23657992409E+02  0.39858887984E+02  0.00000000000E+00 0.  1.
         11    1    1    2    0    0  0.43572520295E+02 -0.33883254889E+01 -0.54795329757E+02  0.70089752730E+02  0.00000000000E+00 0. -1.
</event>
<event>
 7    1  0.2855090E-009  0.9334519E+02  0.7561462E-02  0.1294947E+00
         -3   -1    0    0    0  501 -0.00000000000E+00  0.00000000000E+00  0.22458528438E+03  0.22458528438E+03  0.00000000000E+00 0.  1.
          3   -1    0    0  501    0  0.00000000000E+00 -0.00000000000E+00 -0.56064491611E+02  0.56064491611E+02  0.00000000000E+00 0. -1.
         25    2    1    2    0    0 -0.17362100555E+02  0.18216422551E+02  0.87765198326E+02  0.15488172086E+03  0.12510929954E+03 0.  0.
          5    1    3    3  502    0 -0.40370143071E+02  0.42447125241E+02 -0.22529178476E+01  0.58771208356E+02  0.41800000000E+01 0. -1.
         -5    1    3    3    0  502  0.23008042516E+02 -0.24230702691E+02  0.90018116174E+02  0.96110512499E+02  0.41800000000E+01 0. -1.
        -11    1    1    2    0    0 -0.33794286949E+02 -0.25873521897E+02  0.49705568204E+02  0.65438035394E+02  0.00000000000E+00 0.  1.
         11    1    1    2    0    0  0.51156387503E+02  0.76570993463E+01  0.31050026241E+02  0.60330019744E+02  0.00000000000E+00 0. -1.
</event>
<event>
 7    1  0.2855090E-009  0.1267405E+03  0.7561462E-02  0.1232374E+00
          2   -1    0    0  501    0  0.00000000000E+00  0.00000000000E+00  0.53093747648E+03  0.53093747648E+03  0.00000000000E+00 0. -1.
         -2   -1    0    0    0  501 -0.00000000000E+00 -0.00000000000E+00 -0.45407919928E+02  0.45407919928E+02  0.00000000000E+00 0.  1.
         25    2    1    2    0    0 -0.73772974009E+02  0.41270666257E+02  0.12624723170E+03  0.19680363322E+03  0.12509031516E+03 0.  0.
          5    1    3    3  502    0 -0.68339986353E+02 -0.18763717187E+02  0.11528874431E+03  0.13539349239E+03  0.41800000000E+01 0. -1.
         -5    1    3    3    0  502 -0.54329876562E+01  0.60034383444E+02  0.10958487396E+02  0.61410140827E+02  0.41800000000E+01 0. -1.
        -11    1    1    2    0    0  0.50588805357E+02 -0.69229417744E+02  0.24030060592E+03  0.25513980621E+03  0.00000000000E+00 0. -1.
         11    1    1    2    0    0  0.23184168652E+02  0.27958751486E+02  0.11898171893E+03  0.12440195698E+03  0.00000000000E+00 0.  1.
</event>
<event>
 7    1  0.2855090E-009  0.1074263E+03  0.7561462E-02  0.1265411E+00
          2   -1    0    0  501    0  0.00000000000E+00  0.00000000000E+00  0.21736414580E+03  0.21736414580E+03  0.00000000000E+00 0.  1.
         -2   -1    0    0    0  501 -0.00000000000E+00 -0.00000000000E+00 -0.60796835806E+02  0.60796835806E+02  0.00000000000E+00 0. -1.
         25    2    1    2    0    0 -0.20799956612E+02 -0.31781570788E+02  0.10473568443E+03  0.16750757536E+03  0.12508604147E+03 0.  0.
          5    1    3    3  502    0 -0.63293959349E+02  0.67555778001E+01  0.23522678013E+02  0.67989351390E+02  0.41800000000E+01 0.  1.
         -5    1    3    3    0  502  0.42494002737E+02 -0.38537148588E+02  0.81213006418E+02  0.99518223966E+02  0.41800000000E+01 0.  1.
        -11    1    1    2    0    0  0.31934491508E+02  0.57358210889E+02  0.50322935350E+02  0.82717434235E+02  0.00000000000E+00 0.  1.
         11    1    1    2    0    0 -0.11134534895E+02 -0.25576640101E+02  0.15086902128E+01  0.27935972014E+02  0.00000000000E+00 0. -1.
</event>
<event>
 7    1  0.2855090E-009  0.8991201E+02  0.7561462E-02  0.1303065E+00
         -2   -1    0    0    0  501 -0.00000000000E+00  0.00000000000E+00  0.58021295669E+03  0.58021295669E+03  0.00000000000E+00 0.  1.
          2   -1    0    0  501    0  0.00000000000E+00 -0.00000000000E+00 -0.68098898018E+02  0.68098898018E+02  0.00000000000E+00 0. -1.
         25    2    1    2    0    0 -0.70785745729E+02  0.81278996057E+01  0.22654063123E+02  0.14572901052E+03  0.12508818242E+03 0.  0.
          5    1    3    3  502    0 -0.31575425176E+02  0.19060010144E+02  0.72372995084E+02  0.81336426521E+02  0.41800000000E+01 0. -1.
         -5    1    3    3    0  502 -0.39210320553E+02 -0.10932110539E+02 -0.49718931961E+02  0.64392583999E+02  0.41800000000E+01 0. -1.
        -11    1    1    2    0    0  0.85081912820E+02 -0.14190902166E+02  0.46916515509E+03  0.47702856973E+03  0.00000000000E+00 0. -1.
         11    1    1    2    0    0 -0.14296167091E+02  0.60630025602E+01  0.20294840464E+02  0.25554274457E+02  0.00000000000E+00 0.  1.
</event>
<event>
 7    1  0.2855090E-009  0.1395217E+03  0.7561462E-02  0.1213974E+00
         -2   -1    0    0    0  501 -0.00000000000E+00  0.00000000000E+00  0.36100139015E+02  0.36100139015E+02  0.00000000000E+00 0. -1.
          2   -1    0    0  501    0  0.00000000000E+00 -0.00000000000E+00 -0.58472153812E+03  0.58472153812E+03  0.00000000000E+00 0.  1.
         25    2    1    2    0    0 -0.33563822700E+02  0.84131504850E+02 -0.35764689117E+03  0.38956833701E+03  0.12509016803E+03 0.  0.
          5    1    3    3  502    0 -0.65405605226E+02  0.53618114485E+01 -0.19858153590E+03  0.20918590061E+03  0.41800000000E+01 0.  1.
         -5    1    3    3    0  502  0.31841782526E+02  0.78769693401E+02 -0.15906535527E+03  0.18038243640E+03  0.41800000000E+01 0.  1.
        -11    1    1    2    0    0 -0.21717733342E+02 -0.66867598586E+02 -0.12541260457E+03  0.14377502241E+03  0.00000000000E+00 0.  1.
         11    1    1    2    0    0  0.55281556042E+02 -0.17263906264E+02 -0.65561903370E+02  0.87478317722E+02  0.00000000000E+00 0. -1.
</event>
<event>
 7    1  0.2855090E-009  0.2584883E+03  0.7561462E-02  0.1108055E+00
         -2   -1    0    0    0  501 -0.00000000000E+00  0.00000000000E+00  0.42545300421E+02  0.42545300421E+02  0.00000000000E+00 0.  1.
          2   -1    0    0  501    0  0.00000000000E+00 -0.00000000000E+00 -0.18767242686E+04  0.18767242686E+04  0.00000000000E+00 0. -1.
         25    2    1    2    0    0 -0.16796269527E+03  0.17757968613E+03 -0.63680033569E+03  0.69347567240E+03  0.12509128165E+03 0.  0.
          5    1    3    3  502    0 -0.13604613670E+03  0.57970445473E+02 -0.29706957258E+03  0.33186884038E+03  0.41800000000E+01 0.  1.
         -5    1    3    3    0  502 -0.31916558570E+02  0.11960924066E+03 -0.33973076311E+03  0.36160683202E+03  0.41800000000E+01 0.  1.
        -11    1    1    2    0    0  0.47288793165E+02 -0.38049157706E+02 -0.14221299664E+03  0.15462375229E+03  0.00000000000E+00 0.  1.
         11    1    1    2    0    0  0.12067390211E+03 -0.13953052843E+03 -0.10551656359E+04  0.10711701443E+04  0.00000000000E+00 0. -1.
</event>
<event>
 7    1  0.2855090E-009  0.1078369E+03  0.7561462E-02  0.1264629E+00
          1   -1    0    0  501    0  0.00000000000E+00  0.00000000000E+00  0.43086770718E+03  0.43086770718E+03  0.00000000000E+00 0. -1.
         -1   -1    0    0    0  501 -0.00000000000E+00 -0.00000000000E+00 -0.39150568838E+02  0.39150568838E+02  0.00000000000E+00 0.  1.
         25    2    1    2    0    0  0.33086759252E+02 -0.20370738413E+02  0.10916826654E+03  0.17051390411E+03  0.12509028922E+03 0.  0.
          5    1    3    3  502    0  0.54861216608E+02 -0.62119673218E+02  0.78043021802E+02  0.11391572561E+03  0.41800000000E+01 0. -1.
         -5    1    3    3    0  502 -0.21774457357E+02  0.41748934805E+02  0.31125244735E+02  0.56598178507E+02  0.41800000000E+01 0. -1.
        -11    1    1    2    0    0  0.19937074157E+02  0.25249987362E+02  0.40788464200E+02  0.51949471600E+02  0.00000000000E+00 0.  1.
         11    1    1    2    0    0 -0.53023833408E+02 -0.48792489490E+01  0.24176040761E+03  0.24755490030E+03  0.00000000000E+00 0. -1.
</event>
<event>
 7    1  0.2855090E-009  0.2742264E+03  0.7561462E-02  0.1098885E+00
         -2   -1    0    0    0  501 -0.00000000000E+00  0.00000000000E+00  0.17951691414E+04  0.17951691414E+04  0.00000000000E+00 0.  1.
          2   -1    0    0  501    0  0.00000000000E+00 -0.00000000000E+00 -0.48063844376E+02  0.48063844376E+02  0.00000000000E+00 0. -1.
         25    2    1    2    0    0 -0.13433211446E+03 -0.22485240067E+03  0.65881284243E+03  0.71992073882E+03  0.12509112587E+03 0.  0.
          5    1    3    3  502    0 -0.15335644616E+03 -0.20963397057E+03  0.63275705485E+03  0.68400552926E+03  0.41800000000E+01 0. -1.
         -5    1    3    3    0  502  0.19024331702E+02 -0.15218430091E+02  0.26055787576E+02  0.35915209554E+02  0.41800000000E+01 0. -1.
        -11    1    1    2    0    0  0.42633138224E+02  0.10288085547E+03  0.64366396070E+03  0.65322687422E+03  0.00000000000E+00 0.  1.
         11    1    1    2    0    0  0.91698976236E+02  0.12197154520E+03  0.44462849391E+03  0.47008537276E+03  0.00000000000E+00 0. -1.
</event>
<event>
 7    1  0.2855090E-009  0.9722590E+02  0.7561462E-02  0.1286240E+00
          2   -1    0    0  501    0  0.00000000000E+00  0.00000000000E+00  0.12393718335E+03  0.12393718335E+03  0.00000000000E+00 0. -1.
         -2   -1    0    0    0  501 -0.00000000000E+00 -0.00000000000E+00 -0.17158278677E+03  0.17158278677E+03  0.00000000000E+00 0.  1.
         25    2    1    2    0    0  0.31942950196E+02 -0.90677601815E+02 -0.41178872159E+02  0.16307327830E+03  0.12511760486E+03 0.  0.
          5    1    3    3  502    0  0.94852731717E+01 -0.38735510296E+02 -0.83270842813E+02  0.92422485510E+02  0.41800000000E+01 0. -1.
         -5    1    3    3    0  502  0.22457677025E+02 -0.51942091519E+02  0.42091970654E+02  0.70650792793E+02  0.41800000000E+01 0. -1.
        -11    1    1    2    0    0 -0.93434965811E+01  0.94182896073E+01  0.35746756675E+02  0.38129197740E+02  0.00000000000E+00 0. -1.
         11    1    1    2    0    0 -0.22599453615E+02  0.81259312208E+02 -0.42213487935E+02  0.94317494071E+02  0.00000000000E+00 0.  1.
</event>
<event>
 7    1  0.2855090E-009  0.1564390E+03  0.7561462E-02  0.1192777E+00
         -2   -1    0    0    0  501 -0.00000000000E+00  0.00000000000E+00  0.13225459310E+03  0.13225459310E+03  0.00000000000E+00 0. -1.
          2   -1    0    0  501    0  0.00000000000E+00 -0.00000000000E+00 -0.32694202447E+03  0.32694202447E+03  0.00000000000E+00 0.  1.
         25    2    1    2    0    0  0.11551568185E+03  0.60771616218E+02  0.29588568012E+02  0.18319478900E+03  0.12509110787E+03 0.  0.
          5    1    3    3  502    0  0.46461487235E+02 -0.37925557406E+02  0.64516686206E+01  0.60465809584E+02  0.41800000000E+01 0.  1.
         -5    1    3    3    0  502  0.69054194619E+02  0.98697173624E+02  0.23136899391E+02  0.12272897942E+03  0.41800000000E+01 0.  1.
        -11    1    1    2    0    0 -0.68043844659E+02 -0.23896926104E+02 -0.19739045916E+03  0.21015237624E+03  0.00000000000E+00 0.  1.
         11    1    1    2    0    0 -0.47471837194E+02 -0.36874690114E+02 -0.26885540229E+02  0.65849452321E+02  0.00000000000E+00 0. -1.
</event>
<event>
 7    1  0.2855090E-009  0.1095326E+03  0.7561462E-02  0.1261438E+00
          1   -1    0    0  501    0  0.00000000000E+00  0.00000000000E+00  0.46407636275E+03  0.46407636275E+03  0.00000000000E+00 0. -1.
         -1   -1    0    0    0  501 -0.00000000000E+00 -0.00000000000E+00 -0.48111495471E+02  0.48111495471E+02  0.00000000000E+00 0.  1.
         25    2    1    2    0    0  0.86679089519E+01  0.32147793671E+02  0.59395996926E+02  0.14241588839E+03  0.12508312249E+03 0.  0.
          5    1    3    3  502    0 -0.24580117880E+01  0.79960936410E+02  0.38923613795E+02  0.89063535099E+02  0.41800000000E+01 0. -1.
         -5    1    3    3    0  502  0.11125920740E+02 -0.47813142739E+02  0.20472383131E+02  0.53352353294E+02  0.41800000000E+01 0. -1.
        -11    1    1    2    0    0 -0.89028543498E+01  0.28081736051E+02  0.56508367577E+02  0.63726292231E+02  0.00000000000E+00 0. -1.
         11    1    1    2    0    0  0.23494539790E+00 -0.60229529722E+02  0.30006050278E+03  0.30604567760E+03  0.00000000000E+00 0.  1.
</event>
<event>
 7    1  0.2855090E-009  0.1246690E+03  0.7561462E-02  0.1235587E+00
         -2   -1    0    0    0  501 -0.00000000000E+00  0.00000000000E+00  0.23066623294E+03  0.23066623294E+03  0.00000000000E+00 0.  1.
          2   -1    0    0  501    0  0.00000000000E+00 -0.00000000000E+00 -0.92148096351E+02  0.92148096351E+02  0.00000000000E+00 0. -1.
         25    2    1    2    0    0 -0.62987100040E+02  0.67434752930E+02  0.11059618692E+03  0.19077105020E+03  0.12508899376E+03 0.  0.
          5    1    3    3  502    0 -0.31158857918E+02  0.80217207787E+02  0.12866644713E+02  0.87113132179E+02  0.41800000000E+01 0. -1.
         -5    1    3    3    0  502 -0.31828242122E+02 -0.12782454857E+02  0.97729542207E+02  0.10365791802E+03  0.41800000000E+01 0. -1.
        -11    1    1    2    0    0 -0.21106239780E+02 -0.29749569142E+02  0.12815587899E+02  0.38661990572E+02  0.00000000000E+00 0.  1.
         11    1    1    2    0    0  0.84093339820E+02 -0.37685183788E+02  0.15106361769E+02  0.93381288517E+02  0.00000000000E+00 0. -1.
</event>
<event>
 7    1  0.2855090E-009  0.1263973E+03  0.7561462E-02  0.1232902E+00
         -2   -1    0    0    0  501 -0.00000000000E+00  0.00000000000E+00  0.10902473249E+03  0.10902473249E+03  0.00000000000E+00 0.  1.
          2   -1    0    0  501    0  0.00000000000E+00 -0.00000000000E+00 -0.23994757960E+03  0.23994757960E+03  0.00000000000E+00 0. -1.
         25    2    1    2    0    0  0.79104439746E+02  0.84157237286E+02 -0.41332527668E+02  0.17518282650E+03  0.12506275178E+03 0.  0.
          5    1    3    3  502    0  0.79031291434E+02  0.55117311977E+02  0.27559249707E+02  0.10030377735E+03  0.41800000000E+01 0.  1.
         -5    1    3    3    0  502  0.73148312653E-01  0.29039925309E+02 -0.68891777374E+02  0.74879049155E+02  0.41800000000E+01 0.  1.
        -11    1    1    2    0    0 -0.60328939509E+01 -0.42447587454E+02 -0.77797634877E+02  0.88829417889E+02  0.00000000000E+00 0. -1.
         11    1    1    2    0    0 -0.73071545795E+02 -0.41709649832E+02 -0.11792684560E+02  0.84960067698E+02  0.00000000000E+00 0.  1.
</event>
<event>
 7    1  0.2855090E-009  0.8698406E+02  0.7561462E-02  0.1310324E+00
         -2   -1    0    0    0  501 -0.00000000000E+00  0.00000000000E+00  0.19601942771E+02  0.19601942771E+02  0.00000000000E+00 0.  1.
          2   -1    0    0  501    0  0.00000000000E+00 -0.00000000000E+00 -0.65176839510E+03  0.65176839510E+03  0.00000000000E+00 0. -1.
         25    2    1    2    0    0 -0.15239633763E+02 -0.22608358446E+02 -0.44716513172E+03  0.46513230195E+03  0.12509204204E+03 0.  0.
          5    1    3    3  502    0 -0.10414489316E+02 -0.55567504904E+02 -0.89819239884E+02  0.10621288736E+03  0.41800000000E+01 0. -1.
         -5    1    3    3    0  502 -0.48251444472E+01  0.32959146458E+02 -0.35734589183E+03  0.35891941458E+03  0.41800000000E+01 0. -1.
        -11    1    1    2    0    0  0.38993275251E+02 -0.12825198232E+02 -0.50189254831E+02  0.64837662859E+02  0.00000000000E+00 0.  1.
         11    1    1    2    0    0 -0.23753641488E+02  0.35433556677E+02 -0.13481206578E+03  0.14140037306E+03  0.00000000000E+00 0. -1.
</event>
<event>
 7    1  0.2855090E-009  0.7311460E+02  0.7561462E-02  0.1349811E+00
          2   -1    0    0  501    0  0.00000000000E+00  0.00000000000E+00  0.16660229828E+03  0.16660229828E+03  0.00000000000E+00 0. -1.
         -2   -1    0    0    0  501 -0.00000000000E+00 -0.00000000000E+00 -0.76344651630E+02  0.76344651630E+02  0.00000000000E+00 0.  1.
         25    2    1    2    0    0 -0.38282886988E+02 -0.57078827895E+01  0.74895112058E+02  0.15084650138E+03  0.12508888762E+03 0.  0.
          5    1    3    3  502    0 -0.51217159982E+02 -0.32052017310E+02  0.96662643512E+02  0.11406870009E+03  0.41800000000E+01 0. -1.
         -5    1    3    3    0  502  0.12934272995E+02  0.26344134520E+02 -0.21767531454E+02  0.36777801282E+02  0.41800000000E+01 0. -1.
        -11    1    1    2    0    0  0.17859596830E+02 -0.17570223549E+02 -0.28793776765E+02  0.38167519371E+02  0.00000000000E+00 0.  1.
         11    1    1    2    0    0  0.20423290158E+02  0.23278106339E+02  0.44156311362E+02  0.53932929168E+02  0.00000000000E+00 0. -1.
</event>
<event>
 7    1  0.2855090E-009  0.5903511E+02  0.7561462E-02  0.1401926E+00
         -1   -1    0    0    0  501 -0.00000000000E+00  0.00000000000E+00  0.28671767501E+02  0.28671767501E+02  0.00000000000E+00 0.  1.
          1   -1    0    0  501    0  0.00000000000E+00 -0.00000000000E+00 -0.27154462305E+03  0.27154462305E+03  0.00000000000E+00 0. -1.
         25    2    1    2    0    0  0.66919120531E+01 -0.10696975382E+02 -0.17695507930E+03  0.21706989716E+03  0.12508810172E+03 0.  0.
          5    1    3    3  502    0  0.16389667159E+02  0.29458961701E+02  0.13479327407E+01  0.33996190033E+02  0.41800000000E+01 0. -1.
         -5    1    3    3    0  502 -0.96977551063E+01 -0.40155937083E+02 -0.17830301204E+03  0.18307370712E+03  0.41800000000E+01 0. -1.
        -11    1    1    2    0    0 -0.21373738587E+02 -0.40679243686E+01 -0.10930178103E+02  0.24348583187E+02  0.00000000000E+00 0.  1.
         11    1    1    2    0    0  0.14681826534E+02  0.14764899751E+02 -0.54987598143E+02  0.58797910205E+02  0.00000000000E+00 0. -1.
</event>
<event>
 7    1  0.2855090E-009  0.1283543E+03  0.7561462E-02  0.1229918E+00
          2   -1    0    0  501    0  0.00000000000E+00  0.00000000000E+00  0.79889533499E+02  0.79889533499E+02  0.00000000000E+00 0.  1.
         -2   -1    0    0    0  501 -0.00000000000E+00 -0.00000000000E+00 -0.23825891702E+03  0.23825891702E+03  0.00000000000E+00 0. -1.
         25    2    1    2    0    0  0.71349217332E+02 -0.34858308743E+02 -0.11129670252E+03  0.18531142173E+03  0.12509018559E+03 0.  0.
          5    1    3    3  502    0 -0.34931370981E+02 -0.15126492287E+02 -0.42022895825E+02  0.56854266515E+02  0.41800000000E+01 0.  1.
         -5    1    3    3    0  502  0.10628058831E+03 -0.19731816456E+02 -0.69273806695E+02  0.12845715522E+03  0.41800000000E+01 0.  1.
        -11    1    1    2    0    0 -0.55945153633E+00  0.39303133846E+02  0.11384973724E+02  0.40922694716E+02  0.00000000000E+00 0.  1.
         11    1    1    2    0    0 -0.70789765796E+02 -0.44448251028E+01 -0.58457654731E+02  0.91914334074E+02  0.00000000000E+00 0. -1.
</event>
<event>
 7    1  0.2855090E-009  0.9325708E+02  0.7561462E-02  0.1295151E+00
         -3   -1    0    0    0  501 -0.00000000000E+00  0.00000000000E+00  0.53324054735E+03  0.53324054735E+03  0.00000000000E+00 0.  1.
          3   -1    0    0  501    0  0.00000000000E+00 -0.00000000000E+00 -0.34167685212E+02  0.34167685212E+02  0.00000000000E+00 0. -1.
         25    2    1    2    0    0 -0.34875161989E+02  0.40410605224E+02  0.40209650073E+03  0.42447394584E+03  0.12508893177E+03 0.  0.
          5    1    3    3  502    0  0.84268636128E+01  0.46996228268E+02  0.48627782581E+02  0.68277310584E+02  0.41800000000E+01 0.  1.
         -5    1    3    3    0  502 -0.43302025602E+02 -0.65856230442E+01  0.35346871815E+03  0.35619663525E+03  0.41800000000E+01 0.  1.
        -11    1    1    2    0    0 -0.11377632187E+02 -0.46557321550E+02  0.80047648035E+02  0.93298770946E+02  0.00000000000E+00 0. -1.
         11    1    1    2    0    0  0.46252794176E+02  0.61467163265E+01  0.16928713373E+02  0.49635515784E+02  0.00000000000E+00 0.  1.
</event>
<event>
 7    1  0.2855090E-009  0.1331770E+03  0.7561462E-02  0.1222816E+00
          2   -1    0    0  501    0  0.00000000000E+00  0.00000000000E+00  0.14966770385E+03  0.14966770385E+03  0.00000000000E+00 0. -1.
         -2   -1    0    0    0  501 -0.00000000000E+00 -0.00000000000E+00 -0.16804858452E+03  0.16804858452E+03  0.00000000000E+00 0.  1.
         25    2    1    2    0    0 -0.62318213078E+02 -0.50491148907E+02 -0.92697979384E+02  0.17513556869E+03  0.12508651502E+03 0.  0.
          5    1    3    3  502    0 -0.41394755408E+02 -0.91850998023E+02 -0.52730146936E+02  0.11378959710E+03  0.41800000000E+01 0.  1.
         -5    1    3    3    0  502 -0.20923457670E+02  0.41359849116E+02 -0.39967832448E+02  0.61345971590E+02  0.41800000000E+01 0.  1.
        -11    1    1    2    0    0  0.79172057854E+02  0.16259398389E+02  0.35911360735E+02  0.88443250792E+02  0.00000000000E+00 0.  1.
         11    1    1    2    0    0 -0.16853844776E+02  0.34231750518E+02  0.38405737984E+02  0.54137468886E+02  0.00000000000E+00 0. -1.
</event>
<event>
 7    1  0.2855090E-009  0.1756420E+03  0.7561462E-02  0.1172089E+00
          2   -1    0    0  501    0  0.00000000000E+00  0.00000000000E+00  0.57714870667E+03  0.57714870667E+03  0.00000000000E+00 0.  1.
         -2   -1    0    0    0  501 -0.00000000000E+00 -0.00000000000E+00 -0.59482841873E+02  0.59482841873E+02  0.00000000000E+00 0. -1.
         25    2    1    2    0    0  0.13012032151E+03 -0.57780705427E+02  0.35400809675E+03  0.40154612039E+03  0.12509055219E+03 0.  0.
          5    1    3    3  502    0 -0.11780221917E+02  0.22966168761E+02  0.45674905768E+02  0.52629724994E+02  0.41800000000E+01 0. -1.
         -5    1    3    3    0  502  0.14190054343E+03 -0.80746874187E+02  0.30833319098E+03  0.34891639539E+03  0.41800000000E+01 0. -1.
        -11    1    1    2    0    0 -0.11400372314E+02  0.40220831833E+02  0.15892239507E+02  0.44724121889E+02  0.00000000000E+00 0.  1.
         11    1    1    2    0    0 -0.11871994920E+03  0.17559873594E+02  0.14776552854E+03  0.19036130626E+03  0.00000000000E+00 0. -1.
</event>
<event>
 7    1  0.2855090E-009  0.1938808E+03  0.7561462E-02  0.1155007E+00
         -2   -1    0    0    0  501 -0.00000000000E+00  0.00000000000E+00  0.66912616051E+02  0.66912616051E+02  0.00000000000E+00 0.  1.
          2   -1    0    0  501    0  0.00000000000E+00 -0.00000000000E+00 -0.74989754970E+03  0.74989754970E+03  0.00000000000E+00 0. -1.
         25    2    1    2    0    0 -0.17499023332E+03 -0.81642621855E+02 -0.30382400889E+03  0.38110888561E+03  0.12509138600E+03 0.  0.
          5    1    3    3  502    0 -0.51497366078E+02 -0.23167661824E+02 -0.10630068275E+02  0.57612412021E+02  0.41800000000E+01 0.  1.
         -5    1    3    3    0  502 -0.12349286724E+03 -0.58474960031E+02 -0.29319394061E+03  0.32349647359E+03  0.41800000000E+01 0.  1.
        -11    1    1    2    0    0  0.64644515389E+02  0.18219678087E+02 -0.23007504543E+03  0.23967769310E+03  0.00000000000E+00 0. -1.
         11    1    1    2    0    0  0.11034571793E+03  0.63422943769E+02 -0.14908587933E+03  0.19602358705E+03  0.00000000000E+00 0.  1.
</event>
<event>
 7    1  0.2855090E-009  0.1229599E+03  0.7561462E-02  0.1238292E+00
          1   -1    0    0  501    0  0.00000000000E+00  0.00000000000E+00  0.40115359675E+02  0.40115359675E+02  0.00000000000E+00 0. -1.
         -1   -1    0    0    0  501 -0.00000000000E+00 -0.00000000000E+00 -0.42555633225E+03  0.42555633225E+03  0.00000000000E+00 0.  1.
         25    2    1    2    0    0  0.64165498418E+02  0.64512418551E+02 -0.17355662524E+03  0.23248902474E+03  0.12510068397E+03 0.  0.
          5    1    3    3  502    0 -0.33636263068E+02  0.28555491618E+02 -0.84219583336E+02  0.95169453671E+02  0.41800000000E+01 0. -1.
         -5    1    3    3    0  502  0.97801761486E+02  0.35956926933E+02 -0.89337041899E+02  0.13731957107E+03  0.41800000000E+01 0. -1.
        -11    1    1    2    0    0 -0.66979946808E+02 -0.52859068694E+02 -0.18809777762E+03  0.20654580209E+03  0.00000000000E+00 0.  1.
         11    1    1    2    0    0  0.28144483903E+01 -0.11653349858E+02 -0.23786569723E+02  0.26636865090E+02  0.00000000000E+00 0. -1.
</event>
<event>
 7    1  0.2855090E-009  0.1134875E+03  0.7561462E-02  0.1254245E+00
          4   -1    0    0  501    0  0.00000000000E+00  0.00000000000E+00  0.35056531410E+03  0.35056531410E+03  0.00000000000E+00 0. -1.
         -4   -1    0    0    0  501 -0.00000000000E+00 -0.00000000000E+00 -0.53896773013E+02  0.53896773013E+02  0.00000000000E+00 0.  1.
         25    2    1    2    0    0  0.42761493608E+02 -0.95981976137E+01  0.26855073006E+03  0.29947808422E+03  0.12508779948E+03 0.  0.
          5    1    3    3  502    0 -0.35526095851E+02 -0.32346007885E+02  0.13012844077E+03  0.13877770430E+03  0.41800000000E+01 0. -1.
         -5    1    3    3    0  502  0.78287589460E+02  0.22747810271E+02  0.13842228928E+03  0.16070037992E+03  0.41800000000E+01 0. -1.
        -11    1    1    2    0    0 -0.24906996499E+02  0.48383376541E+02  0.10468328493E+01  0.54427984155E+02  0.00000000000E+00 0.  1.
         11    1    1    2    0    0 -0.17854497109E+02 -0.38785178927E+02  0.27070978186E+02  0.50556018746E+02  0.00000000000E+00 0. -1.
</event>
<event>
 7    1  0.2855090E-009  0.1081377E+03  0.7561462E-02  0.1264058E+00
         -2   -1    0    0    0  501 -0.00000000000E+00  0.00000000000E+00  0.59969740885E+02  0.59969740885E+02  0.00000000000E+00 0.  1.
          2   -1    0    0  501    0  0.00000000000E+00 -0.00000000000E+00 -0.24644853371E+03  0.24644853371E+03  0.00000000000E+00 0. -1.
         25    2    1    2    0    0 -0.33120727648E+02  0.25493696888E+02 -0.15537143947E+03  0.20380084013E+03  0.12509031559E+03 0.  0.
          5    1    3    3  502    0 -0.55343873648E+02 -0.34521514114E+02 -0.97716324533E+02  0.11756118308E+03  0.41800000000E+01 0.  1.
         -5    1    3    3    0  502  0.22223146000E+02  0.60015211002E+02 -0.57655114935E+02  0.86239657049E+02  0.41800000000E+01 0.  1.
        -11    1    1    2    0    0  0.30866077215E+02 -0.51842087087E+02  0.18484783517E+01  0.60363346399E+02  0.00000000000E+00 0.  1.
         11    1    1    2    0    0  0.22546504325E+01  0.26348390199E+02 -0.32955831705E+02  0.42254088063E+02  0.00000000000E+00 0. -1.
</event>
<event>
 6    1  0.2855090E-009  0.1004034E+03  0.7561462E-02  0.1279450E+00
         -1   -1    0    0    0  501 -0.00000000000E+00  0.00000000000E+00  0.12875423219E+03  0.12875423219E+03  0.00000000000E+00 0.  1.
          1   -1    0    0  501    0  0.00000000000E+00 -0.00000000000E+00 -0.12020867104E+03  0.12020867104E+03  0.00000000000E+00 0. -1.
          5    1    1    2  502    0  0.75675444595E+02  0.29779795331E+02  0.44999361781E+02  0.93037756236E+02  0.41800000000E+01 0. -1.
         -5    1    1    2    0  502 -0.12970355403E+02 -0.47344154113E+02 -0.14109735819E+02  0.51247010575E+02  0.41800000000E+01 0. -1.
        -11    1    1    2    0    0 -0.25497406044E+02 -0.58331062792E+01 -0.47361552020E+02  0.54104153755E+02  0.00000000000E+00 0. -1.
         11    1    1    2    0    0 -0.37207683148E+02  0.23397465061E+02  0.25017487206E+02  0.50573982666E+02  0.00000000000E+00 0.  1.
</event>
<event>
 7    1  0.2855090E-009  0.7139844E+02  0.7561462E-02  0.1355401E+00
         -2   -1    0    0    0  501 -0.00000000000E+00  0.00000000000E+00  0.29077765108E+02  0.29077765108E+02  0.00000000000E+00 0. -1.
          2   -1    0    0  501    0  0.00000000000E+00 -0.00000000000E+00 -0.42325034548E+03  0.42325034548E+03  0.00000000000E+00 0.  1.
         25    2    1    2    0    0 -0.20544684323E+02 -0.28066756627E+01 -0.19876041557E+03  0.23576306020E+03  0.12509418961E+03 0.  0.
          5    1    3    3  502    0 -0.95596869909E+01 -0.35487863636E+02 -0.31837306988E+01  0.37126602618E+02  0.41800000000E+01 0. -1.
         -5    1    3    3    0  502 -0.10984997332E+02  0.32681187973E+02 -0.19557668487E+03  0.19863645758E+03  0.41800000000E+01 0. -1.
        -11    1    1    2    0    0  0.39787405917E+02  0.20656261267E+02 -0.18130944731E+03  0.18676946882E+03  0.00000000000E+00 0.  1.
         11    1    1    2    0    0 -0.19242721595E+02 -0.17849585605E+02 -0.14102717493E+02  0.29795581574E+02  0.00000000000E+00 0. -1.
</event>
<event>
 7    1  0.2855090E-009  0.3159041E+03  0.7561462E-02  0.1077550E+00
          1   -1    0    0  501    0  0.00000000000E+00  0.00000000000E+00  0.26083872289E+03  0.26083872289E+03  0.00000000000E+00 0. -1.
         -1   -1    0    0    0  501 -0.00000000000E+00 -0.00000000000E+00 -0.41300331738E+03  0.41300331738E+03  0.00000000000E+00 0.  1.
         25    2    1    2    0    0  0.97936941313E+02  0.28474546758E+03 -0.14917329789E+03  0.35857136898E+03  0.12509647504E+03 0.  0.
          5    1    3    3  502    0  0.47316900919E+02  0.26830084967E+03 -0.11993593917E+03  0.29770175840E+03  0.41800000000E+01 0. -1.
         -5    1    3    3    0  502  0.50620040394E+02  0.16444617904E+02 -0.29237358723E+02  0.60869610583E+02  0.41800000000E+01 0. -1.
        -11    1    1    2    0    0 -0.81550237242E+02 -0.15475151203E+03  0.35956907978E+02  0.17858155252E+03  0.00000000000E+00 0. -1.
         11    1    1    2    0    0 -0.16386704071E+02 -0.12999395555E+03 -0.38948204582E+02  0.13668911877E+03  0.00000000000E+00 0.  1.
</event>
<event>
 7    1  0.2855090E-009  0.1441640E+03  0.7561462E-02  0.1207833E+00
         -2   -1    0    0    0  501 -0.00000000000E+00  0.00000000000E+00  0.20486212614E+02  0.20486212614E+02  0.00000000000E+00 0. -1.
          2   -1    0    0  501    0  0.00000000000E+00 -0.00000000000E+00 -0.12232588283E+04  0.12232588283E+04  0.00000000000E+00 0.  1.
         25    2    1    2    0    0 -0.10472989771E+03  0.31779841326E+02 -0.50683230185E+03  0.53339026101E+03  0.12509148072E+03 0.  0.
          5    1    3    3  502    0 -0.12128162408E+03  0.12704160069E+02 -0.28413032626E+03  0.30922183417E+03  0.41800000000E+01 0. -1.
         -5    1    3    3    0  502  0.16551726374E+02  0.19075681256E+02 -0.22270197559E+03  0.22416842684E+03  0.41800000000E+01 0. -1.
        -11    1    1    2    0    0 -0.13251371574E+02 -0.17379709836E+02 -0.74032946887E+02  0.77191517587E+02  0.00000000000E+00 0. -1.
         11    1    1    2    0    0  0.11798126928E+03 -0.14400131490E+02 -0.62190736697E+03  0.63316326234E+03  0.00000000000E+00 0.  1.
</event>
<event>
 7    1  0.2855090E-009  0.9397671E+02  0.7561462E-02  0.1293498E+00
          1   -1    0    0  501    0  0.00000000000E+00  0.00000000000E+00  0.53225734341E+03  0.53225734341E+03  0.00000000000E+00 0. -1.
         -1   -1    0    0    0  501 -0.00000000000E+00 -0.00000000000E+00 -0.34371521422E+02  0.34371521422E+02  0.00000000000E+00 0.  1.
         25    2    1    2    0    0 -0.49348717231E+02  0.30204485307E+02  0.39792891537E+03  0.42112196534E+03  0.12509468885E+03 0.  0.
          5    1    3    3  502    0 -0.30892816115E+02  0.72267624738E+02  0.15482679042E+03  0.17368299601E+03  0.41800000000E+01 0. -1.
         -5    1    3    3    0  502 -0.18455901116E+02 -0.42063139432E+02  0.24310212495E+03  0.24743896933E+03  0.41800000000E+01 0. -1.
        -11    1    1    2    0    0  0.13039422185E+02 -0.22502783045E+02 -0.11199929741E+02  0.28316783042E+02  0.00000000000E+00 0.  1.
         11    1    1    2    0    0  0.36309295047E+02 -0.77017022620E+01  0.11115683636E+03  0.11719011645E+03  0.00000000000E+00 0. -1.
</event>
<event>
 7    1  0.2855090E-009  0.1579762E+03  0.7561462E-02  0.1191001E+00
          1   -1    0    0  501    0  0.00000000000E+00  0.00000000000E+00  0.48821811576E+02  0.48821811576E+02  0.00000000000E+00 0. -1.
         -1   -1    0    0    0  501 -0.00000000000E+00 -0.00000000000E+00 -0.62649794628E+03  0.62649794628E+03  0.00000000000E+00 0.  1.
         25    2    1    2    0    0 -0.20719983011E+02 -0.11412926231E+03 -0.45153167099E+03  0.48268335739E+03  0.12509023696E+03 0.  0.
          5    1    3    3  502    0  0.31743207722E+01 -0.13701543298E+03 -0.35554564011E+03  0.38106886489E+03  0.41800000000E+01 0. -1.
         -5    1    3    3    0  502 -0.23894303783E+02  0.22886170676E+02 -0.95986030886E+02  0.10161449250E+03  0.41800000000E+01 0. -1.
        -11    1    1    2    0    0 -0.64156610834E+01 -0.13530864137E+02 -0.15254430749E+02  0.21376216899E+02  0.00000000000E+00 0. -1.
         11    1    1    2    0    0  0.27135644095E+02  0.12766012644E+03 -0.11089003296E+03  0.17126018356E+03  0.00000000000E+00 0.  1.
</event>
<event>
 7    1  0.2855090E-009  0.1385713E+03  0.7561462E-02  0.1215264E+00
         -1   -1    0    0    0  501 -0.00000000000E+00  0.00000000000E+00  0.51453371838E+02  0.51453371838E+02  0.00000000000E+00 0.  1.
          1   -1    0    0  501    0  0.00000000000E+00 -0.00000000000E+00 -0.75183819195E+03  0.75183819195E+03  0.00000000000E+00 0. -1.
         25    2    1    2    0    0  0.88253514569E+02  0.50068735548E+02 -0.10434734469E+03  0.19192692437E+03  0.12510801270E+03 0.  0.
          5    1    3    3  502    0  0.96722213477E+02  0.72448952126E+02 -0.11362123586E+03  0.16592557031E+03  0.41800000000E+01 0.  1.
         -5    1    3    3    0  502 -0.84686989084E+01 -0.22380216578E+02  0.92738911738E+01  0.26001354057E+02  0.41800000000E+01 0.  1.
        -11    1    1    2    0    0 -0.19662790379E+02 -0.59528665212E+02 -0.20966693659E+03  0.21883900842E+03  0.00000000000E+00 0.  1.
         11    1    1    2    0    0 -0.68590724190E+02  0.94599296638E+01 -0.38637053883E+03  0.39252563100E+03  0.00000000000E+00 0. -1.
</event>
<event>
 7    1  0.2855090E-009  0.8643923E+02  0.7561462E-02  0.1311711E+00
         -2   -1    0    0    0  501 -0.00000000000E+00  0.00000000000E+00  0.27593338156E+02  0.27593338156E+02  0.00000000000E+00 0. -1.
          2   -1    0    0  501    0  0.00000000000E+00 -0.00000000000E+00 -0.50807921110E+03  0.50807921110E+03  0.00000000000E+00 0.  1.
         25    2    1    2    0    0  0.17095684243E+00 -0.93900013870E+01 -0.40548587620E+03  0.42444611914E+03  0.12509001119E+03 0.  0.
          5    1    3    3  502    0 -0.39687124233E+02  0.24241679898E+02 -0.65389918604E+02  0.80349491158E+02  0.41800000000E+01 0. -1.
         -5    1    3    3    0  502  0.39858081076E+02 -0.33631681285E+02 -0.34009595760E+03  0.34409662798E+03  0.41800000000E+01 0. -1.
        -11    1    1    2    0    0 -0.36412879924E+02 -0.62738232615E-01 -0.61388485106E+02  0.71375400973E+02  0.00000000000E+00 0.  1.
         11    1    1    2    0    0  0.36241923082E+02  0.94527396196E+01 -0.13611511638E+02  0.39851029147E+02  0.00000000000E+00 0. -1.
</event>
<event>
 7    1  0.2855090E-009  0.7895474E+02  0.7561462E-02  0.1332044E+00
          2   -1    0    0  501    0  0.00000000000E+00  0.00000000000E+00  0.14572573175E+03  0.14572573175E+03  0.00000000000E+00 0. -1.
         -2   -1    0    0    0  501 -0.00000000000E+00 -0.00000000000E+00 -0.73703186274E+02  0.73703186274E+02  0.00000000000E+00 0.  1.
         25    2    1    2    0    0 -0.65431517896E+01 -0.25097621225E+02  0.10327005377E+03  0.16427441038E+03  0.12509466205E+03 0.  0.
          5    1    3    3  502    0  0.38882031493E+02  0.27379808971E+02  0.75657814814E+02  0.89459732029E+02  0.41800000000E+01 0. -1.
         -5    1    3    3    0  502 -0.45425183282E+02 -0.52477430197E+02  0.27612238952E+02  0.74814678347E+02  0.41800000000E+01 0. -1.
        -11    1    1    2    0    0 -0.12698412635E+02  0.92357030820E+01 -0.24875414484E+02  0.29416562352E+02  0.00000000000E+00 0.  1.
         11    1    1    2    0    0  0.19241564425E+02  0.15861918143E+02 -0.63720938030E+01  0.25737945297E+02  0.00000000000E+00 0. -1.
</event>
<event>
 7    1  0.2855090E-009  0.1415087E+03  0.7561462E-02  0.1211313E+00
          2   -1    0    0  501    0  0.00000000000E+00  0.00000000000E+00  0.44183783317E+03  0.44183783317E+03  0.00000000000E+00 0. -1.
         -2   -1    0    0    0  501 -0.00000000000E+00 -0.00000000000E+00 -0.55570224781E+02  0.55570224781E+02  0.00000000000E+00 0.  1.
         25    2    1    2    0    0  0.11259026425E+03  0.10285979932E+02  0.22158623211E+03  0.27844729585E+03  0.12510023708E+03 0.  0.
          5    1    3    3  502    0  0.11858811291E+03 -0.91498788224E+01  0.10102302461E+03  0.15610888734E+03  0.41800000000E+01 0. -1.
         -5    1    3    3    0  502 -0.59978486554E+01  0.19435858754E+02  0.12056320750E+03  0.12233840851E+03  0.41800000000E+01 0. -1.
        -11    1    1    2    0    0 -0.89016539984E+02  0.32190798405E+02  0.95847682903E+02  0.13471069078E+03  0.00000000000E+00 0.  1.
         11    1    1    2    0    0 -0.23573724268E+02 -0.42476778337E+02  0.68833693376E+02  0.84250071321E+02  0.00000000000E+00 0. -1.
</event>
<event>
 7    1  0.2855090E-009  0.1920921E+03  0.7561462E-02  0.1156588E+00
         -1   -1    0    0    0  501 -0.00000000000E+00  0.00000000000E+00  0.14080032309E+03  0.14080032309E+03  0.00000000000E+00 0.  1.
          1   -1    0    0  501    0  0.00000000000E+00 -0.00000000000E+00 -0.32314816965E+03  0.32314816965E+03  0.00000000000E+00 0. -1.
         25    2    1    2    0    0 -0.14693157181E+03  0.64261788190E+02  0.10932583109E+01  0.20338631533E+03  0.12508530623E+03 0.  0.
          5    1    3    3  502    0 -0.10830334192E+03 -0.20306264497E+02 -0.15876776612E+01  0.11028123761E+03  0.41800000000E+01 0. -1.
         -5    1    3    3    0  502 -0.38628229891E+02  0.84568052688E+02  0.26809359721E+01  0.93105077722E+02  0.41800000000E+01 0. -1.
        -11    1    1    2    0    0  0.10866087567E+03 -0.31070287186E+01 -0.13648166230E+03  0.17448233055E+03  0.00000000000E+00 0.  1.
         11    1    1    2    0    0  0.38270696141E+02 -0.61154759472E+02 -0.46959442569E+02  0.86079846860E+02  0.00000000000E+00 0. -1.
</event>
<event>
 7    1  0.2855090E-009  0.1024539E+03  0.7561462E-02  0.1275219E+00
          2   -1    0    0  501    0  0.00000000000E+00  0.00000000000E+00  0.70430188966E+03  0.70430188966E+03  0.00000000000E+00 0. -1.
         -2   -1    0    0    0  501 -0.00000000000E+00 -0.00000000000E+00 -0.24158667110E+02  0.24158667110E+02  0.00000000000E+00 0.  1.
         25    2    1    2    0    0  0.60508793943E+02  0.19994704083E+02  0.28428704680E+03  0.31706035255E+03  0.12508812832E+03 0.  0.
          5    1    3    3  502    0  0.78257333712E+02  0.20338129165E+02  0.28737559876E+03  0.29856332149E+03  0.41800000000E+01 0. -1.
         -5    1    3    3    0  502 -0.17748539769E+02 -0.34342508265E+00 -0.30885519643E+01  0.18497031057E+02  0.41800000000E+01 0. -1.
        -11    1    1    2    0    0  0.47548272736E+01 -0.37767077068E+02  0.82954461772E+02  0.91271042618E+02  0.00000000000E+00 0.  1.
         11    1    1    2    0    0 -0.65263621217E+02  0.17772372985E+02  0.31290171398E+03  0.32012916160E+03  0.00000000000E+00 0. -1.
</event>
<event>
 7    1  0.2855090E-009  0.2466741E+03  0.7561462E-02  0.1115425E+00
          1   -1    0    0  501    0  0.00000000000E+00  0.00000000000E+00  0.30822727493E+03  0.30822727493E+03  0.00000000000E+00 0. -1.
         -1   -1    0    0    0  501 -0.00000000000E+00 -0.00000000000E+00 -0.30453410681E+03  0.30453410681E+03  0.00000000000E+00 0.  1.
         25    2    1    2    0    0  0.90460313366E+02 -0.20215820232E+03  0.18351046771E+03  0.31364958326E+03  0.12509581233E+03 0.  0.
          5    1    3    3  502    0  0.86857348949E+02 -0.46582801186E+02  0.68490736351E+02  0.12009417054E+03  0.41800000000E+01 0. -1.
         -5    1    3    3    0  502  0.36029644170E+01 -0.15557540113E+03  0.11501973136E+03  0.19355541271E+03  0.41800000000E+01 0. -1.
        -11    1    1    2    0    0  0.15988216669E+02  0.55835672659E+02 -0.43457961564E+02  0.72538540355E+02  0.00000000000E+00 0.  1.
         11    1    1    2    0    0 -0.10644853004E+03  0.14632252966E+03 -0.13635933803E+03  0.22657325813E+03  0.00000000000E+00 0. -1.
</event>
<event>
 7    1  0.2855090E-009  0.1073597E+03  0.7561462E-02  0.1265539E+00
          3   -1    0    0  501    0  0.00000000000E+00  0.00000000000E+00  0.36205035058E+03  0.36205035058E+03  0.00000000000E+00 0. -1.
         -3   -1    0    0    0  501 -0.00000000000E+00 -0.00000000000E+00 -0.66299270803E+02  0.66299270803E+02  0.00000000000E+00 0.  1.
         25    2    1    2    0    0  0.17802744424E+02  0.97735888908E+02  0.93042905133E+02  0.18486165950E+03  0.12509040438E+03 0.  0.
          5    1    3    3  502    0 -0.63573244558E+01  0.51110640721E+02 -0.23650276244E+02  0.56828875896E+02  0.41800000000E+01 0.  1.
         -5    1    3    3    0  502  0.24160068880E+02  0.46625248187E+02  0.11669318138E+03  0.12803278360E+03  0.41800000000E+01 0.  1.
        -11    1    1    2    0    0  0.10425347654E+02 -0.70070534176E+02  0.18869137636E+03  0.20155149006E+03  0.00000000000E+00 0. -1.
         11    1    1    2    0    0 -0.28228092078E+02 -0.27665354732E+02  0.14016798282E+02  0.41936471822E+02  0.00000000000E+00 0.  1.
</event>
<event>
 7    1  0.2855090E-009  0.8577917E+02  0.7561462E-02  0.1313407E+00
          1   -1    0    0  501    0  0.00000000000E+00  0.00000000000E+00  0.58301623556E+03  0.58301623556E+03  0.00000000000E+00 0. -1.
         -1   -1    0    0    0  501 -0.00000000000E+00 -0.00000000000E+00 -0.49532977155E+02  0.49532977155E+02  0.00000000000E+00 0.  1.
         25    2    1    2    0    0 -0.32539204473E+02 -0.19044219456E+02  0.51423601115E+03  0.53057325716E+03  0.12509126238E+03 0.  0.
          5    1    3    3  502    0  0.46415484133E+02 -0.15155661879E+02  0.14881639236E+03  0.15667763813E+03  0.41800000000E+01 0.  1.
         -5    1    3    3    0  502 -0.78954688605E+02 -0.38885575772E+01  0.36541961879E+03  0.37389561903E+03  0.41800000000E+01 0.  1.
        -11    1    1    2    0    0  0.18676941823E+02  0.22364316095E+02 -0.35199287383E+02  0.45694426603E+02  0.00000000000E+00 0.  1.
         11    1    1    2    0    0  0.13862262649E+02 -0.33200966388E+01  0.54446534638E+02  0.56281528955E+02  0.00000000000E+00 0. -1.
</event>
<event>
 7    1  0.2855090E-009  0.1617858E+03  0.7561462E-02  0.1186695E+00
         -2   -1    0    0    0  501 -0.00000000000E+00  0.00000000000E+00  0.81218462479E+02  0.81218462479E+02  0.00000000000E+00 0.  1.
          2   -1    0    0  501    0  0.00000000000E+00 -0.00000000000E+00 -0.33945023935E+03  0.33945023935E+03  0.00000000000E+00 0. -1.
         25    2    1    2    0    0  0.11144260067E+03 -0.54175572329E+02 -0.16128453962E+03  0.23877700349E+03  0.12508920334E+03 0.  0.
          5    1    3    3  502    0 -0.23511967570E+02  0.82641943223E+00 -0.49828663964E+02  0.55261774677E+02  0.41800000000E+01 0. -1.
         -5    1    3    3    0  502  0.13495456824E+03 -0.55001991761E+02 -0.11145587565E+03  0.18351522881E+03  0.41800000000E+01 0. -1.
        -11    1    1    2    0    0  0.10886955018E+02  0.26235171437E+02 -0.18974165847E+02  0.34158878486E+02  0.00000000000E+00 0. -1.
         11    1    1    2    0    0 -0.12232955569E+03  0.27940400892E+02 -0.77973071402E+02  0.14773281985E+03  0.00000000000E+00 0.  1.
</event>
<event>
 7    1  0.2855090E-009  0.1235066E+03  0.7561462E-02  0.1237422E+00
         -2   -1    0    0    0  501 -0.00000000000E+00  0.00000000000E+00  0.72386818191E+02  0.72386818191E+02  0.00000000000E+00 0.  1.
          2   -1    0    0  501    0  0.00000000000E+00 -0.00000000000E+00 -0.31631003947E+03  0.31631003947E+03  0.00000000000E+00 0. -1.
         25    2    1    2    0    0 -0.92708143131E+02 -0.50748890939E+00 -0.62126755018E+02  0.16763868779E+03  0.12509172077E+03 0.  0.
          5    1    3    3  502    0 -0.11125111406E+03  0.15835921383E+02 -0.13926594048E+02  0.11330935180E+03  0.41800000000E+01 0.  1.
         -5    1    3    3    0  502  0.18542970924E+02 -0.16343410292E+02 -0.48200160970E+02  0.54329335982E+02  0.41800000000E+01 0.  1.
        -11    1    1    2    0    0  0.18289347989E+02  0.25154356617E+02 -0.10755829105E+02  0.32907898237E+02  0.00000000000E+00 0.  1.
         11    1    1    2    0    0  0.74418795143E+02 -0.24646867707E+02 -0.17104063716E+03  0.18815027164E+03  0.00000000000E+00 0. -1.
</event>
<event>
 7    1  0.2855090E-009  0.1118271E+03  0.7561462E-02  0.1257223E+00
         -1   -1    0    0    0  501 -0.00000000000E+00  0.00000000000E+00  0.10681877110E+03  0.10681877110E+03  0.00000000000E+00 0.  1.
          1   -1    0    0  501    0  0.00000000000E+00 -0.00000000000E+00 -0.22882695603E+03  0.22882695603E+03  0.00000000000E+00 0. -1.
         25    2    1    2    0    0 -0.67207257768E+02  0.42313165334E+02  0.16686267775E+02  0.14910498007E+03  0.12508654640E+03 0.  0.
          5    1    3    3  502    0 -0.83043141734E+02  0.63849281888E+02 -0.16673273600E+02  0.10615255362E+03  0.41800000000E+01 0.  1.
         -5    1    3    3    0  502  0.15835883966E+02 -0.21536116554E+02  0.33359541375E+02  0.42952426450E+02  0.41800000000E+01 0.  1.
        -11    1    1    2    0    0  0.36992394130E+02  0.32029306607E+01  0.36718147302E+00  0.37132611146E+02  0.00000000000E+00 0.  1.
         11    1    1    2    0    0  0.30214863638E+02 -0.45516095994E+02 -0.13906163418E+03  0.14940813592E+03  0.00000000000E+00 0. -1.
</event>
<event>
 6    1  0.2855090E-009  0.1545744E+03  0.7561462E-02  0.1194962E+00
         -2   -1    0    0    0  501 -0.00000000000E+00  0.00000000000E+00  0.22572475751E+02  0.22572475751E+02  0.00000000000E+00 0.  1.
          2   -1    0    0  501    0  0.00000000000E+00 -0.00000000000E+00 -0.20385972838E+04  0.20385972838E+04  0.00000000000E+00 0. -1.
          5    1    1    2  502    0 -0.11325963962E+02 -0.80899937272E+01 -0.83090930263E+03  0.83103638130E+03  0.41800000000E+01 0. -1.
         -5    1    1    2    0  502 -0.94456301749E+02 -0.92294646537E+02 -0.75635695599E+03  0.76781092203E+03  0.41800000000E+01 0. -1.
        -11    1    1    2    0    0  0.10903226215E+02 -0.11462077578E+02 -0.10231120258E+02  0.18839728927E+02  0.00000000000E+00 0.  1.
         11    1    1    2    0    0  0.94879039496E+02  0.11184671784E+03 -0.41852742913E+03  0.44348272724E+03  0.00000000000E+00 0. -1.
</event>
<event>
 7    1  0.2855090E-009  0.2217702E+03  0.7561462E-02  0.1132570E+00
          2   -1    0    0  501    0  0.00000000000E+00  0.00000000000E+00  0.12843933545E+04  0.12843933545E+04  0.00000000000E+00 0. -1.
         -2   -1    0    0    0  501 -0.00000000000E+00 -0.00000000000E+00 -0.51632024742E+02  0.51632024742E+02  0.00000000000E+00 0.  1.
         25    2    1    2    0    0 -0.15333221586E+03 -0.14884465146E+03  0.87446860707E+03  0.90885002952E+03  0.12509009843E+03 0.  0.
          5    1    3    3  502    0 -0.11372373476E+03 -0.10467284753E+03  0.79327379575E+03  0.80820188090E+03  0.41800000000E+01 0. -1.
         -5    1    3    3    0  502 -0.39608481093E+02 -0.44171803930E+02  0.81194811320E+02  0.10064814863E+03  0.41800000000E+01 0. -1.
        -11    1    1    2    0    0  0.25033666871E+02 -0.84872725926E+01  0.67836031052E+02  0.72804157724E+02  0.00000000000E+00 0. -1.
         11    1    1    2    0    0  0.12829854898E+03  0.15733192405E+03  0.29045669162E+03  0.35437119198E+03  0.00000000000E+00 0.  1.
</event>
<event>
 7    1  0.2855090E-009  0.1266774E+03  0.7561462E-02  0.1232471E+00
         -1   -1    0    0    0  501 -0.00000000000E+00  0.00000000000E+00  0.31064754920E+02  0.31064754920E+02  0.00000000000E+00 0.  1.
          1   -1    0    0  501    0  0.00000000000E+00 -0.00000000000E+00 -0.71159093161E+03  0.71159093161E+03  0.00000000000E+00 0. -1.
         25    2    1    2    0    0  0.65059448524E+02  0.68409654925E+02 -0.45781981945E+03  0.48389765358E+03  0.12508133086E+03 0.  0.
          5    1    3    3  502    0 -0.11750904813E+02  0.36119839979E+02 -0.31588454481E+02  0.49578518136E+02  0.41800000000E+01 0. -1.
         -5    1    3    3    0  502  0.76810353337E+02  0.32289814946E+02 -0.42623136497E+03  0.43431913544E+03  0.41800000000E+01 0. -1.
        -11    1    1    2    0    0 -0.57459919112E+02  0.52187186417E+01 -0.94718238813E+02  0.11090726799E+03  0.00000000000E+00 0.  1.
         11    1    1    2    0    0 -0.75995294117E+01 -0.73628373567E+02 -0.12798811842E+03  0.14785076496E+03  0.00000000000E+00 0. -1.
</event>
<event>
 7    1  0.2855090E-009  0.1234682E+03  0.7561462E-02  0.1237483E+00
          1   -1    0    0  501    0  0.00000000000E+00  0.00000000000E+00  0.11958103143E+03  0.11958103143E+03  0.00000000000E+00 0. -1.
         -1   -1    0    0    0  501 -0.00000000000E+00 -0.00000000000E+00 -0.13772474848E+03  0.13772474848E+03  0.00000000000E+00 0.  1.
         25    2    1    2    0    0  0.11675827800E+02 -0.67222880169E+02 -0.21541684469E+02  0.14410683214E+03  0.12508994494E+03 0.  0.
          5    1    3    3  502    0  0.64764699354E+02 -0.28984231156E+02  0.92482975647E+01  0.71676742016E+02  0.41800000000E+01 0. -1.
         -5    1    3    3    0  502 -0.53088871555E+02 -0.38238649013E+02 -0.30789982034E+02  0.72430090121E+02  0.41800000000E+01 0. -1.
        -11    1    1    2    0    0  0.34400643531E+02  0.50863653645E+02  0.14425833925E+02  0.63076304758E+02  0.00000000000E+00 0.  1.
         11    1    1    2    0    0 -0.46076471331E+02  0.16359226524E+02 -0.11027866512E+02  0.50122643012E+02  0.00000000000E+00 0. -1.
</event>
<event>
 7    1  0.2855090E-009  0.9229918E+02  0.7561462E-02  0.1297378E+00
         -1   -1    0    0    0  501 -0.00000000000E+00  0.00000000000E+00  0.34225546755E+02  0.34225546755E+02  0.00000000000E+00 0.  1.
          1   -1    0    0  501    0  0.00000000000E+00 -0.00000000000E+00 -0.60574046357E+03  0.60574046357E+03  0.00000000000E+00 0. -1.
         25    2    1    2    0    0 -0.21468632887E+02  0.86007564526E+02 -0.37946044012E+03  0.40926242405E+03  0.12508917926E+03 0.  0.
          5    1    3    3  502    0 -0.86876231872E+01  0.42603474769E+02 -0.35496217322E+03  0.35763968974E+03  0.41800000000E+01 0. -1.
         -5    1    3    3    0  502 -0.12781009700E+02  0.43404089757E+02 -0.24498266898E+02  0.51622734309E+02  0.41800000000E+01 0. -1.
        -11    1    1    2    0    0  0.28876012879E+02 -0.42734708901E+02 -0.17689065166E+03  0.18425629462E+03  0.00000000000E+00 0. -1.
         11    1    1    2    0    0 -0.74073799927E+01 -0.43272855626E+02 -0.15163825043E+02  0.46447291657E+02  0.00000000000E+00 0.  1.
</event>
<event>
 7    1  0.2855090E-009  0.1259766E+03  0.7561462E-02  0.1233551E+00
          2   -1    0    0  501    0  0.00000000000E+00  0.00000000000E+00  0.60394985689E+03  0.60394985689E+03  0.00000000000E+00 0. -1.
         -2   -1    0    0    0  501 -0.00000000000E+00 -0.00000000000E+00 -0.34465692271E+02  0.34465692271E+02  0.00000000000E+00 0.  1.
         25    2    1    2    0    0  0.81528262540E+02 -0.34861409316E+02  0.39017022510E+03  0.41921503598E+03  0.12508503664E+03 0.  0.
          5    1    3    3  502    0  0.16296180528E+02 -0.61461060096E+02  0.86409119661E+02  0.10736403387E+03  0.41800000000E+01 0. -1.
         -5    1    3    3    0  502  0.65232082012E+02  0.26599650780E+02  0.30376110543E+03  0.31185100211E+03  0.41800000000E+01 0. -1.
        -11    1    1    2    0    0 -0.34108479180E+02  0.56136776231E+02  0.13789730448E+03  0.15274289699E+03  0.00000000000E+00 0. -1.
         11    1    1    2    0    0 -0.47419783360E+02 -0.21275366915E+02  0.41416635046E+02  0.66457616191E+02  0.00000000000E+00 0.  1.
</event>
<event>
 7    1  0.2855090E-009  0.1233630E+03  0.7561462E-02  0.1237650E+00
         -1   -1    0    0    0  501 -0.00000000000E+00  0.00000000000E+00  0.60191371413E+03  0.60191371413E+03  0.00000000000E+00 0.  1.
          1   -1    0    0  501    0  0.00000000000E+00 -0.00000000000E+00 -0.39377449867E+02  0.39377449867E+02  0.00000000000E+00 0. -1.
         25    2    1    2    0    0 -0.50590114499E+02 -0.34855470835E+02  0.11543035553E+03  0.18095744770E+03  0.12508863805E+03 0.  0.
          5    1    3    3  502    0 -0.92222413284E+02 -0.25568016436E+02  0.71096243691E+02  0.11929310644E+03  0.41800000000E+01 0.  1.
         -5    1    3    3    0  502  0.41632298784E+02 -0.92874543994E+01  0.44334111840E+02  0.61664341267E+02  0.41800000000E+01 0.  1.
        -11    1    1    2    0    0 -0.25204269139E+02  0.16382464368E+02  0.16101050239E+03  0.16379261950E+03  0.00000000000E+00 0. -1.
         11    1    1    2    0    0  0.75794383639E+02  0.18473006468E+02  0.28609540634E+03  0.29654109680E+03  0.00000000000E+00 0.  1.
</event>
<event>
 7    1  0.2855090E-009  0.1102685E+03  0.7561462E-02  0.1260073E+00
         -3   -1    0    0    0  501 -0.00000000000E+00  0.00000000000E+00  0.39457285261E+03  0.39457285261E+03  0.00000000000E+00 0.  1.
          3   -1    0    0  501    0  0.00000000000E+00 -0.00000000000E+00 -0.39353655113E+02  0.39353655113E+02  0.00000000000E+00 0. -1.
         25    2    1    2    0    0  0.11805227373E+02  0.48866688995E+02  0.30301707887E+03  0.33165275982E+03  0.12508751465E+03 0.  0.
          5    1    3    3  502    0 -0.53074575027E+02  0.11964794726E+00  0.10904389505E+03  0.12134648029E+03  0.41800000000E+01 0.  1.
         -5    1    3    3    0  502  0.64879802400E+02  0.48747041048E+02  0.19397318382E+03  0.21030627954E+03  0.41800000000E+01 0.  1.
        -11    1    1    2    0    0  0.87957981722E+01 -0.61332012000E+02  0.27533858992E+02  0.67801881629E+02  0.00000000000E+00 0. -1.
         11    1    1    2    0    0 -0.20601025545E+02  0.12465323004E+02  0.24668259633E+02  0.34471866274E+02  0.00000000000E+00 0.  1.
</event>
<event>
 7    1  0.2855090E-009  0.1087065E+03  0.7561462E-02  0.1262984E+00
          2   -1    0    0  501    0  0.00000000000E+00  0.00000000000E+00  0.10076691203E+04  0.10076691203E+04  0.00000000000E+00 0. -1.
         -2   -1    0    0    0  501 -0.00000000000E+00 -0.00000000000E+00 -0.14356280913E+02  0.14356280913E+02  0.00000000000E+00 0.  1.
         25    2    1    2    0    0  0.14311427120E+02  0.72971014562E+01  0.77372018362E+03  0.78393215319E+03  0.12509449881E+03 0.  0.
          5    1    3    3  502    0  0.39502301530E+02 -0.49708743221E+02  0.38227812063E+03  0.38753764319E+03  0.41800000000E+01 0.  1.
         -5    1    3    3    0  502 -0.25190874410E+02  0.57005844677E+02  0.39144206299E+03  0.39639451000E+03  0.41800000000E+01 0.  1.
        -11    1    1    2    0    0 -0.37237539881E+02 -0.37865864030E+02  0.14190057685E+03  0.15151314050E+03  0.00000000000E+00 0. -1.
         11    1    1    2    0    0  0.22926112762E+02  0.30568762574E+02  0.77692078971E+02  0.86580107568E+02  0.00000000000E+00 0.  1.
</event>
<event>
 7    1  0.2855090E-009  0.9738219E+02  0.7561462E-02  0.1285899E+00
         -2   -1    0    0    0  501 -0.00000000000E+00  0.00000000000E+00  0.88931034769E+03  0.88931034769E+03  0.00000000000E+00 0.  1.
          2   -1    0    0  501    0  0.00000000000E+00 -0.00000000000E+00 -0.19238456375E+02  0.19238456375E+02  0.00000000000E+00 0. -1.
         25    2    1    2    0    0 -0.15201391617E+02 -0.60281498232E+02  0.52530456354E+03  0.54356117789E+03  0.12509567656E+03 0.  0.
          5    1    3    3  502    0  0.68404040508E+01  0.92734399752E+01 -0.91369831885E+00  0.12292073103E+02  0.41800000000E+01 0.  1.
         -5    1    3    3    0  502 -0.22041795667E+02 -0.69554938207E+02  0.52621826186E+03  0.53126910479E+03  0.41800000000E+01 0.  1.
        -11    1    1    2    0    0  0.52609402256E+01  0.83760826671E+02  0.31403188890E+03  0.32505319691E+03  0.00000000000E+00 0.  1.
         11    1    1    2    0    0  0.99404513909E+01 -0.23479328439E+02  0.30735438872E+02  0.39934429262E+02  0.00000000000E+00 0. -1.
</event>
<event>
 7    1  0.2855090E-009  0.1265213E+03  0.7561462E-02  0.1232711E+00
          1   -1    0    0  501    0  0.00000000000E+00  0.00000000000E+00  0.67973353860E+02  0.67973353860E+02  0.00000000000E+00 0. -1.
         -1   -1    0    0    0  501 -0.00000000000E+00 -0.00000000000E+00 -0.28241612630E+03  0.28241612630E+03  0.00000000000E+00 0.  1.
         25    2    1    2    0    0  0.77392333882E+02 -0.72470754367E+00 -0.16711869578E+03  0.22263785323E+03  0.12509539027E+03 0.  0.
          5    1    3    3  502    0  0.10757850180E+03  0.12491422004E+01 -0.15718697731E+03  0.19052535958E+03  0.41800000000E+01 0.  1.
         -5    1    3    3    0  502 -0.30186167921E+02 -0.19738497441E+01 -0.99317184686E+01  0.32112493648E+02  0.41800000000E+01 0.  1.
        -11    1    1    2    0    0 -0.17825721886E+02  0.39792170045E+02 -0.33975343818E+02  0.55276551495E+02  0.00000000000E+00 0. -1.
         11    1    1    2    0    0 -0.59566611995E+02 -0.39067462501E+02 -0.13348732838E+02  0.72475075435E+02  0.00000000000E+00 0.  1.
</event>
<event>
 7    1  0.2855090E-009  0.8029757E+02  0.7561462E-02  0.1328209E+00
          1   -1    0    0  501    0  0.00000000000E+00  0.00000000000E+00  0.21679363652E+03  0.21679363652E+03  0.00000000000E+00 0. -1.
         -1   -1    0    0    0  501 -0.00000000000E+00 -0.00000000000E+00 -0.66207044851E+02  0.66207044851E+02  0.00000000000E+00 0.  1.
         25    2    1    2    0    0  0.43225512841E+02 -0.27129498774E+02  0.93832684771E+02  0.16448539537E+03  0.12508564224E+03 0.  0.
          5    1    3    3  502    0  0.62100591341E+02  0.35745652175E+01 -0.16247785216E+01  0.62364839987E+02  0.41800000000E+01 0. -1.
         -5    1    3    3    0  502 -0.18875078499E+02 -0.30704063991E+02  0.95457463292E+02  0.10212055539E+03  0.41800000000E+01 0. -1.
        -11    1    1    2    0    0 -0.38420693810E+02  0.43254754253E+01  0.77950833514E+02  0.87012596192E+02  0.00000000000E+00 0. -1.
         11    1    1    2    0    0 -0.48048190308E+01  0.22804023349E+02 -0.21196926619E+02  0.31502689804E+02  0.00000000000E+00 0.  1.
</event>
<event>
 7    1  0.2855090E-009  0.1177856E+03  0.7561462E-02  0.1246795E+00
         -1   -1    0    0    0  501 -0.00000000000E+00  0.00000000000E+00  0.15675494413E+02  0.15675494413E+02  0.00000000000E+00 0.  1.
          1   -1    0    0  501    0  0.00000000000E+00 -0.00000000000E+00 -0.12856141663E+04  0.12856141663E+04  0.00000000000E+00 0. -1.
         25    2    1    2    0    0 -0.37800980616E+02 -0.23554769305E+02 -0.10162218680E+04  0.10248599947E+04  0.12508949767E+03 0.  0.
          5    1    3    3  502    0  0.58300903472E+00  0.49245688348E+02 -0.44209157276E+03  0.44484593830E+03  0.41800000000E+01 0. -1.
         -5    1    3    3    0  502 -0.38383989651E+02 -0.72800457653E+02 -0.57413029526E+03  0.58001405641E+03  0.41800000000E+01 0.  1.
        -11    1    1    2    0    0 -0.24967768771E+02 -0.15899556716E+02 -0.37007066252E+02  0.47388905175E+02  0.00000000000E+00 0.  1.
         11    1    1    2    0    0  0.62768749387E+02  0.39454326020E+02 -0.21670973760E+03  0.22904076081E+03  0.00000000000E+00 0. -1.
</event>
<event>
 7    1  0.2855090E-009  0.9924712E+02  0.7561462E-02  0.1281887E+00
         -1   -1    0    0    0  501 -0.00000000000E+00  0.00000000000E+00  0.19043535789E+03  0.19043535789E+03  0.00000000000E+00 0.  1.
          1   -1    0    0  501    0  0.00000000000E+00 -0.00000000000E+00 -0.90286671119E+02  0.90286671119E+02  0.00000000000E+00 0. -1.
         25    2    1    2    0    0 -0.21304348006E+02 -0.10945506761E+02  0.13066249272E+03  0.18246721274E+03  0.12509163584E+03 0.  0.
          5    1    3    3  502    0 -0.54048668020E+02  0.38725283757E+02  0.56915665132E+02  0.87622893437E+02  0.41800000000E+01 0.  1.
         -5    1    3    3    0  502  0.32744320014E+02 -0.49670790518E+02  0.73746827589E+02  0.94844319299E+02  0.41800000000E+01 0.  1.
        -11    1    1    2    0    0 -0.16394593889E+02  0.26735233731E+02 -0.45035689095E+02  0.54879583851E+02  0.00000000000E+00 0. -1.
         11    1    1    2    0    0  0.37698941895E+02 -0.15789726969E+02  0.14521883148E+02  0.43375232425E+02  0.00000000000E+00 0.  1.
</event>
<event>
 7    1  0.2855090E-009  0.1459033E+03  0.7561462E-02  0.1205599E+00
         -3   -1    0    0    0  501 -0.00000000000E+00  0.00000000000E+00  0.21793337888E+03  0.21793337888E+03  0.00000000000E+00 0.  1.
          3   -1    0    0  501    0  0.00000000000E+00 -0.00000000000E+00 -0.19638837392E+03  0.19638837392E+03  0.00000000000E+00 0. -1.
         25    2    1    2    0    0 -0.18574998331E+02  0.11783388927E+03  0.12359985173E+03  0.21249746605E+03  0.12509353982E+03 0.  0.
          5    1    3    3  502    0 -0.46501510883E+02  0.74606290052E+02  0.13352254291E+03  0.15991945127E+03  0.41800000000E+01 0.  1.
         -5    1    3    3    0  502  0.27926512552E+02  0.43227599221E+02 -0.99226911767E+01  0.52578014777E+02  0.41800000000E+01 0.  1.
        -11    1    1    2    0    0 -0.38525763732E+02 -0.38987397247E+02 -0.87701613540E+02  0.10342061996E+03  0.00000000000E+00 0. -1.
         11    1    1    2    0    0  0.57100762063E+02 -0.78846492025E+02 -0.14353233238E+02  0.98403666787E+02  0.00000000000E+00 0.  1.
</event>
<event>
 7    1  0.2855090E-009  0.1381164E+03  0.7561462E-02  0.1215886E+00
         -1   -1    0    0    0  501 -0.00000000000E+00  0.00000000000E+00  0.18403945280E+02  0.18403945280E+02  0.00000000000E+00 0.  1.
          1   -1    0    0  501    0  0.00000000000E+00 -0.00000000000E+00 -0.11143185677E+04  0.11143185677E+04  0.00000000000E+00 0. -1.
         25    2    1    2    0    0 -0.78964629552E+02 -0.67242491922E+02 -0.63581396076E+03  0.65624955331E+03  0.12508844103E+03 0.  0.
          5    1    3    3  502    0 -0.47499767080E+02  0.28412438628E+02 -0.31894573909E+03  0.32373963524E+03  0.41800000000E+01 0. -1.
         -5    1    3    3    0  502 -0.31464862472E+02 -0.95654930550E+02 -0.31686822167E+03  0.33250991806E+03  0.41800000000E+01 0. -1.
        -11    1    1    2    0    0  0.43575863932E+02 -0.42725055519E+00 -0.11394060691E+03  0.12198975515E+03  0.00000000000E+00 0.  1.
         11    1    1    2    0    0  0.35388765620E+02  0.67669742477E+02 -0.34616005476E+03  0.35448320452E+03  0.00000000000E+00 0. -1.
</event>
<event>
 7    1  0.2855090E-009  0.1844280E+03  0.7561462E-02  0.1163585E+00
          1   -1    0    0  501    0  0.00000000000E+00  0.00000000000E+00  0.86312370312E+03  0.86312370312E+03  0.00000000000E+00 0. -1.
         -1   -1    0    0    0  501 -0.00000000000E+00 -0.00000000000E+00 -0.41503909496E+02  0.41503909496E+02  0.00000000000E+00 0.  1.
         25    2    1    2    0    0 -0.10168567713E+03  0.10989308673E+03  0.34433138829E+03  0.39576306766E+03  0.12509129993E+03 0.  0.
          5    1    3    3  502    0 -0.12198611624E+03  0.50332791097E+02  0.23478887657E+03  0.26936460676E+03  0.41800000000E+01 0.  1.
         -5    1    3    3    0  502  0.20300439109E+02  0.59560295633E+02  0.10954251172E+03  0.12639846090E+03  0.41800000000E+01 0.  1.
        -11    1    1    2    0    0  0.38675048629E+02  0.85450994219E+01  0.15015590165E+03  0.15529189584E+03  0.00000000000E+00 0. -1.
         11    1    1    2    0    0  0.63010628500E+02 -0.11843818615E+03  0.32713250369E+03  0.35357264913E+03  0.00000000000E+00 0.  1.
</event>
<event>
 7    1  0.2855090E-009  0.1726401E+03  0.7561462E-02  0.1175122E+00
          1   -1    0    0  501    0  0.00000000000E+00  0.00000000000E+00  0.57325422342E+03  0.57325422342E+03  0.00000000000E+00 0. -1.
         -1   -1    0    0    0  501 -0.00000000000E+00 -0.00000000000E+00 -0.67252714538E+02  0.67252714538E+02  0.00000000000E+00 0.  1.
         25    2    1    2    0    0 -0.59703433932E+02 -0.14882674892E+03  0.21286109844E+03  0.29439959314E+03  0.12508945597E+03 0.  0.
          5    1    3    3  502    0  0.73621161559E+01 -0.96274592116E+02  0.46081674448E+02  0.10707002831E+03  0.41800000000E+01 0. -1.
         -5    1    3    3    0  502 -0.67065550088E+02 -0.52552156803E+02  0.16677942400E+03  0.18732956484E+03  0.41800000000E+01 0. -1.
        -11    1    1    2    0    0  0.39884791011E+02  0.58165708143E+02  0.51702132637E+02  0.87448022716E+02  0.00000000000E+00 0.  1.
         11    1    1    2    0    0  0.19818642922E+02  0.90661040776E+02  0.24143827780E+03  0.25865932210E+03  0.00000000000E+00 0. -1.
</event>
<event>
 7    1  0.2855090E-009  0.7498885E+02  0.7561462E-02  0.1343906E+00
         -1   -1    0    0    0  501 -0.00000000000E+00  0.00000000000E+00  0.45107785339E+02  0.45107785339E+02  0.00000000000E+00 0.  1.
          1   -1    0    0  501    0  0.00000000000E+00 -0.00000000000E+00 -0.35349393799E+03  0.35349393799E+03  0.00000000000E+00 0. -1.
         25    2    1    2    0    0 -0.42653525533E+02  0.16135445576E+02 -0.94211464536E+02  0.16310316523E+03  0.12508863503E+03 0.  0.
          5    1    3    3  502    0 -0.38204937079E+02  0.46286646938E+02 -0.11231153184E+03  0.12741045282E+03  0.41800000000E+01 0. -1.
         -5    1    3    3    0  502 -0.44485884536E+01 -0.30151201362E+02  0.18100067307E+02  0.35692712412E+02  0.41800000000E+01 0. -1.
        -11    1    1    2    0    0  0.44843348970E+02 -0.21484835743E+01 -0.21653997974E+03  0.22114498582E+03  0.00000000000E+00 0. -1.
         11    1    1    2    0    0 -0.21898234371E+01 -0.13986962002E+02  0.23652916233E+01  0.14353572280E+02  0.00000000000E+00 0.  1.
</event>
<event>
 7    1  0.2855090E-009  0.1098437E+03  0.7561462E-02  0.1260860E+00
          2   -1    0    0  501    0  0.00000000000E+00  0.00000000000E+00  0.22937381206E+04  0.22937381206E+04  0.00000000000E+00 0. -1.
         -2   -1    0    0    0  501 -0.00000000000E+00 -0.00000000000E+00 -0.70786891379E+01  0.70786891379E+01  0.00000000000E+00 0.  1.
         25    2    1    2    0    0 -0.23184428729E+02  0.36197070582E+02  0.17079735863E+04  0.17130876232E+04  0.12509071746E+03 0.  0.
          5    1    3    3  502    0  0.40620448233E+02 -0.46741236794E+01  0.10409251644E+04  0.10417363095E+04  0.41800000000E+01 0.  1.
         -5    1    3    3    0  502 -0.63804876962E+02  0.40871194262E+02  0.66704842196E+03  0.67135131376E+03  0.41800000000E+01 0.  1.
        -11    1    1    2    0    0  0.50027784228E+01 -0.66861534806E+02  0.38106197991E+03  0.38691565640E+03  0.00000000000E+00 0.  1.
         11    1    1    2    0    0  0.18181650306E+02  0.30664464224E+02  0.19762386526E+03  0.20081353015E+03  0.00000000000E+00 0. -1.
</event>
<event>
 7    1  0.2855090E-009  0.1556464E+03  0.7561462E-02  0.1193702E+00
         -1   -1    0    0    0  501 -0.00000000000E+00  0.00000000000E+00  0.99441239969E+02  0.99441239969E+02  0.00000000000E+00 0.  1.
          1   -1    0    0  501    0  0.00000000000E+00 -0.00000000000E+00 -0.34015603521E+03  0.34015603521E+03  0.00000000000E+00 0. -1.
         25    2    1    2    0    0  0.11343362645E+03 -0.78564547380E+02 -0.78110027549E+02  0.20196041109E+03  0.12508899044E+03 0.  0.
          5    1    3    3  502    0  0.92400001455E+02 -0.80484300344E+01 -0.87600059263E+02  0.12764709271E+03  0.41800000000E+01 0.  1.
         -5    1    3    3    0  502  0.21033624993E+02 -0.70516117346E+02  0.94900317139E+01  0.74313318374E+02  0.41800000000E+01 0.  1.
        -11    1    1    2    0    0 -0.10061915503E+03  0.47757115528E+02 -0.53531418973E+02  0.12357414478E+03  0.00000000000E+00 0.  1.
         11    1    1    2    0    0 -0.12814471421E+02  0.30807431852E+02 -0.10907334872E+03  0.11406271931E+03  0.00000000000E+00 0. -1.
</event>
<event>
 7    1  0.2855090E-009  0.2499823E+03  0.7561462E-02  0.1113316E+00
          1   -1    0    0  501    0  0.00000000000E+00  0.00000000000E+00  0.48587417393E+03  0.48587417393E+03  0.00000000000E+00 0. -1.
         -1   -1    0    0    0  501 -0.00000000000E+00 -0.00000000000E+00 -0.16729560609E+03  0.16729560609E+03  0.00000000000E+00 0.  1.
         25    2    1    2    0    0  0.22826542439E+03  0.75677545012E+02  0.28512071250E+03  0.39340919579E+03  0.12507909436E+03 0.  0.
          5    1    3    3  502    0 -0.16836861028E+01  0.21311923450E+02 -0.16061435858E+01  0.21842275002E+02  0.41800000000E+01 0. -1.
         -5    1    3    3    0  502  0.22994911049E+03  0.54365621562E+02  0.28672685608E+03  0.37156692079E+03  0.41800000000E+01 0. -1.
        -11    1    1    2    0    0 -0.14252743934E+03 -0.34008200156E+02 -0.23962794198E+02  0.14847506238E+03  0.00000000000E+00 0.  1.
         11    1    1    2    0    0 -0.85737985049E+02 -0.41669344855E+02  0.57420649544E+02  0.11128552186E+03  0.00000000000E+00 0. -1.
</event>
<event>
 7    1  0.2855090E-009  0.9768831E+02  0.7561462E-02  0.1285234E+00
          2   -1    0    0  501    0  0.00000000000E+00  0.00000000000E+00  0.48964015432E+03  0.48964015432E+03  0.00000000000E+00 0. -1.
         -2   -1    0    0    0  501 -0.00000000000E+00 -0.00000000000E+00 -0.34962790245E+02  0.34962790245E+02  0.00000000000E+00 0.  1.
         25    2    1    2    0    0 -0.23247505870E+02  0.10739570820E+02  0.38694457627E+03  0.40746465891E+03  0.12508220596E+03 0.  0.
          5    1    3    3  502    0  0.31669286577E+02 -0.37678823859E+02  0.21377231163E+03  0.21940535796E+03  0.41800000000E+01 0. -1.
         -5    1    3    3    0  502 -0.54916792447E+02  0.48418394679E+02  0.17317226463E+03  0.18805930095E+03  0.41800000000E+01 0. -1.
        -11    1    1    2    0    0 -0.22598333357E+02 -0.14168524517E+02  0.65939078363E+02  0.71129415946E+02  0.00000000000E+00 0. -1.
         11    1    1    2    0    0  0.45845839227E+02  0.34289536971E+01  0.17937094399E+01  0.46008869704E+02  0.00000000000E+00 0.  1.
</event>
<event>
 7    1  0.2855090E-009  0.1413705E+03  0.7561462E-02  0.1211497E+00
         -2   -1    0    0    0  501 -0.00000000000E+00  0.00000000000E+00  0.11280882887E+03  0.11280882887E+03  0.00000000000E+00 0. -1.
          2   -1    0    0  501    0  0.00000000000E+00 -0.00000000000E+00 -0.29390701024E+03  0.29390701024E+03  0.00000000000E+00 0.  1.
         25    2    1    2    0    0 -0.70520529007E+02  0.10808265194E+03 -0.16708685947E+03  0.24539427009E+03  0.12508127167E+03 0.  0.
          5    1    3    3  502    0 -0.86325238162E+02  0.68772937360E+02 -0.50825735471E+02  0.12158326959E+03  0.41800000000E+01 0.  1.
         -5    1    3    3    0  502  0.15804709155E+02  0.39309714575E+02 -0.11626112400E+03  0.12381100050E+03  0.41800000000E+01 0.  1.
        -11    1    1    2    0    0  0.42733845706E+02 -0.53529490536E+02  0.40308398460E+02  0.79475498817E+02  0.00000000000E+00 0. -1.
         11    1    1    2    0    0  0.27786683301E+02 -0.54553161399E+02 -0.54319720365E+02  0.81846070205E+02  0.00000000000E+00 0.  1.
</event>
<event>
 7    1  0.2855090E-009  0.1252191E+03  0.7561462E-02  0.1234727E+00
         -3   -1    0    0    0  501 -0.00000000000E+00  0.00000000000E+00  0.21260823325E+04  0.21260823325E+04  0.00000000000E+00 0.  1.
          3   -1    0    0  501    0  0.00000000000E+00 -0.00000000000E+00 -0.85301078077E+01  0.85301078077E+01  0.00000000000E+00 0. -1.
         25    2    1    2    0    0  0.46240296152E+02 -0.43464903798E+02  0.15432648595E+04  0.15496249367E+04  0.12507459877E+03 0.  0.
          5    1    3    3  502    0  0.88711677167E+02 -0.21237134937E+02  0.92824053586E+03  0.93272114931E+03  0.41800000000E+01 0.  1.
         -5    1    3    3    0  502 -0.42471381015E+02 -0.22227768861E+02  0.61502432360E+03  0.61690378742E+03  0.41800000000E+01 0.  1.
        -11    1    1    2    0    0 -0.68734813262E+02  0.82616161893E+01  0.38074432931E+03  0.38698704521E+03  0.00000000000E+00 0. -1.
         11    1    1    2    0    0  0.22494517111E+02  0.35203287609E+02  0.19354303589E+03  0.19800045833E+03  0.00000000000E+00 0.  1.
</event>
<event>
 7    1  0.2855090E-009  0.1026068E+03  0.7561462E-02  0.1274908E+00
          2   -1    0    0  501    0  0.00000000000E+00  0.00000000000E+00  0.11659706775E+02  0.11659706775E+02  0.00000000000E+00 0. -1.
         -2   -1    0    0    0  501 -0.00000000000E+00 -0.00000000000E+00 -0.12584014962E+04  0.12584014962E+04  0.00000000000E+00 0.  1.
         25    2    1    2    0    0 -0.16805846292E+02 -0.78662071597E+01 -0.98363867261E+03  0.99173422576E+03  0.12508965825E+03 0.  0.
          5    1    3    3  502    0 -0.65437483503E+02  0.12351170339E+02 -0.38229430308E+03  0.38807347529E+03  0.41800000000E+01 0.  1.
         -5    1    3    3    0  502  0.48631637210E+02 -0.20217377499E+02 -0.60134436953E+03  0.60366075047E+03  0.41800000000E+01 0.  1.
        -11    1    1    2    0    0  0.94086253520E+01  0.45928827835E+02 -0.96695723529E+02  0.10746181836E+03  0.00000000000E+00 0.  1.
         11    1    1    2    0    0  0.73972209403E+01 -0.38062620675E+02 -0.16640739332E+03  0.17086515889E+03  0.00000000000E+00 0. -1.
</event>
<event>
 7    1  0.2855090E-009  0.9953705E+02  0.7561462E-02  0.1281272E+00
          2   -1    0    0  501    0  0.00000000000E+00  0.00000000000E+00  0.41969399909E+03  0.41969399909E+03  0.00000000000E+00 0. -1.
         -2   -1    0    0    0  501 -0.00000000000E+00 -0.00000000000E+00 -0.32527268301E+02  0.32527268301E+02  0.00000000000E+00 0.  1.
         25    2    1    2    0    0 -0.41205883183E+01 -0.39680886311E+02  0.22786815678E+03  0.26298480284E+03  0.12508220363E+03 0.  0.
          5    1    3    3  502    0  0.60241617595E+02 -0.16773844961E+02  0.10220065214E+03  0.11988686359E+03  0.41800000000E+01 0. -1.
         -5    1    3    3    0  502 -0.64362205914E+02 -0.22907041350E+02  0.12566750464E+03  0.14309793924E+03  0.41800000000E+01 0. -1.
        -11    1    1    2    0    0 -0.31992372715E+01 -0.13703757031E+02 -0.60587599054E+01  0.15321117697E+02  0.00000000000E+00 0.  1.
         11    1    1    2    0    0  0.73198255898E+01  0.53384643342E+02  0.16535733392E+03  0.17391534685E+03  0.00000000000E+00 0. -1.
</event>
<event>
 7    1  0.2855090E-009  0.8758619E+02  0.7561462E-02  0.1308805E+00
          2   -1    0    0  501    0  0.00000000000E+00  0.00000000000E+00  0.19298629428E+03  0.19298629428E+03  0.00000000000E+00 0. -1.
         -2   -1    0    0    0  501 -0.00000000000E+00 -0.00000000000E+00 -0.77598948083E+02  0.77598948083E+02  0.00000000000E+00 0.  1.
         25    2    1    2    0    0  0.41263042346E+02  0.16434356317E+02  0.10319873370E+03  0.16813565043E+03  0.12508753566E+03 0.  0.
          5    1    3    3  502    0  0.44105661687E+02 -0.24713494511E+02  0.11444115348E+03  0.12518113362E+03  0.41800000000E+01 0.  1.
         -5    1    3    3    0  502 -0.28426193415E+01  0.41147850828E+02 -0.11242419778E+02  0.42954516816E+02  0.41800000000E+01 0.  1.
        -11    1    1    2    0    0 -0.28389048652E+02  0.26088745094E+02  0.35382608127E+02  0.52330580560E+02  0.00000000000E+00 0. -1.
         11    1    1    2    0    0 -0.12873993694E+02 -0.42523101411E+02 -0.23193995634E+02  0.50119011369E+02  0.00000000000E+00 0.  1.
</event>
<event>
 7    1  0.2855090E-009  0.1070745E+03  0.7561462E-02  0.1266085E+00
          2   -1    0    0  501    0  0.00000000000E+00  0.00000000000E+00  0.88421824512E+02  0.88421824512E+02  0.00000000000E+00 0. -1.
         -2   -1    0    0    0  501 -0.00000000000E+00 -0.00000000000E+00 -0.21348097686E+03  0.21348097686E+03  0.00000000000E+00 0.  1.
         25    2    1    2    0    0  0.78713835077E+02  0.24392317782E+02 -0.10276052560E+03  0.18165356149E+03  0.12508971892E+03 0.  0.
          5    1    3    3  502    0  0.27331859061E+02 -0.39597267866E+02  0.22093776730E+01  0.48345919082E+02  0.41800000000E+01 0. -1.
         -5    1    3    3    0  502  0.51381976016E+02  0.63989585648E+02 -0.10496990328E+03  0.13330764241E+03  0.41800000000E+01 0. -1.
        -11    1    1    2    0    0 -0.11705494123E+02 -0.94094196907E+01 -0.45387872532E+02  0.47808103336E+02  0.00000000000E+00 0.  1.
         11    1    1    2    0    0 -0.67008340954E+02 -0.14982898092E+02  0.23089245790E+02  0.72441136544E+02  0.00000000000E+00 0. -1.
</event>
<event>
 7    1  0.2855090E-009  0.1329816E+03  0.7561462E-02  0.1223097E+00
          2   -1    0    0  501    0  0.00000000000E+00  0.00000000000E+00  0.24690815768E+03  0.24690815768E+03  0.00000000000E+00 0. -1.
         -2   -1    0    0    0  501 -0.00000000000E+00 -0.00000000000E+00 -0.10198388610E+03  0.10198388610E+03  0.00000000000E+00 0.  1.
         25    2    1    2    0    0  0.88748378676E+01  0.10267881625E+03  0.13335002705E+03  0.20988304117E+03  0.12508780597E+03 0.  0.
          5    1    3    3  502    0  0.40744764898E+02  0.80330506263E+02  0.14346528535E+03  0.16944877280E+03  0.41800000000E+01 0.  1.
         -5    1    3    3    0  502 -0.31869927030E+02  0.22348309986E+02 -0.10115258298E+02  0.40434268369E+02  0.41800000000E+01 0.  1.
        -11    1    1    2    0    0 -0.48915966296E+02 -0.45254795031E+02 -0.57645883995E+01  0.66887956400E+02  0.00000000000E+00 0. -1.
         11    1    1    2    0    0  0.40041128428E+02 -0.57424021218E+02  0.17338832934E+02  0.72121046208E+02  0.00000000000E+00 0.  1.
</event>
<event>
 7    1  0.2855090E-009  0.1172222E+03  0.7561462E-02  0.1247751E+00
          1   -1    0    0  501    0  0.00000000000E+00  0.00000000000E+00  0.59414460718E+03  0.59414460718E+03  0.00000000000E+00 0. -1.
         -1   -1    0    0    0  501 -0.00000000000E+00 -0.00000000000E+00 -0.33649134285E+02  0.33649134285E+02  0.00000000000E+00 0.  1.
         25    2    1    2    0    0 -0.15786235980E+02  0.87906627804E+02  0.26887515088E+03  0.30970537468E+03  0.12508713717E+03 0.  0.
          5    1    3    3  502    0 -0.31047111702E+02  0.91857565601E+02  0.97548357954E+02  0.13760410620E+03  0.41800000000E+01 0.  1.
         -5    1    3    3    0  502  0.15260875723E+02 -0.39509377978E+01  0.17132679293E+03  0.17210126848E+03  0.41800000000E+01 0.  1.
        -11    1    1    2    0    0  0.48714856184E+02 -0.63807343648E+02  0.23472332444E+03  0.24807166979E+03  0.00000000000E+00 0. -1.
         11    1    1    2    0    0 -0.32928620204E+02 -0.24099284156E+02  0.56896997573E+02  0.70016696995E+02  0.00000000000E+00 0.  1.
</event>
<event>
 7    1  0.2855090E-009  0.9579968E+02  0.7561462E-02  0.1289385E+00
          2   -1    0    0  501    0  0.00000000000E+00  0.00000000000E+00  0.15830137473E+03  0.15830137473E+03  0.00000000000E+00 0.  1.
         -2   -1    0    0    0  501 -0.00000000000E+00 -0.00000000000E+00 -0.98943740968E+02  0.98943740968E+02  0.00000000000E+00 0. -1.
         25    2    1    2    0    0 -0.28584089509E+02 -0.35093671795E+02  0.56553205944E+02  0.14455712982E+03  0.12509949123E+03 0.  0.
          5    1    3    3  502    0 -0.45413229580E+02  0.37082531651E+02  0.26436008271E+02  0.64450062125E+02  0.41800000000E+01 0.  1.
         -5    1    3    3    0  502  0.16829140071E+02 -0.72176203446E+02  0.30117197673E+02  0.80107067698E+02  0.41800000000E+01 0.  1.
        -11    1    1    2    0    0 -0.85454876981E+01  0.12451252787E+02  0.47789309341E+02  0.50118630700E+02  0.00000000000E+00 0.  1.
         11    1    1    2    0    0  0.37129577207E+02  0.22642419008E+02 -0.44984881520E+02  0.62569355179E+02  0.00000000000E+00 0. -1.
</event>
<event>
 7    1  0.2855090E-009  0.7478114E+02  0.7561462E-02  0.1344550E+00
          1   -1    0    0  501    0  0.00000000000E+00  0.00000000000E+00  0.15672588308E+03  0.15672588308E+03  0.00000000000E+00 0. -1.
         -1   -1    0    0    0  501 -0.00000000000E+00 -0.00000000000E+00 -0.76724208299E+02  0.76724208299E+02  0.00000000000E+00 0.  1.
         25    2    1    2    0    0  0.94171909623E+01 -0.35219488530E+01  0.62546867187E+02  0.14021588275E+03  0.12508915050E+03 0.  0.
          5    1    3    3  502    0  0.30692478795E+01  0.41626480901E+02 -0.19500141900E+02  0.46259184265E+02  0.41800000000E+01 0.  1.
         -5    1    3    3    0  502  0.63479430828E+01 -0.45148429754E+02  0.82047009086E+02  0.93956698488E+02  0.41800000000E+01 0.  1.
        -11    1    1    2    0    0  0.23458743086E+01 -0.28044963395E+02  0.42697945869E+02  0.51138416866E+02  0.00000000000E+00 0. -1.
         11    1    1    2    0    0 -0.11763065271E+02  0.31566912248E+02 -0.25243138279E+02  0.42095791757E+02  0.00000000000E+00 0.  1.
</event>
<event>
 7    1  0.2855090E-009  0.9723957E+02  0.7561462E-02  0.1286210E+00
         -2   -1    0    0    0  501 -0.00000000000E+00  0.00000000000E+00  0.23484658744E+03  0.23484658744E+03  0.00000000000E+00 0.  1.
          2   -1    0    0  501    0  0.00000000000E+00 -0.00000000000E+00 -0.60443320832E+02  0.60443320832E+02  0.00000000000E+00 0. -1.
         25    2    1    2    0    0  0.10198115496E+02  0.39079754697E+02  0.13682718174E+03  0.18973396586E+03  0.12508425701E+03 0.  0.
          5    1    3    3  502    0 -0.41342151888E+02  0.62187235485E+02  0.76535665284E+02  0.10701217800E+03  0.41800000000E+01 0.  1.
         -5    1    3    3    0  502  0.51540267384E+02 -0.23107480787E+02  0.60291516452E+02  0.82721787858E+02  0.41800000000E+01 0.  1.
        -11    1    1    2    0    0 -0.28318558430E+02 -0.33962771155E+02  0.61100928348E+02  0.75423696682E+02  0.00000000000E+00 0.  1.
         11    1    1    2    0    0  0.18120442934E+02 -0.51169835420E+01 -0.23524843472E+02  0.30132245735E+02  0.00000000000E+00 0. -1.
</event>
<event>
 7    1  0.2855090E-009  0.1895441E+03  0.7561462E-02  0.1158873E+00
          4   -1    0    0  501    0  0.00000000000E+00  0.00000000000E+00  0.13267490057E+04  0.13267490057E+04  0.00000000000E+00 0.  1.
         -4   -1    0    0    0  501 -0.00000000000E+00 -0.00000000000E+00 -0.29834146361E+02  0.29834146361E+02  0.00000000000E+00 0. -1.
         25    2    1    2    0    0 -0.23349136976E+02 -0.16340450352E+03  0.61208758449E+03  0.64617898858E+03  0.12509940138E+03 0.  0.
          5    1    3    3  502    0  0.24239889635E+02 -0.81724754961E+00  0.18613708974E+03  0.18775710032E+03  0.41800000000E+01 0. -1.
         -5    1    3    3    0  502 -0.47589026611E+02 -0.16258725597E+03  0.42595049474E+03  0.45842188826E+03  0.41800000000E+01 0. -1.
        -11    1    1    2    0    0  0.45298680611E+02  0.42429308063E+02  0.30221280125E+03  0.30852032978E+03  0.00000000000E+00 0.  1.
         11    1    1    2    0    0 -0.21949543635E+02  0.12097519546E+03  0.38261447355E+03  0.40188383365E+03  0.00000000000E+00 0. -1.
</event>
<event>
 7    1  0.2855090E-009  0.9685789E+02  0.7561462E-02  0.1287046E+00
         -2   -1    0    0    0  501 -0.00000000000E+00  0.00000000000E+00  0.89960166689E+02  0.89960166689E+02  0.00000000000E+00 0.  1.
          2   -1    0    0  501    0  0.00000000000E+00 -0.00000000000E+00 -0.15555440085E+03  0.15555440085E+03  0.00000000000E+00 0. -1.
         25    2    1    2    0    0  0.50816889038E+01  0.50948359375E+02 -0.26550799219E+02  0.13774881097E+03  0.12509288988E+03 0.  0.
          5    1    3    3  502    0 -0.49308200473E+02  0.59746762418E+02 -0.27993430746E+02  0.82474716236E+02  0.41800000000E+01 0. -1.
         -5    1    3    3    0  502  0.54389889377E+02 -0.87984030429E+01  0.14426315274E+01  0.55274094730E+02  0.41800000000E+01 0. -1.
        -11    1    1    2    0    0 -0.16945634439E+02 -0.13703647841E+02 -0.59700942011E+02  0.63554283630E+02  0.00000000000E+00 0. -1.
         11    1    1    2    0    0  0.11863945535E+02 -0.37244711534E+02  0.20657507074E+02  0.44211472939E+02  0.00000000000E+00 0.  1.
</event>
<event>
 7    1  0.2855090E-009  0.2269580E+03  0.7561462E-02  0.1128799E+00
         -3   -1    0    0    0  501 -0.00000000000E+00  0.00000000000E+00  0.78563715580E+02  0.78563715580E+02  0.00000000000E+00 0.  1.
          3   -1    0    0  501    0  0.00000000000E+00 -0.00000000000E+00 -0.69832247778E+03  0.69832247778E+03  0.00000000000E+00 0. -1.
         25    2    1    2    0    0  0.17004594232E+03 -0.11179643781E+03 -0.25475412505E+03  0.34922969939E+03  0.12509057798E+03 0.  0.
          5    1    3    3  502    0  0.11382382036E+03 -0.23876439711E+01 -0.10074141985E+03  0.15207849617E+03  0.41800000000E+01 0.  1.
         -5    1    3    3    0  502  0.56222121958E+02 -0.10940879384E+03 -0.15401270519E+03  0.19715120321E+03  0.41800000000E+01 0.  1.
        -11    1    1    2    0    0 -0.89969283842E+02  0.10236077014E+03 -0.17938084227E+03  0.22527690932E+03  0.00000000000E+00 0.  1.
         11    1    1    2    0    0 -0.80076658475E+02  0.94356676692E+01 -0.18562379489E+03  0.20237958465E+03  0.00000000000E+00 0. -1.
</event>
<event>
 7    1  0.2855090E-009  0.6675576E+02  0.7561462E-02  0.1371486E+00
          2   -1    0    0  501    0  0.00000000000E+00  0.00000000000E+00  0.61861365995E+03  0.61861365995E+03  0.00000000000E+00 0.  1.
         -2   -1    0    0    0  501 -0.00000000000E+00 -0.00000000000E+00 -0.19965189071E+02  0.19965189071E+02  0.00000000000E+00 0. -1.
         25    2    1    2    0    0 -0.10929686584E+02 -0.21036812811E+02  0.32802168741E+03  0.35186692362E+03  0.12510035566E+03 0.  0.
          5    1    3    3  502    0 -0.15631730067E+02  0.12714848239E+02  0.31417272891E+03  0.31484598511E+03  0.41800000000E+01 0. -1.
         -5    1    3    3    0  502  0.47020434831E+01 -0.33751661050E+02  0.13848958498E+02  0.37020938508E+02  0.41800000000E+01 0. -1.
        -11    1    1    2    0    0  0.95864100511E+01  0.49340964241E+02  0.23908448971E+03  0.24431091509E+03  0.00000000000E+00 0.  1.
         11    1    1    2    0    0  0.13432765329E+01 -0.28304151430E+02  0.31542293760E+02  0.42401010314E+02  0.00000000000E+00 0. -1.
</event>
<event>
 7    1  0.2855090E-009  0.1337700E+03  0.7561462E-02  0.1221967E+00
          1   -1    0    0  501    0  0.00000000000E+00  0.00000000000E+00  0.56880173815E+03  0.56880173815E+03  0.00000000000E+00 0. -1.
         -1   -1    0    0    0  501 -0.00000000000E+00 -0.00000000000E+00 -0.33383437443E+02  0.33383437443E+02  0.00000000000E+00 0.  1.
         25    2    1    2    0    0  0.36278556761E+02  0.74704668473E+02  0.35505409262E+03  0.38549684588E+03  0.12508992095E+03 0.  0.
          5    1    3    3  502    0  0.35787715645E+02  0.10940863226E+03  0.27292685001E+03  0.29623900361E+03  0.41800000000E+01 0. -1.
         -5    1    3    3    0  502  0.49084111601E+00 -0.34703963788E+02  0.82127242603E+02  0.89257842261E+02  0.41800000000E+01 0. -1.
        -11    1    1    2    0    0 -0.33886451304E+02 -0.92979569570E+02  0.13234412179E+03  0.16525271106E+03  0.00000000000E+00 0. -1.
         11    1    1    2    0    0 -0.23921054570E+01  0.18274901097E+02  0.48020086296E+02  0.51435618656E+02  0.00000000000E+00 0.  1.
</event>
<event>
 7    1  0.2855090E-009  0.1589929E+03  0.7561462E-02  0.1189838E+00
          1   -1    0    0  501    0  0.00000000000E+00  0.00000000000E+00  0.38937828529E+03  0.38937828529E+03  0.00000000000E+00 0. -1.
         -1   -1    0    0    0  501 -0.00000000000E+00 -0.00000000000E+00 -0.96016670161E+02  0.96016670161E+02  0.00000000000E+00 0.  1.
         25    2    1    2    0    0 -0.60802380194E+02  0.12571318902E+03  0.25637475647E+03  0.31760680659E+03  0.12508130359E+03 0.  0.
          5    1    3    3  502    0  0.15622745070E+02 -0.12080406081E+02  0.73282445082E+02  0.76011811791E+02  0.41800000000E+01 0.  1.
         -5    1    3    3    0  502 -0.76425125263E+02  0.13779359510E+03  0.18309231139E+03  0.24159499480E+03  0.41800000000E+01 0.  1.
        -11    1    1    2    0    0  0.44536344059E+02 -0.10321144964E+03 -0.10374563077E+02  0.11288808989E+03  0.00000000000E+00 0.  1.
         11    1    1    2    0    0  0.16266036135E+02 -0.22501739381E+02  0.47361421740E+02  0.54900058979E+02  0.00000000000E+00 0. -1.
</event>
<event>
 7    1  0.2855090E-009  0.7664860E+02  0.7561462E-02  0.1338841E+00
          2   -1    0    0  501    0  0.00000000000E+00  0.00000000000E+00  0.14892588251E+03  0.14892588251E+03  0.00000000000E+00 0. -1.
         -2   -1    0    0    0  501 -0.00000000000E+00 -0.00000000000E+00 -0.81767354563E+02  0.81767354563E+02  0.00000000000E+00 0.  1.
         25    2    1    2    0    0 -0.17822455781E+02  0.93851515531E+01  0.60174705554E+02  0.14026217341E+03  0.12508701412E+03 0.  0.
          5    1    3    3  502    0 -0.31004257243E+02  0.37481082517E+02  0.86516684353E+02  0.99341353852E+02  0.41800000000E+01 0.  1.
         -5    1    3    3    0  502  0.13181801462E+02 -0.28095930964E+02 -0.26341978799E+02  0.40920819561E+02  0.41800000000E+01 0.  1.
        -11    1    1    2    0    0 -0.13462903554E+02 -0.31894302722E+02 -0.23031610468E+02  0.41580661358E+02  0.00000000000E+00 0.  1.
         11    1    1    2    0    0  0.31285359335E+02  0.22509151169E+02  0.30015432858E+02  0.48850402298E+02  0.00000000000E+00 0. -1.
</event>
<event>
 7    1  0.2855090E-009  0.5028125E+02  0.7561462E-02  0.1443830E+00
         -1   -1    0    0    0  501 -0.00000000000E+00  0.00000000000E+00  0.58929321237E+02  0.58929321237E+02  0.00000000000E+00 0.  1.
          1   -1    0    0  501    0  0.00000000000E+00 -0.00000000000E+00 -0.21667931458E+03  0.21667931458E+03  0.00000000000E+00 0. -1.
         25    2    1    2    0    0  0.16775829880E+02  0.73696984832E+00 -0.12335779074E+03  0.17648400599E+03  0.12508992062E+03 0.  0.
          5    1    3    3  502    0  0.12074580408E+02 -0.23007284582E+02  0.18721495286E+02  0.32297018773E+02  0.41800000000E+01 0. -1.
         -5    1    3    3    0  502  0.47012494712E+01  0.23744254430E+02 -0.14207928603E+03  0.14418698722E+03  0.41800000000E+01 0. -1.
        -11    1    1    2    0    0  0.72931894529E+01 -0.18422569556E+02 -0.57848144304E+02  0.61147276970E+02  0.00000000000E+00 0. -1.
         11    1    1    2    0    0 -0.24069019333E+02  0.17685599708E+02  0.23455941703E+02  0.37977352854E+02  0.00000000000E+00 0.  1.
</event>
<event>
 7    1  0.2855090E-009  0.1163187E+03  0.7561462E-02  0.1249297E+00
         -2   -1    0    0    0  501 -0.00000000000E+00  0.00000000000E+00  0.15217305017E+02  0.15217305017E+02  0.00000000000E+00 0.  1.
          2   -1    0    0  501    0  0.00000000000E+00 -0.00000000000E+00 -0.92804730476E+03  0.92804730476E+03  0.00000000000E+00 0. -1.
         25    2    1    2    0    0  0.32756567785E+02 -0.47700970397E+02 -0.51725110875E+03  0.53529869945E+03  0.12509041857E+03 0.  0.
          5    1    3    3  502    0 -0.40151597534E+02  0.98646420006E+01 -0.11055383401E+03  0.11810624268E+03  0.41800000000E+01 0. -1.
         -5    1    3    3    0  502  0.72908165319E+02 -0.57565612398E+02 -0.40669727474E+03  0.41719245677E+03  0.41800000000E+01 0. -1.
        -11    1    1    2    0    0 -0.41664181116E+02  0.65822094450E+02 -0.27991294537E+03  0.29055069969E+03  0.00000000000E+00 0.  1.
         11    1    1    2    0    0  0.89076133310E+01 -0.18121124052E+02 -0.11566594563E+03  0.11741521064E+03  0.00000000000E+00 0. -1.
</event>
<event>
 7    1  0.2855090E-009  0.1080257E+03  0.7561462E-02  0.1264270E+00
         -2   -1    0    0    0  501 -0.00000000000E+00  0.00000000000E+00  0.59038438972E+02  0.59038438972E+02  0.00000000000E+00 0.  1.
          2   -1    0    0  501    0  0.00000000000E+00 -0.00000000000E+00 -0.27796044046E+03  0.27796044046E+03  0.00000000000E+00 0. -1.
         25    2    1    2    0    0  0.25629670645E+02  0.65046285160E+02 -0.13222362799E+03  0.19498721300E+03  0.12509606790E+03 0.  0.
          5    1    3    3  502    0  0.56406862028E+02 -0.13904738151E+02 -0.59175680066E+02  0.83031977805E+02  0.41800000000E+01 0. -1.
         -5    1    3    3    0  502 -0.30777191384E+02  0.78951023311E+02 -0.73047947923E+02  0.11195523519E+03  0.41800000000E+01 0. -1.
        -11    1    1    2    0    0 -0.45286701047E+01 -0.39820920522E+02  0.87799770439E+01  0.41028070403E+02  0.00000000000E+00 0.  1.
         11    1    1    2    0    0 -0.21101000540E+02 -0.25225364638E+02 -0.95478350545E+02  0.10098359603E+03  0.00000000000E+00 0. -1.
</event>
<event>
 7    1  0.2855090E-009  0.2598514E+03  0.7561462E-02  0.1107233E+00
         -1   -1    0    0    0  501 -0.00000000000E+00  0.00000000000E+00  0.12439956602E+03  0.12439956602E+03  0.00000000000E+00 0.  1.
          1   -1    0    0  501    0  0.00000000000E+00 -0.00000000000E+00 -0.69188961870E+03  0.69188961870E+03  0.00000000000E+00 0. -1.
         25    2    1    2    0    0  0.20912078692E+03  0.13445925090E+03 -0.13532728886E+03  0.30947626752E+03  0.12510512130E+03 0.  0.
          5    1    3    3  502    0  0.81743324973E+02  0.11625477983E+03 -0.10625264871E+03  0.17749434574E+03  0.41800000000E+01 0.  1.
         -5    1    3    3    0  502  0.12737746195E+03  0.18204471071E+02 -0.29074640153E+02  0.13198192179E+03  0.41800000000E+01 0.  1.
        -11    1    1    2    0    0 -0.28648322228E+02 -0.22245149904E+02 -0.14559506542E+03  0.15004498037E+03  0.00000000000E+00 0. -1.
         11    1    1    2    0    0 -0.18047246469E+03 -0.11221410100E+03 -0.28656769841E+03  0.35676793682E+03  0.00000000000E+00 0.  1.
</event>
<event>
 7    1  0.3476921E-009  0.8225095E+02  0.7561462E-02  0.1322782E+00
          2   -1    0    0  501    0  0.00000000000E+00  0.00000000000E+00  0.57252748436E+03  0.57252748436E+03  0.00000000000E+00 0.  1.
         -2   -1    0    0    0  501 -0.00000000000E+00 -0.00000000000E+00 -0.22026587393E+02  0.22026587393E+02  0.00000000000E+00 0. -1.
         25    2    1    2    0    0 -0.72655759207E+01  0.12518230839E+02  0.37994995497E+03  0.40027434758E+03  0.12509232729E+03 0.  0.
          5    1    3    3  502    0 -0.21696303303E+02  0.58820498619E+02  0.11649445966E+03  0.13235940528E+03  0.41800000000E+01 0.  1.
         -5    1    3    3    0  502  0.14430727382E+02 -0.46302267780E+02  0.26345549531E+03  0.26791494230E+03  0.41800000000E+01 0.  1.
        -11    1    1    2    0    0  0.21488510546E+01  0.19977902066E+02 -0.49485683677E+00  0.20099229217E+02  0.00000000000E+00 0. -1.
         11    1    1    2    0    0  0.51167248661E+01 -0.32496132905E+02  0.17104579883E+03  0.17418049496E+03  0.00000000000E+00 0.  1.
</event>
<event>
 7    1  0.2855090E-009  0.1286052E+03  0.7561462E-02  0.1229540E+00
          1   -1    0    0  501    0  0.00000000000E+00  0.00000000000E+00  0.43264869728E+03  0.43264869728E+03  0.00000000000E+00 0. -1.
         -1   -1    0    0    0  501 -0.00000000000E+00 -0.00000000000E+00 -0.39896151145E+02  0.39896151145E+02  0.00000000000E+00 0.  1.
         25    2    1    2    0    0 -0.30655510980E+02 -0.62917283792E+02  0.17769763729E+03  0.22830070344E+03  0.12508563441E+03 0.  0.
          5    1    3    3  502    0  0.23527243950E+02 -0.81814899970E+02  0.96010180399E+02  0.12838471952E+03  0.41800000000E+01 0. -1.
         -5    1    3    3    0  502 -0.54182754930E+02  0.18897616178E+02  0.81687456894E+02  0.99915983921E+02  0.41800000000E+01 0. -1.
        -11    1    1    2    0    0  0.63103971516E+02  0.43148172837E+02  0.16032726891E+03  0.17761956310E+03  0.00000000000E+00 0.  1.
         11    1    1    2    0    0 -0.32448460537E+02  0.19769110954E+02  0.54727639931E+02  0.66624581887E+02  0.00000000000E+00 0. -1.
</event>
<event>
 7    1  0.2855090E-009  0.1311238E+03  0.7561462E-02  0.1225798E+00
         -1   -1    0    0    0  501 -0.00000000000E+00  0.00000000000E+00  0.40631829530E+03  0.40631829530E+03  0.00000000000E+00 0.  1.
          1   -1    0    0  501    0  0.00000000000E+00 -0.00000000000E+00 -0.66592532367E+02  0.66592532367E+02  0.00000000000E+00 0. -1.
         25    2    1    2    0    0  0.26785196418E+02  0.10970106496E+03  0.10971740248E+03  0.20108932431E+03  0.12508891855E+03 0.  0.
          5    1    3    3  502    0  0.23423144925E+02  0.46593766259E+01  0.91105899329E+02  0.94276777635E+02  0.41800000000E+01 0.  1.
         -5    1    3    3    0  502  0.33620514930E+01  0.10504168833E+03  0.18611503151E+02  0.10681254668E+03  0.41800000000E+01 0.  1.
        -11    1    1    2    0    0 -0.22414181209E+02  0.61369993955E+00  0.78742320296E+01  0.23765009508E+02  0.00000000000E+00 0. -1.
         11    1    1    2    0    0 -0.43710152093E+01 -0.11031476490E+03  0.22213412842E+03  0.24805649385E+03  0.00000000000E+00 0.  1.
</event>
<event>
 7    1  0.2855090E-009  0.7853644E+02  0.7561462E-02  0.1333257E+00
          4   -1    0    0  501    0  0.00000000000E+00  0.00000000000E+00  0.26809551551E+03  0.26809551551E+03  0.00000000000E+00 0. -1.
         -4   -1    0    0    0  501 -0.00000000000E+00 -0.00000000000E+00 -0.57668462854E+02  0.57668462854E+02  0.00000000000E+00 0.  1.
         25    2    1    2    0    0 -0.43664077675E+02  0.29163470065E+02  0.15117096140E+03  0.20311921838E+03  0.12509075760E+03 0.  0.
          5    1    3    3  502    0 -0.42563135092E+02 -0.17383535121E+02  0.13618600099E+01  0.46185872568E+02  0.41800000000E+01 0.  1.
         -5    1    3    3    0  502 -0.11009425834E+01  0.46547005187E+02  0.14980910139E+03  0.15693334581E+03  0.41800000000E+01 0.  1.
        -11    1    1    2    0    0  0.35398617567E+02 -0.16559713768E+01 -0.18341083739E+02  0.39902377368E+02  0.00000000000E+00 0.  1.
         11    1    1    2    0    0  0.82654601084E+01 -0.27507498689E+02  0.77597174997E+02  0.82742382625E+02  0.00000000000E+00 0. -1.
</event>
<event>
 7    1  0.2855090E-009  0.1144046E+03  0.7561462E-02  0.1252624E+00
          1   -1    0    0  501    0  0.00000000000E+00  0.00000000000E+00  0.88136683362E+03  0.88136683362E+03  0.00000000000E+00 0. -1.
         -1   -1    0    0    0  501 -0.00000000000E+00 -0.00000000000E+00 -0.18080270067E+02  0.18080270067E+02  0.00000000000E+00 0.  1.
         25    2    1    2    0    0 -0.30068110163E+02 -0.51437604384E+02  0.57359139293E+03  0.59008888045E+03  0.12509149612E+03 0.  0.
          5    1    3    3  502    0 -0.29703696722E+02 -0.88269881967E+02  0.30437950500E+03  0.31833667260E+03  0.41800000000E+01 0.  1.
         -5    1    3    3    0  502 -0.36441344044E+00  0.36832277583E+02  0.26921188793E+03  0.27175220785E+03  0.41800000000E+01 0.  1.
        -11    1    1    2    0    0  0.55445960076E+02  0.22016547986E+02  0.10633505770E+03  0.12192672952E+03  0.00000000000E+00 0.  1.
         11    1    1    2    0    0 -0.25377849914E+02  0.29421056398E+02  0.18336011292E+03  0.18743149371E+03  0.00000000000E+00 0. -1.
</event>
<event>
 7    1  0.2855090E-009  0.9439411E+02  0.7561462E-02  0.1292547E+00
          1   -1    0    0  501    0  0.00000000000E+00  0.00000000000E+00  0.22458931496E+03  0.22458931496E+03  0.00000000000E+00 0. -1.
         -1   -1    0    0    0  501 -0.00000000000E+00 -0.00000000000E+00 -0.74445785772E+02  0.74445785772E+02  0.00000000000E+00 0.  1.
         25    2    1    2    0    0 -0.52733627918E+02  0.32084733833E+02  0.12210804595E+03  0.18538805127E+03  0.12509232194E+03 0.  0.
          5    1    3    3  502    0 -0.54952927521E+02  0.54660926832E+01  0.14160852184E+03  0.15205311003E+03  0.41800000000E+01 0.  1.
         -5    1    3    3    0  502  0.22192996028E+01  0.26618641150E+02 -0.19500475887E+02  0.33334941236E+02  0.41800000000E+01 0.  1.
        -11    1    1    2    0    0  0.38043336111E+01 -0.53015558134E+02 -0.72038010012E+00  0.53156761620E+02  0.00000000000E+00 0.  1.
         11    1    1    2    0    0  0.48929294307E+02  0.20930824300E+02  0.28755863331E+02  0.60490287842E+02  0.00000000000E+00 0. -1.
</event>
<event>
 7    1  0.2855090E-009  0.1081520E+03  0.7561462E-02  0.1264031E+00
          1   -1    0    0  501    0  0.00000000000E+00  0.00000000000E+00  0.22920188833E+03  0.22920188833E+03  0.00000000000E+00 0. -1.
         -1   -1    0    0    0  501 -0.00000000000E+00 -0.00000000000E+00 -0.54253539597E+02  0.54253539597E+02  0.00000000000E+00 0.  1.
         25    2    1    2    0    0  0.20716907057E+02  0.61288166338E+01  0.76883393854E+02  0.14841203516E+03  0.12509325841E+03 0.  0.
          5    1    3    3  502    0  0.61903508193E+02 -0.30468865371E+02  0.57315237512E+02  0.89793679814E+02  0.41800000000E+01 0. -1.
         -5    1    3    3    0  502 -0.41186601136E+02  0.36597682004E+02  0.19568156342E+02  0.58618355349E+02  0.41800000000E+01 0. -1.
        -11    1    1    2    0    0  0.15172617650E+02  0.34516108848E+02  0.31075595561E+02  0.48859622756E+02  0.00000000000E+00 0.  1.
         11    1    1    2    0    0 -0.35889524707E+02 -0.40644925482E+02  0.66989359317E+02  0.86183770008E+02  0.00000000000E+00 0. -1.
</event>
<event>
 7    1  0.2855090E-009  0.8511792E+02  0.7561462E-02  0.1315124E+00
         -1   -1    0    0    0  501 -0.00000000000E+00  0.00000000000E+00  0.27414798525E+02  0.27414798525E+02  0.00000000000E+00 0.  1.
          1   -1    0    0  501    0  0.00000000000E+00 -0.00000000000E+00 -0.56224062918E+03  0.56224062918E+03  0.00000000000E+00 0. -1.
         25    2    1    2    0    0 -0.35982234084E+01 -0.14906150233E+02 -0.44203462297E+03  0.45964998751E+03  0.12509341546E+03 0.  0.
          5    1    3    3  502    0 -0.25385802708E+00 -0.70042439920E+02 -0.26645085570E+03  0.27553500456E+03  0.41800000000E+01 0.  1.
         -5    1    3    3    0  502 -0.33443653813E+01  0.55136289687E+02 -0.17558376726E+03  0.18411498295E+03  0.41800000000E+01 0.  1.
        -11    1    1    2    0    0 -0.14650865751E+02  0.20847643653E+02  0.85391835785E+01  0.26873588694E+02  0.00000000000E+00 0.  1.
         11    1    1    2    0    0  0.18249089159E+02 -0.59414934199E+01 -0.10133039126E+03  0.10313185150E+03  0.00000000000E+00 0. -1.
</event>
<event>
 7    1  0.2855090E-009  0.1209756E+03  0.7561462E-02  0.1241496E+00
         -1   -1    0    0    0  501 -0.00000000000E+00  0.00000000000E+00  0.51861032838E+03  0.51861032838E+03  0.00000000000E+00 0.  1.
          1   -1    0    0  501    0  0.00000000000E+00 -0.00000000000E+00 -0.42521523936E+02  0.42521523936E+02  0.00000000000E+00 0. -1.
         25    2    1    2    0    0 -0.19882383135E+02  0.88206905732E+02  0.34197297051E+03  0.37519260780E+03  0.12509281759E+03 0.  0.
          5    1    3    3  502    0 -0.31967275761E+02  0.11537317844E+03  0.23080151683E+03  0.26003786185E+03  0.41800000000E+01 0. -1.
         -5    1    3    3    0  502  0.12084892626E+02 -0.27166272711E+02  0.11117145368E+03  0.11515474595E+03  0.41800000000E+01 0. -1.
        -11    1    1    2    0    0 -0.31755977046E+01 -0.16733403912E+02 -0.12554875499E+02  0.21159303535E+02  0.00000000000E+00 0. -1.
         11    1    1    2    0    0  0.23057980839E+02 -0.71473501820E+02  0.14667070944E+03  0.16477994098E+03  0.00000000000E+00 0.  1.
</event>
<event>
 7    1  0.2855090E-009  0.1470872E+03  0.7561462E-02  0.1204099E+00
          1   -1    0    0  501    0  0.00000000000E+00  0.00000000000E+00  0.22279279472E+03  0.22279279472E+03  0.00000000000E+00 0.  1.
         -1   -1    0    0    0  501 -0.00000000000E+00 -0.00000000000E+00 -0.10886613915E+03  0.10886613915E+03  0.00000000000E+00 0. -1.
         25    2    1    2    0    0  0.72396653807E+02 -0.66246391146E+02  0.76566308491E+01  0.15917362887E+03  0.12509100810E+03 0.  0.
          5    1    3    3  502    0  0.87629269402E+02  0.31237415131E+01  0.20708981539E+01  0.87808926859E+02  0.41800000000E+01 0. -1.
         -5    1    3    3    0  502 -0.15232615595E+02 -0.69370132659E+02  0.55857326953E+01  0.71364702009E+02  0.41800000000E+01 0. -1.
        -11    1    1    2    0    0 -0.67298141960E+02  0.89195306469E+02  0.93720964963E+02  0.14583710735E+03  0.00000000000E+00 0. -1.
         11    1    1    2    0    0 -0.50985118470E+01 -0.22948915323E+02  0.12549059753E+02  0.26648197655E+02  0.00000000000E+00 0.  1.
</event>
<event>
 7    1  0.2855090E-009  0.9538788E+02  0.7561462E-02  0.1290305E+00
         -2   -1    0    0    0  501 -0.00000000000E+00  0.00000000000E+00  0.19374776064E+03  0.19374776064E+03  0.00000000000E+00 0.  1.
          2   -1    0    0  501    0  0.00000000000E+00 -0.00000000000E+00 -0.85892460263E+02  0.85892460263E+02  0.00000000000E+00 0. -1.
         25    2    1    2    0    0 -0.35436436212E+02  0.77053609925E+01 -0.71982773740E+01  0.13043984080E+03  0.12509046036E+03 0.  0.
          5    1    3    3  502    0 -0.52109376356E+02  0.37536974272E+02  0.37138825706E+02  0.74304618406E+02  0.41800000000E+01 0.  1.
         -5    1    3    3    0  502  0.16672940144E+02 -0.29831613279E+02 -0.44337103080E+02  0.56135222396E+02  0.41800000000E+01 0.  1.
        -11    1    1    2    0    0 -0.24055695727E+02  0.14957057176E+02  0.54077333341E+02  0.61047096881E+02  0.00000000000E+00 0.  1.
         11    1    1    2    0    0  0.59492131939E+02 -0.22662418169E+02  0.60976244407E+02  0.88153283217E+02  0.00000000000E+00 0. -1.
</event>
<event>
 7    1  0.2855090E-009  0.9919662E+02  0.7561462E-02  0.1281994E+00
         -2   -1    0    0    0  501 -0.00000000000E+00  0.00000000000E+00  0.40932589853E+02  0.40932589853E+02  0.00000000000E+00 0.  1.
          2   -1    0    0  501    0  0.00000000000E+00 -0.00000000000E+00 -0.31167299067E+03  0.31167299067E+03  0.00000000000E+00 0. -1.
         25    2    1    2    0    0  0.11039894042E+02 -0.10062732314E+02 -0.10722126120E+03  0.16543167804E+03  0.12509237948E+03 0.  0.
          5    1    3    3  502    0 -0.13061675939E+02  0.54103489474E+02 -0.35562337494E+02  0.66181169524E+02  0.41800000000E+01 0. -1.
         -5    1    3    3    0  502  0.24101569981E+02 -0.64166221788E+02 -0.71658923709E+02  0.99250508519E+02  0.41800000000E+01 0. -1.
        -11    1    1    2    0    0 -0.32094980707E+02 -0.19544426962E+02 -0.27980503571E+02  0.46850624243E+02  0.00000000000E+00 0.  1.
         11    1    1    2    0    0  0.21055086665E+02  0.29607159276E+02 -0.13553863604E+03  0.14032327823E+03  0.00000000000E+00 0. -1.
</event>
<event>
 7    1  0.2855090E-009  0.1008219E+03  0.7561462E-02  0.1278577E+00
         -2   -1    0    0    0  501 -0.00000000000E+00  0.00000000000E+00  0.13047500010E+03  0.13047500010E+03  0.00000000000E+00 0.  1.
          2   -1    0    0  501    0  0.00000000000E+00 -0.00000000000E+00 -0.13822461763E+03  0.13822461763E+03  0.00000000000E+00 0. -1.
         25    2    1    2    0    0 -0.22355364469E+02 -0.74762052059E+02 -0.17267902670E+02  0.14844173330E+03  0.12509053111E+03 0.  0.
          5    1    3    3  502    0 -0.28143101408E+02 -0.44764526821E+02 -0.69716695671E+02  0.87600154530E+02  0.41800000000E+01 0. -1.
         -5    1    3    3    0  502  0.57877369397E+01 -0.29997525238E+02  0.52448793002E+02  0.60841578765E+02  0.41800000000E+01 0. -1.
        -11    1    1    2    0    0 -0.18454739057E+02 -0.11912537738E+02 -0.69760355341E+01  0.23046713882E+02  0.00000000000E+00 0. -1.
         11    1    1    2    0    0  0.40810103525E+02  0.86674589797E+02  0.16494320677E+02  0.97211170556E+02  0.00000000000E+00 0.  1.
</event>
<event>
 7    1  0.2855090E-009  0.6941032E+02  0.7561462E-02  0.1362110E+00
          1   -1    0    0  501    0  0.00000000000E+00  0.00000000000E+00  0.45604348384E+03  0.45604348384E+03  0.00000000000E+00 0. -1.
         -1   -1    0    0    0  501 -0.00000000000E+00 -0.00000000000E+00 -0.31585452940E+02  0.31585452940E+02  0.00000000000E+00 0.  1.
         25    2    1    2    0    0 -0.35277997559E+02 -0.54016137820E+01  0.32463086921E+03  0.34972375450E+03  0.12509112150E+03 0.  0.
          5    1    3    3  502    0 -0.11817390289E+02 -0.33567323118E+02  0.30655054595E+03  0.30863753096E+03  0.41800000000E+01 0.  1.
         -5    1    3    3    0  502 -0.23460607270E+02  0.28165709336E+02  0.18080323256E+02  0.41086223541E+02  0.41800000000E+01 0.  1.
        -11    1    1    2    0    0  0.32952817056E+02  0.28082293823E+02  0.89490568819E+01  0.44210733961E+02  0.00000000000E+00 0.  1.
         11    1    1    2    0    0  0.23251805029E+01 -0.22680680041E+02  0.90878104808E+02  0.93694448314E+02  0.00000000000E+00 0. -1.
</event>
<event>
 7    1  0.2855090E-009  0.1408023E+03  0.7561462E-02  0.1212254E+00
         -1   -1    0    0    0  501 -0.00000000000E+00  0.00000000000E+00  0.21403767744E+03  0.21403767744E+03  0.00000000000E+00 0.  1.
          1   -1    0    0  501    0  0.00000000000E+00 -0.00000000000E+00 -0.12456139179E+03  0.12456139179E+03  0.00000000000E+00 0. -1.
         25    2    1    2    0    0  0.10991378111E+03  0.15782699728E+02  0.10007010917E+03  0.19491462040E+03  0.12509016591E+03 0.  0.
          5    1    3    3  502    0  0.11123489744E+03  0.36624716805E+02  0.11856835364E+03  0.16670482649E+03  0.41800000000E+01 0.  1.
         -5    1    3    3    0  502 -0.13211163339E+01 -0.20842017077E+02 -0.18498244468E+02  0.28209793912E+02  0.41800000000E+01 0.  1.
        -11    1    1    2    0    0 -0.80261225928E+02  0.32393856306E+02 -0.29756620554E+01  0.86603007330E+02  0.00000000000E+00 0. -1.
         11    1    1    2    0    0 -0.29652555183E+02 -0.48176556035E+02 -0.76181614653E+01  0.57081441506E+02  0.00000000000E+00 0.  1.
</event>
<event>
 7    1  0.2855090E-009  0.7954573E+02  0.7561462E-02  0.1330346E+00
          1   -1    0    0  501    0  0.00000000000E+00  0.00000000000E+00  0.63367126676E+03  0.63367126676E+03  0.00000000000E+00 0. -1.
         -1   -1    0    0    0  501 -0.00000000000E+00 -0.00000000000E+00 -0.20478717414E+02  0.20478717414E+02  0.00000000000E+00 0.  1.
         25    2    1    2    0    0 -0.55864439881E+01  0.31716290093E+02  0.37502841320E+03  0.39664781548E+03  0.12508416129E+03 0.  0.
          5    1    3    3  502    0  0.27958965334E+02  0.22639598245E+01  0.33603074386E+03  0.33722538825E+03  0.41800000000E+01 0.  1.
         -5    1    3    3    0  502 -0.33545409322E+02  0.29452330269E+02  0.38997669342E+02  0.59422427239E+02  0.41800000000E+01 0.  1.
        -11    1    1    2    0    0 -0.35965156669E+02 -0.25010724857E+02  0.18268730133E+03  0.18786611967E+03  0.00000000000E+00 0. -1.
         11    1    1    2    0    0  0.41551600657E+02 -0.67055652367E+01  0.55476834807E+02  0.69636049016E+02  0.00000000000E+00 0.  1.
</event>
<event>
 7    1  0.2855090E-009  0.1133862E+03  0.7561462E-02  0.1254425E+00
          2   -1    0    0  501    0  0.00000000000E+00  0.00000000000E+00  0.62653982657E+03  0.62653982657E+03  0.00000000000E+00 0. -1.
         -2   -1    0    0    0  501 -0.00000000000E+00 -0.00000000000E+00 -0.22561130195E+02  0.22561130195E+02  0.00000000000E+00 0.  1.
         25    2    1    2    0    0  0.13782076330E+02 -0.39501362024E+02  0.40119183408E+03  0.42231830513E+03  0.12509020698E+03 0.  0.
          5    1    3    3  502    0 -0.20353013227E+02  0.36665198847E+02  0.79868752356E+02  0.90305437028E+02  0.41800000000E+01 0.  1.
         -5    1    3    3    0  502  0.34135089558E+02 -0.76166560871E+02  0.32132308172E+03  0.33201286810E+03  0.41800000000E+01 0.  1.
        -11    1    1    2    0    0 -0.39528309534E+02 -0.13797433422E+02  0.73444751631E+02  0.84539860218E+02  0.00000000000E+00 0. -1.
         11    1    1    2    0    0  0.25746233203E+02  0.53298795446E+02  0.12934211067E+03  0.14224279142E+03  0.00000000000E+00 0.  1.
</event>
<event>
 7    1  0.2855090E-009  0.1536485E+03  0.7561462E-02  0.1196060E+00
          2   -1    0    0  501    0  0.00000000000E+00  0.00000000000E+00  0.44397662106E+03  0.44397662106E+03  0.00000000000E+00 0. -1.
         -2   -1    0    0    0  501 -0.00000000000E+00 -0.00000000000E+00 -0.78870808867E+02  0.78870808867E+02  0.00000000000E+00 0.  1.
         25    2    1    2    0    0  0.12627452396E+03  0.21095411921E+02  0.78810680883E+02  0.19557372176E+03  0.12509070876E+03 0.  0.
          5    1    3    3  502    0  0.11917258062E+03  0.45555595383E+02  0.10001770543E+03  0.16216790694E+03  0.41800000000E+01 0. -1.
         -5    1    3    3    0  502  0.71019433379E+01 -0.24460183462E+02 -0.21207024544E+02  0.33405814825E+02  0.41800000000E+01 0. -1.
        -11    1    1    2    0    0 -0.58052608489E+02  0.32992560155E+02  0.16472763171E+03  0.17774646839E+03  0.00000000000E+00 0.  1.
         11    1    1    2    0    0 -0.68221915468E+02 -0.54087972076E+02  0.12156749960E+03  0.14952723977E+03  0.00000000000E+00 0. -1.
</event>
<event>
 7    1  0.2855090E-009  0.2860169E+03  0.7561462E-02  0.1092447E+00
         -1   -1    0    0    0  501 -0.00000000000E+00  0.00000000000E+00  0.89567809303E+02  0.89567809303E+02  0.00000000000E+00 0.  1.
          1   -1    0    0  501    0  0.00000000000E+00 -0.00000000000E+00 -0.11739864220E+04  0.11739864220E+04  0.00000000000E+00 0. -1.
         25    2    1    2    0    0 -0.19141740565E+03 -0.21134953545E+03 -0.34180783120E+03  0.46237390890E+03  0.12509112215E+03 0.  0.
          5    1    3    3  502    0 -0.59053672328E+02 -0.83510439399E+02 -0.42161196258E+02  0.11070848465E+03  0.41800000000E+01 0. -1.
         -5    1    3    3    0  502 -0.13236373332E+03 -0.12783909605E+03 -0.29964663495E+03  0.35166542425E+03  0.41800000000E+01 0. -1.
        -11    1    1    2    0    0  0.62277385169E+02  0.80233642703E+02 -0.15405882044E+03  0.18452650292E+03  0.00000000000E+00 0.  1.
         11    1    1    2    0    0  0.12914002048E+03  0.13111589275E+03 -0.58855196102E+03  0.61665381945E+03  0.00000000000E+00 0. -1.
</event>
<event>
 7    1  0.2855090E-009  0.1064645E+03  0.7561462E-02  0.1267261E+00
          2   -1    0    0  501    0  0.00000000000E+00  0.00000000000E+00  0.22574688958E+03  0.22574688958E+03  0.00000000000E+00 0. -1.
         -2   -1    0    0    0  501 -0.00000000000E+00 -0.00000000000E+00 -0.65315848734E+02  0.65315848734E+02  0.00000000000E+00 0.  1.
         25    2    1    2    0    0 -0.33569927685E+02  0.17891672768E+02  0.15032800705E+03  0.19922669870E+03  0.12508283563E+03 0.  0.
          5    1    3    3  502    0 -0.48022597977E+02  0.63375652844E+02  0.11422372169E+03  0.13923783353E+03  0.41800000000E+01 0. -1.
         -5    1    3    3    0  502  0.14452670292E+02 -0.45483980076E+02  0.36104285363E+02  0.59988865164E+02  0.41800000000E+01 0. -1.
        -11    1    1    2    0    0  0.58183886374E+02 -0.74484477394E+01 -0.84887734986E+01  0.59269750150E+02  0.00000000000E+00 0.  1.
         11    1    1    2    0    0 -0.24613958689E+02 -0.10443225028E+02  0.18591807290E+02  0.32566289467E+02  0.00000000000E+00 0. -1.
</event>
<event>
 7    1  0.2855090E-009  0.1110427E+03  0.7561462E-02  0.1258651E+00
         -2   -1    0    0    0  501 -0.00000000000E+00  0.00000000000E+00  0.16394774574E+03  0.16394774574E+03  0.00000000000E+00 0.  1.
          2   -1    0    0  501    0  0.00000000000E+00 -0.00000000000E+00 -0.10202152941E+03  0.10202152941E+03  0.00000000000E+00 0. -1.
         25    2    1    2    0    0 -0.65223960281E+02  0.14933327312E+02  0.43738257638E+02  0.14845035773E+03  0.12508918526E+03 0.  0.
          5    1    3    3  502    0  0.21482102584E+02  0.32365037059E+02  0.45397960312E+02  0.59895104606E+02  0.41800000000E+01 0. -1.
         -5    1    3    3    0  502 -0.86706062865E+02 -0.17431709747E+02 -0.16597026733E+01  0.88555253120E+02  0.41800000000E+01 0. -1.
        -11    1    1    2    0    0  0.20782957760E+02  0.26526341330E+02  0.40580047206E+02  0.52747685720E+02  0.00000000000E+00 0.  1.
         11    1    1    2    0    0  0.44441002521E+02 -0.41459668642E+02 -0.22392088510E+02  0.64771231707E+02  0.00000000000E+00 0. -1.
</event>
<event>
 7    1  0.2855090E-009  0.1098581E+03  0.7561462E-02  0.1260833E+00
          4   -1    0    0  501    0  0.00000000000E+00  0.00000000000E+00  0.56985936186E+02  0.56985936186E+02  0.00000000000E+00 0. -1.
         -4   -1    0    0    0  501 -0.00000000000E+00 -0.00000000000E+00 -0.25429101301E+03  0.25429101301E+03  0.00000000000E+00 0.  1.
         25    2    1    2    0    0  0.16104701791E+01  0.53198825907E+02 -0.10400991211E+03  0.17116516353E+03  0.12508694055E+03 0.  0.
          5    1    3    3  502    0 -0.14439922647E+02 -0.29492705677E+02  0.48510313171E+01  0.33456478581E+02  0.41800000000E+01 0. -1.
         -5    1    3    3    0  502  0.16050392826E+02  0.82691531583E+02 -0.10886094343E+03  0.13770868495E+03  0.41800000000E+01 0. -1.
        -11    1    1    2    0    0 -0.38620080670E+02 -0.52606133857E+02 -0.45032868666E+02  0.79289817825E+02  0.00000000000E+00 0.  1.
         11    1    1    2    0    0  0.37009610491E+02 -0.59269204965E+00 -0.48262296043E+02  0.60821967840E+02  0.00000000000E+00 0. -1.
</event>
<event>
 7    1  0.2855090E-009  0.1612227E+03  0.7561462E-02  0.1187323E+00
         -1   -1    0    0    0  501 -0.00000000000E+00  0.00000000000E+00  0.28815578335E+02  0.28815578335E+02  0.00000000000E+00 0.  1.
          1   -1    0    0  501    0  0.00000000000E+00 -0.00000000000E+00 -0.11993348202E+04  0.11993348202E+04  0.00000000000E+00 0. -1.
         25    2    1    2    0    0  0.28795997445E+02  0.14247846863E+03 -0.51298200762E+03  0.54765709865E+03  0.12509370112E+03 0.  0.
          5    1    3    3  502    0  0.25252520353E+02  0.14621931590E+03 -0.30140931232E+03  0.33598039240E+03  0.41800000000E+01 0. -1.
         -5    1    3    3    0  502  0.35434770914E+01 -0.37408472676E+01 -0.21157269531E+03  0.21167670625E+03  0.41800000000E+01 0. -1.
        -11    1    1    2    0    0  0.23935929145E+02 -0.89396974033E+02 -0.46095393937E+03  0.47015240284E+03  0.00000000000E+00 0.  1.
         11    1    1    2    0    0 -0.52731926590E+02 -0.53081494598E+02 -0.19658329487E+03  0.21034089705E+03  0.00000000000E+00 0. -1.
</event>
<event>
 7    1  0.2855090E-009  0.1491662E+03  0.7561462E-02  0.1201501E+00
         -2   -1    0    0    0  501 -0.00000000000E+00  0.00000000000E+00  0.36898432096E+02  0.36898432096E+02  0.00000000000E+00 0.  1.
          2   -1    0    0  501    0  0.00000000000E+00 -0.00000000000E+00 -0.62447604768E+03  0.62447604768E+03  0.00000000000E+00 0. -1.
         25    2    1    2    0    0 -0.68416298615E+02 -0.80625153692E+02 -0.33065553975E+03  0.36900100182E+03  0.12508975997E+03 0.  0.
          5    1    3    3  502    0  0.11399933045E+02  0.27002193084E+02 -0.65625068651E+02  0.71994436870E+02  0.41800000000E+01 0.  1.
         -5    1    3    3    0  502 -0.79816231660E+02 -0.10762734678E+03 -0.26503047110E+03  0.29700656495E+03  0.41800000000E+01 0.  1.
        -11    1    1    2    0    0  0.48771675196E+02 -0.29048845263E+01 -0.13258751507E+03  0.14130309200E+03  0.00000000000E+00 0. -1.
         11    1    1    2    0    0  0.19644623419E+02  0.83530038219E+02 -0.12433456076E+03  0.15107038596E+03  0.00000000000E+00 0.  1.
</event>
<event>
 7    1  0.2855090E-009  0.7383771E+02  0.7561462E-02  0.1347508E+00
          2   -1    0    0  501    0  0.00000000000E+00  0.00000000000E+00  0.16761175812E+03  0.16761175812E+03  0.00000000000E+00 0.  1.
         -2   -1    0    0    0  501 -0.00000000000E+00 -0.00000000000E+00 -0.71104408647E+02  0.71104408647E+02  0.00000000000E+00 0. -1.
         25    2    1    2    0    0  0.10331564022E+02 -0.28529658267E+01  0.49398118224E+02  0.13491768520E+03  0.12509087523E+03 0.  0.
          5    1    3    3  502    0 -0.13510335414E+02  0.18849984336E+02 -0.36289782431E+02  0.43269755966E+02  0.41800000000E+01 0. -1.
         -5    1    3    3    0  502  0.23841899436E+02 -0.21702950163E+02  0.85687900655E+02  0.91647929236E+02  0.41800000000E+01 0. -1.
        -11    1    1    2    0    0 -0.13043309416E+02  0.46282645401E+02  0.17523081576E+02  0.51178800042E+02  0.00000000000E+00 0. -1.
         11    1    1    2    0    0  0.27117453941E+01 -0.43429679575E+02  0.29586149670E+02  0.52619681521E+02  0.00000000000E+00 0.  1.
</event>
<event>
 7    1  0.2855090E-009  0.1561596E+03  0.7561462E-02  0.1193102E+00
         -2   -1    0    0    0  501 -0.00000000000E+00  0.00000000000E+00  0.18548528115E+03  0.18548528115E+03  0.00000000000E+00 0.  1.
          2   -1    0    0  501    0  0.00000000000E+00 -0.00000000000E+00 -0.21702377415E+03  0.21702377415E+03  0.00000000000E+00 0. -1.
         25    2    1    2    0    0  0.84554149860E+02  0.73765060339E+02  0.10785621185E+03  0.19967748569E+03  0.12508975766E+03 0.  0.
          5    1    3    3  502    0 -0.28187934124E+02  0.37154394563E+02  0.47086734202E+02  0.66405132357E+02  0.41800000000E+01 0. -1.
         -5    1    3    3    0  502  0.11274208398E+03  0.36610665775E+02  0.60769477651E+02  0.13327235334E+03  0.41800000000E+01 0. -1.
        -11    1    1    2    0    0 -0.70715851561E+02 -0.96879981271E+02 -0.10735576716E+03  0.16097118740E+03  0.00000000000E+00 0.  1.
         11    1    1    2    0    0 -0.13838298300E+02  0.23114920932E+02 -0.32038937696E+02  0.41860382204E+02  0.00000000000E+00 0. -1.
</event>
<event>
 7    1  0.2855090E-009  0.7503220E+02  0.7561462E-02  0.1343771E+00
          2   -1    0    0  501    0  0.00000000000E+00  0.00000000000E+00  0.22539352196E+03  0.22539352196E+03  0.00000000000E+00 0. -1.
         -2   -1    0    0    0  501 -0.00000000000E+00 -0.00000000000E+00 -0.82945667806E+02  0.82945667806E+02  0.00000000000E+00 0.  1.
         25    2    1    2    0    0  0.48871043057E+02 -0.49381496583E+02  0.12969895044E+03  0.19311875248E+03  0.12508446651E+03 0.  0.
          5    1    3    3  502    0  0.14537442249E+02 -0.31922974822E+02 -0.18543732744E+02  0.39896816574E+02  0.41800000000E+01 0.  1.
         -5    1    3    3    0  502  0.34333600807E+02 -0.17458521762E+02  0.14824268318E+03  0.15322193591E+03  0.41800000000E+01 0.  1.
        -11    1    1    2    0    0 -0.21932544854E+02  0.26991524995E+01  0.46600234280E+02  0.51574255040E+02  0.00000000000E+00 0. -1.
         11    1    1    2    0    0 -0.26938498202E+02  0.46682344084E+02 -0.33851330557E+02  0.63646182251E+02  0.00000000000E+00 0.  1.
</event>
<event>
 7    1  0.2855090E-009  0.1166974E+03  0.7561462E-02  0.1248647E+00
          2   -1    0    0  501    0  0.00000000000E+00  0.00000000000E+00  0.12534771271E+03  0.12534771271E+03  0.00000000000E+00 0. -1.
         -2   -1    0    0    0  501 -0.00000000000E+00 -0.00000000000E+00 -0.13275207761E+03  0.13275207761E+03  0.00000000000E+00 0.  1.
         25    2    1    2    0    0 -0.35608717326E+02  0.43520893204E+02 -0.41745251263E+02  0.14336058815E+03  0.12509014085E+03 0.  0.
          5    1    3    3  502    0 -0.66318837803E+02  0.62134427855E+02 -0.53259927539E+02  0.10541806133E+03  0.41800000000E+01 0.  1.
         -5    1    3    3    0  502  0.30710120478E+02 -0.18613534651E+02  0.11514676276E+02  0.37942526823E+02  0.41800000000E+01 0.  1.
        -11    1    1    2    0    0 -0.29546193548E+02 -0.24528010980E+02 -0.60165211974E+00  0.38405245228E+02  0.00000000000E+00 0. -1.
         11    1    1    2    0    0  0.65154910874E+02 -0.18992882224E+02  0.34942538489E+02  0.76333956940E+02  0.00000000000E+00 0.  1.
</event>
<event>
 7    1  0.2855090E-009  0.2012173E+03  0.7561462E-02  0.1148716E+00
         -2   -1    0    0    0  501 -0.00000000000E+00  0.00000000000E+00  0.60599287080E+02  0.60599287080E+02  0.00000000000E+00 0.  1.
          2   -1    0    0  501    0  0.00000000000E+00 -0.00000000000E+00 -0.88438497129E+03  0.88438497129E+03  0.00000000000E+00 0. -1.
         25    2    1    2    0    0  0.11064068146E+03 -0.16474813291E+03 -0.52487464009E+03  0.57491176680E+03  0.12508734589E+03 0.  0.
          5    1    3    3  502    0  0.18094967279E+02 -0.51218774033E+02 -0.37895778440E+02  0.66365300254E+02  0.41800000000E+01 0.  1.
         -5    1    3    3    0  502  0.92545714178E+02 -0.11352935888E+03 -0.48697886165E+03  0.50854646654E+03  0.41800000000E+01 0.  1.
        -11    1    1    2    0    0 -0.43136101991E+02  0.95117983849E+02 -0.22526198370E+03  0.24829642657E+03  0.00000000000E+00 0. -1.
         11    1    1    2    0    0 -0.67504579466E+02  0.69630149061E+02 -0.73649060424E+02  0.12177606501E+03  0.00000000000E+00 0.  1.
</event>
<event>
 7    1  0.2855090E-009  0.8157108E+02  0.7561462E-02  0.1324651E+00
         -1   -1    0    0    0  501 -0.00000000000E+00  0.00000000000E+00  0.56215542039E+03  0.56215542039E+03  0.00000000000E+00 0.  1.
          1   -1    0    0  501    0  0.00000000000E+00 -0.00000000000E+00 -0.24240013710E+02  0.24240013710E+02  0.00000000000E+00 0. -1.
         25    2    1    2    0    0 -0.30613182976E+02 -0.19269296174E+02  0.24541011060E+03  0.27781366219E+03  0.12508331531E+03 0.  0.
          5    1    3    3  502    0 -0.45372032008E+02 -0.79847453391E+01  0.18046659244E+02  0.49654121244E+02  0.41800000000E+01 0.  1.
         -5    1    3    3    0  502  0.14758849032E+02 -0.11284550835E+02  0.22736345135E+03  0.22815954094E+03  0.41800000000E+01 0.  1.
        -11    1    1    2    0    0  0.61365395510E+02 -0.34377908313E+00  0.16866189610E+03  0.17947887103E+03  0.00000000000E+00 0.  1.
         11    1    1    2    0    0 -0.30752212534E+02  0.19613075257E+02  0.12384339998E+03  0.12910290088E+03  0.00000000000E+00 0. -1.
</event>
<event>
 7    1  0.2855090E-009  0.1108250E+03  0.7561462E-02  0.1259050E+00
          1   -1    0    0  501    0  0.00000000000E+00  0.00000000000E+00  0.14385652837E+03  0.14385652837E+03  0.00000000000E+00 0. -1.
         -1   -1    0    0    0  501 -0.00000000000E+00 -0.00000000000E+00 -0.10042146736E+03  0.10042146736E+03  0.00000000000E+00 0.  1.
         25    2    1    2    0    0  0.16623523593E+02  0.46545064821E+02  0.38027061879E+02  0.13977530621E+03  0.12509314208E+03 0.  0.
          5    1    3    3  502    0  0.24665935584E+02 -0.30652706966E+02 -0.18488897873E+02  0.43672743985E+02  0.41800000000E+01 0. -1.
         -5    1    3    3    0  502 -0.80424119907E+01  0.77197771787E+02  0.56515959752E+02  0.96102562225E+02  0.41800000000E+01 0. -1.
        -11    1    1    2    0    0 -0.39047161453E+02  0.12658824722E+02  0.27044270640E+01  0.41136851929E+02  0.00000000000E+00 0.  1.
         11    1    1    2    0    0  0.22423637860E+02 -0.59203889543E+02  0.27035720581E+01  0.63365837592E+02  0.00000000000E+00 0. -1.
</event>
<event>
 7    1  0.2855090E-009  0.1180613E+03  0.7561462E-02  0.1246330E+00
          2   -1    0    0  501    0  0.00000000000E+00  0.00000000000E+00  0.22395054932E+03  0.22395054932E+03  0.00000000000E+00 0. -1.
         -2   -1    0    0    0  501 -0.00000000000E+00 -0.00000000000E+00 -0.78348024614E+02  0.78348024614E+02  0.00000000000E+00 0.  1.
         25    2    1    2    0    0 -0.91957518909E+01 -0.75229266729E+02  0.83561330726E+02  0.16846777918E+03  0.12511951168E+03 0.  0.
          5    1    3    3  502    0 -0.56296535384E+02 -0.66814150749E+02  0.82783548524E+02  0.12043263238E+03  0.41800000000E+01 0.  1.
         -5    1    3    3    0  502  0.47100783493E+02 -0.84151159807E+01  0.77778220190E+00  0.48035146797E+02  0.41800000000E+01 0.  1.
        -11    1    1    2    0    0 -0.40981483851E+01  0.84383851182E+02  0.75124205060E+02  0.11305341811E+03  0.00000000000E+00 0. -1.
         11    1    1    2    0    0  0.13293900276E+02 -0.91545844524E+01 -0.13083011084E+02  0.20777376641E+02  0.00000000000E+00 0.  1.
</event>
<event>
 7    1  0.2855090E-009  0.1297046E+03  0.7561462E-02  0.1227895E+00
         -2   -1    0    0    0  501 -0.00000000000E+00  0.00000000000E+00  0.35842487299E+02  0.35842487299E+02  0.00000000000E+00 0.  1.
          2   -1    0    0  501    0  0.00000000000E+00 -0.00000000000E+00 -0.54422231207E+03  0.54422231207E+03  0.00000000000E+00 0. -1.
         25    2    1    2    0    0  0.41509950513E+01 -0.62424795353E+02 -0.16556517718E+03  0.21673510072E+03  0.12509272623E+03 0.  0.
          5    1    3    3  502    0  0.48781432563E+02 -0.77971559777E+02 -0.11640113422E+03  0.14841121503E+03  0.41800000000E+01 0. -1.
         -5    1    3    3    0  502 -0.44630437511E+02  0.15546764425E+02 -0.49164042957E+02  0.68323885694E+02  0.41800000000E+01 0. -1.
        -11    1    1    2    0    0 -0.98965596842E-01  0.91017150711E+02 -0.27322157598E+03  0.28798291807E+03  0.00000000000E+00 0.  1.
         11    1    1    2    0    0 -0.40520294544E+01 -0.28592355358E+02 -0.69593071614E+02  0.75346780583E+02  0.00000000000E+00 0. -1.
</event>
<event>
 7    1  0.2855090E-009  0.2196210E+03  0.7561462E-02  0.1134166E+00
          2   -1    0    0  501    0  0.00000000000E+00  0.00000000000E+00  0.31909423404E+04  0.31909423404E+04  0.00000000000E+00 0.  1.
         -2   -1    0    0    0  501 -0.00000000000E+00 -0.00000000000E+00 -0.18087480878E+02  0.18087480878E+02  0.00000000000E+00 0. -1.
         25    2    1    2    0    0 -0.32792359074E+02  0.21058241485E+03  0.19483200133E+04  0.19639293492E+04  0.12508925617E+03 0.  0.
          5    1    3    3  502    0 -0.21023220433E+02  0.17286847821E+03  0.10205601505E+04  0.10353192646E+04  0.41800000000E+01 0. -1.
         -5    1    3    3    0  502 -0.11769138641E+02  0.37713936646E+02  0.92775986286E+03  0.92861008457E+03  0.41800000000E+01 0. -1.
        -11    1    1    2    0    0  0.42537780938E+02 -0.55466572441E+02  0.39132992863E+03  0.39752373074E+03  0.00000000000E+00 0. -1.
         11    1    1    2    0    0 -0.97454218641E+01 -0.15511584241E+03  0.83320491760E+03  0.84757674138E+03  0.00000000000E+00 0.  1.
</event>
<event>
 7    1  0.2855090E-009  0.1064069E+03  0.7561462E-02  0.1267372E+00
          3   -1    0    0  501    0  0.00000000000E+00  0.00000000000E+00  0.62044311443E+03  0.62044311443E+03  0.00000000000E+00 0. -1.
         -3   -1    0    0    0  501 -0.00000000000E+00 -0.00000000000E+00 -0.23061386625E+02  0.23061386625E+02  0.00000000000E+00 0.  1.
         25    2    1    2    0    0 -0.10828196317E+02 -0.37399202128E+02  0.42721793818E+03  0.44685452266E+03  0.12509135685E+03 0.  0.
          5    1    3    3  502    0 -0.62783550783E+02 -0.45010702839E+02  0.22690545164E+03  0.23973171255E+03  0.41800000000E+01 0. -1.
         -5    1    3    3    0  502  0.51955354466E+02  0.76115007112E+01  0.20031248655E+03  0.20712281011E+03  0.41800000000E+01 0. -1.
        -11    1    1    2    0    0  0.35792657885E+02  0.44223625387E+02  0.56888730617E+02  0.80456019489E+02  0.00000000000E+00 0.  1.
         11    1    1    2    0    0 -0.24964461568E+02 -0.68244232586E+01  0.11327505900E+03  0.11619395891E+03  0.00000000000E+00 0. -1.
</event>
<event>
 7    1  0.2855090E-009  0.1024945E+03  0.7561462E-02  0.1275136E+00
          2   -1    0    0  501    0  0.00000000000E+00  0.00000000000E+00  0.36199017807E+02  0.36199017807E+02  0.00000000000E+00 0. -1.
         -2   -1    0    0    0  501 -0.00000000000E+00 -0.00000000000E+00 -0.34027376806E+03  0.34027376806E+03  0.00000000000E+00 0.  1.
         25    2    1    2    0    0  0.55508292609E+01 -0.12565550349E+02 -0.21439199438E+03  0.24859624264E+03  0.12508980709E+03 0.  0.
          5    1    3    3  502    0  0.55436571589E+02  0.14498506160E+02 -0.55749694859E+02  0.80055737004E+02  0.41800000000E+01 0. -1.
         -5    1    3    3    0  502 -0.49885742328E+02 -0.27064056509E+02 -0.15864229953E+03  0.16854050564E+03  0.41800000000E+01 0. -1.
        -11    1    1    2    0    0  0.40296774509E+02  0.18604106834E+02 -0.50804818143E+02  0.67461636309E+02  0.00000000000E+00 0.  1.
         11    1    1    2    0    0 -0.45847603769E+02 -0.60385564845E+01 -0.38877937725E+02  0.60414906915E+02  0.00000000000E+00 0. -1.
</event>
<event>
 7    1  0.2855090E-009  0.1193407E+03  0.7561462E-02  0.1244189E+00
          3   -1    0    0  501    0  0.00000000000E+00  0.00000000000E+00  0.54628951123E+02  0.54628951123E+02  0.00000000000E+00 0. -1.
         -3   -1    0    0    0  501 -0.00000000000E+00 -0.00000000000E+00 -0.31286347898E+03  0.31286347898E+03  0.00000000000E+00 0.  1.
         25    2    1    2    0    0 -0.64928888191E+02 -0.31412427438E+02 -0.14793853175E+03  0.20672674490E+03  0.12509051428E+03 0.  0.
          5    1    3    3  502    0  0.27733601870E+02 -0.95815363882E+01 -0.91035502083E+02  0.95738673229E+02  0.41800000000E+01 0. -1.
         -5    1    3    3    0  502 -0.92662490061E+02 -0.21830891050E+02 -0.56903029663E+02  0.11098807167E+03  0.41800000000E+01 0. -1.
        -11    1    1    2    0    0 -0.10566658588E+02  0.36583948258E+02 -0.20195410047E+02  0.43103296055E+02  0.00000000000E+00 0. -1.
         11    1    1    2    0    0  0.75495546779E+02 -0.51715208198E+01 -0.90100586067E+02  0.11766238915E+03  0.00000000000E+00 0.  1.
</event>
<event>
 7    1  0.2855090E-009  0.1078644E+03  0.7561462E-02  0.1264577E+00
         -1   -1    0    0    0  501 -0.00000000000E+00  0.00000000000E+00  0.26547094833E+03  0.26547094833E+03  0.00000000000E+00 0.  1.
          1   -1    0    0  501    0  0.00000000000E+00 -0.00000000000E+00 -0.58290497089E+02  0.58290497089E+02  0.00000000000E+00 0. -1.
         25    2    1    2    0    0 -0.30862162647E+02  0.46443236040E+02  0.83073069212E+02  0.16018227396E+03  0.12509108204E+03 0.  0.
          5    1    3    3  502    0  0.43553901711E+02  0.20929450174E+02  0.41653126415E+01  0.48680658051E+02  0.41800000000E+01 0. -1.
         -5    1    3    3    0  502 -0.74416064358E+02  0.25513785866E+02  0.78907756571E+02  0.11150161591E+03  0.41800000000E+01 0. -1.
        -11    1    1    2    0    0 -0.31962061207E+01  0.16539642263E+02  0.74723512326E+02  0.76598817184E+02  0.00000000000E+00 0.  1.
         11    1    1    2    0    0  0.34058368768E+02 -0.62982878303E+02  0.49383869703E+02  0.86980354272E+02  0.00000000000E+00 0. -1.
</event>
<event>
 7    1  0.2855090E-009  0.1401221E+03  0.7561462E-02  0.1213165E+00
         -1   -1    0    0    0  501 -0.00000000000E+00  0.00000000000E+00  0.10991925526E+02  0.10991925526E+02  0.00000000000E+00 0.  1.
          1   -1    0    0  501    0  0.00000000000E+00 -0.00000000000E+00 -0.19133787250E+04  0.19133787250E+04  0.00000000000E+00 0. -1.
         25    2    1    2    0    0  0.57603646674E+02  0.65026653766E+02 -0.12316975827E+04  0.12410772855E+04  0.12508895926E+03 0.  0.
          5    1    3    3  502    0 -0.32956181716E+02 -0.76363704939E+01 -0.37325263268E+03  0.37480584876E+03  0.41800000000E+01 0.  1.
         -5    1    3    3    0  502  0.90559828390E+02  0.72663024260E+02 -0.85844494998E+03  0.86627143676E+03  0.41800000000E+01 0.  1.
        -11    1    1    2    0    0  0.66545193476E+01 -0.65377777977E+02 -0.30473042509E+03  0.31173573497E+03  0.00000000000E+00 0.  1.
         11    1    1    2    0    0 -0.64258166021E+02  0.35112421121E+00 -0.36595879177E+03  0.37155763007E+03  0.00000000000E+00 0. -1.
</event>
<event>
 7    1  0.3823165E-009  0.8316374E+02  0.7561462E-02  0.1320306E+00
         -2   -1    0    0    0  501 -0.00000000000E+00  0.00000000000E+00  0.18433080781E+02  0.18433080781E+02  0.00000000000E+00 0.  1.
          2   -1    0    0  501    0  0.00000000000E+00 -0.00000000000E+00 -0.10917065807E+04  0.10917065807E+04  0.00000000000E+00 0. -1.
         25    2    1    2    0    0 -0.22881588771E+02 -0.26448409461E+01 -0.93034125002E+03  0.93899540075E+03  0.12508780452E+03 0.  0.
          5    1    3    3  502    0 -0.59824789743E+02 -0.54247760780E+01 -0.23289936905E+03  0.24055773146E+03  0.41800000000E+01 0.  1.
         -5    1    3    3    0  502  0.36943200972E+02  0.27799351319E+01 -0.69744188098E+03  0.69843766928E+03  0.41800000000E+01 0.  1.
        -11    1    1    2    0    0 -0.19861265236E+02 -0.12517541369E+02 -0.25463797879E+01  0.23614460585E+02  0.00000000000E+00 0.  1.
         11    1    1    2    0    0  0.42742854007E+02  0.15162382315E+02 -0.14038587009E+03  0.14752980013E+03  0.00000000000E+00 0. -1.
</event>
<event>
 7    1  0.2855090E-009  0.1999880E+03  0.7561462E-02  0.1149749E+00
         -2   -1    0    0    0  501 -0.00000000000E+00  0.00000000000E+00  0.98690213956E+02  0.98690213956E+02  0.00000000000E+00 0.  1.
          2   -1    0    0  501    0  0.00000000000E+00 -0.00000000000E+00 -0.50181982596E+03  0.50181982596E+03  0.00000000000E+00 0. -1.
         25    2    1    2    0    0 -0.14008586996E+03  0.13455631897E+03 -0.21906390620E+03  0.31837954201E+03  0.12508830415E+03 0.  0.
          5    1    3    3  502    0 -0.89357686208E+02  0.90950354986E+02 -0.50898692981E+02  0.13734959958E+03  0.41800000000E+01 0. -1.
         -5    1    3    3    0  502 -0.50728183756E+02  0.43605963988E+02 -0.16816521322E+03  0.18102994244E+03  0.41800000000E+01 0. -1.
        -11    1    1    2    0    0 -0.67978210881E+01 -0.13207790626E+02 -0.41766556332E+02  0.44329463482E+02  0.00000000000E+00 0. -1.
         11    1    1    2    0    0  0.14688369105E+03 -0.12134852835E+03 -0.14229914947E+03  0.23780103442E+03  0.00000000000E+00 0.  1.
</event>
<event>
 7    1  0.2855090E-009  0.1290821E+03  0.7561462E-02  0.1228824E+00
         -2   -1    0    0    0  501 -0.00000000000E+00  0.00000000000E+00  0.98058778015E+02  0.98058778015E+02  0.00000000000E+00 0.  1.
          2   -1    0    0  501    0  0.00000000000E+00 -0.00000000000E+00 -0.39093809039E+03  0.39093809039E+03  0.00000000000E+00 0. -1.
         25    2    1    2    0    0 -0.76950072327E+02  0.84254941823E+02 -0.12476507453E+02  0.16980177809E+03  0.12512702247E+03 0.  0.
          5    1    3    3  502    0 -0.45185887704E+02 -0.66749031663E+01 -0.48619701660E+02  0.66840605693E+02  0.41800000000E+01 0. -1.
         -5    1    3    3    0  502 -0.31764184622E+02  0.90929844989E+02  0.36143194207E+02  0.10296117240E+03  0.41800000000E+01 0. -1.
        -11    1    1    2    0    0  0.38697055260E+02 -0.27611875845E+02 -0.22844435786E+03  0.23333817178E+03  0.00000000000E+00 0. -1.
         11    1    1    2    0    0  0.38253017067E+02 -0.56643065978E+02 -0.51958447067E+02  0.85856918532E+02  0.00000000000E+00 0.  1.
</event>
<event>
 7    1  0.2855090E-009  0.8186183E+02  0.7561462E-02  0.1323849E+00
          2   -1    0    0  501    0  0.00000000000E+00  0.00000000000E+00  0.12894000780E+03  0.12894000780E+03  0.00000000000E+00 0. -1.
         -2   -1    0    0    0  501 -0.00000000000E+00 -0.00000000000E+00 -0.12733256900E+03  0.12733256900E+03  0.00000000000E+00 0.  1.
         25    2    1    2    0    0  0.50553240441E+01  0.11509461888E+02 -0.66664099846E+02  0.14231629356E+03  0.12510715883E+03 0.  0.
          5    1    3    3  502    0 -0.44543532898E+02  0.23202378289E+01 -0.78455507808E+02  0.90345165516E+02  0.41800000000E+01 0. -1.
         -5    1    3    3    0  502  0.49598856942E+02  0.91892240593E+01  0.11791407962E+02  0.51971128048E+02  0.41800000000E+01 0. -1.
        -11    1    1    2    0    0 -0.34544237461E+02 -0.16695191547E+02 -0.11170792244E+01  0.38383350929E+02  0.00000000000E+00 0.  1.
         11    1    1    2    0    0  0.29488913417E+02  0.51857296584E+01  0.69388617874E+02  0.75572932304E+02  0.00000000000E+00 0. -1.
</event>
<event>
 7    1  0.2855090E-009  0.1020401E+03  0.7561462E-02  0.1276063E+00
          2   -1    0    0  501    0  0.00000000000E+00  0.00000000000E+00  0.27588589748E+03  0.27588589748E+03  0.00000000000E+00 0. -1.
         -2   -1    0    0    0  501 -0.00000000000E+00 -0.00000000000E+00 -0.74052022157E+02  0.74052022157E+02  0.00000000000E+00 0.  1.
         25    2    1    2    0    0 -0.70410885788E+01  0.18954732729E+02 -0.93059080004E+00  0.12671830348E+03  0.12509118121E+03 0.  0.
          5    1    3    3  502    0  0.85109318773E+01 -0.48991327209E+02  0.20092665785E+02  0.53793807464E+02  0.41800000000E+01 0.  1.
         -5    1    3    3    0  502 -0.15552020456E+02  0.67946059938E+02 -0.21023256585E+02  0.72924496013E+02  0.41800000000E+01 0.  1.
        -11    1    1    2    0    0 -0.37178879892E+02 -0.28423634614E+01  0.44247672536E+02  0.57863673103E+02  0.00000000000E+00 0.  1.
         11    1    1    2    0    0  0.44219968471E+02 -0.16112369267E+02  0.15851679358E+03  0.16535594305E+03  0.00000000000E+00 0. -1.
</event>
<event>
 7    1  0.3734919E-009  0.1128091E+03  0.7561462E-02  0.1255454E+00
         -2   -1    0    0    0  501 -0.00000000000E+00  0.00000000000E+00  0.16241219834E+03  0.16241219834E+03  0.00000000000E+00 0. -1.
          2   -1    0    0  501    0  0.00000000000E+00 -0.00000000000E+00 -0.96046451022E+02  0.96046451022E+02  0.00000000000E+00 0.  1.
         25    2    1    2    0    0 -0.44015310763E+02 -0.35494319125E+02  0.62385014758E+02  0.15078934809E+03  0.12509333778E+03 0.  0.
          5    1    3    3  502    0 -0.25481453441E+01  0.45625170524E+02  0.17144564764E+02  0.48985280758E+02  0.41800000000E+01 0.  1.
         -5    1    3    3    0  502 -0.41467165419E+02 -0.81119489649E+02  0.45240449994E+02  0.10180406733E+03  0.41800000000E+01 0.  1.
        -11    1    1    2    0    0 -0.11964261005E-01  0.43739006106E+02  0.32567416873E+02  0.54531985477E+02  0.00000000000E+00 0. -1.
         11    1    1    2    0    0  0.44027275024E+02 -0.82446869812E+01 -0.28586684318E+02  0.53137315794E+02  0.00000000000E+00 0.  1.
</event>
<event>
 7    1  0.2855090E-009  0.1159121E+03  0.7561462E-02  0.1249997E+00
          3   -1    0    0  501    0  0.00000000000E+00  0.00000000000E+00  0.12171414778E+04  0.12171414778E+04  0.00000000000E+00 0. -1.
         -3   -1    0    0    0  501 -0.00000000000E+00 -0.00000000000E+00 -0.14585739212E+02  0.14585739212E+02  0.00000000000E+00 0.  1.
         25    2    1    2    0    0  0.48651006799E+02 -0.57385881698E+01  0.94598523587E+03  0.95547656442E+03  0.12509015477E+03 0.  0.
          5    1    3    3  502    0 -0.39244929713E+02 -0.12036182063E+02  0.43292784380E+03  0.43488966937E+03  0.41800000000E+01 0. -1.
         -5    1    3    3    0  502  0.87895936512E+02  0.62975938933E+01  0.51305739207E+03  0.52058689505E+03  0.41800000000E+01 0. -1.
        -11    1    1    2    0    0 -0.54948360431E+02 -0.32331748913E+02  0.15525922986E+03  0.16783948510E+03  0.00000000000E+00 0.  1.
         11    1    1    2    0    0  0.62973536328E+01  0.38070337083E+02  0.10131127288E+03  0.10841116751E+03  0.00000000000E+00 0. -1.
</event>
<event>
 7    1  0.2855090E-009  0.2475910E+03  0.7561462E-02  0.1114837E+00
         -1   -1    0    0    0  501 -0.00000000000E+00  0.00000000000E+00  0.14654033462E+04  0.14654033462E+04  0.00000000000E+00 0.  1.
          1   -1    0    0  501    0  0.00000000000E+00 -0.00000000000E+00 -0.64686495827E+02  0.64686495827E+02  0.00000000000E+00 0. -1.
         25    2    1    2    0    0  0.10736137315E+03 -0.20085749273E+03  0.27606544329E+03  0.37911772054E+03  0.12509164728E+03 0.  0.
          5    1    3    3  502    0  0.19393650924E+02 -0.15194483901E+03  0.20452591865E+03  0.25556148301E+03  0.41800000000E+01 0. -1.
         -5    1    3    3    0  502  0.87967722227E+02 -0.48912653722E+02  0.71539524646E+02  0.12355623754E+03  0.41800000000E+01 0. -1.
        -11    1    1    2    0    0 -0.65146563154E+02  0.43615558414E+02  0.46255624171E+03  0.46915313957E+03  0.00000000000E+00 0.  1.
         11    1    1    2    0    0 -0.42214809996E+02  0.15724193431E+03  0.66209516540E+03  0.68181898194E+03  0.00000000000E+00 0. -1.
</event>
<event>
 7    1  0.2855090E-009  0.2058807E+03  0.7561462E-02  0.1144870E+00
         -2   -1    0    0    0  501 -0.00000000000E+00  0.00000000000E+00  0.23237432147E+03  0.23237432147E+03  0.00000000000E+00 0.  1.
          2   -1    0    0  501    0  0.00000000000E+00 -0.00000000000E+00 -0.21820509776E+03  0.21820509776E+03  0.00000000000E+00 0. -1.
         25    2    1    2    0    0  0.65874618434E+02 -0.18292693716E+03  0.40918274419E+02  0.23478256065E+03  0.12508723319E+03 0.  0.
          5    1    3    3  502    0  0.57163315999E+02 -0.17849668990E+03 -0.51100818997E+01  0.18754279068E+03  0.41800000000E+01 0.  1.
         -5    1    3    3    0  502  0.87113024343E+01 -0.44302472690E+01  0.46028356319E+02  0.47239769965E+02  0.41800000000E+01 0.  1.
        -11    1    1    2    0    0 -0.77734018829E+02  0.85665164533E+02 -0.21626313844E+02  0.11768090562E+03  0.00000000000E+00 0.  1.
         11    1    1    2    0    0  0.11859400395E+02  0.97261772632E+02 -0.51227368687E+01  0.98115952965E+02  0.00000000000E+00 0. -1.
</event>
<event>
 7    1  0.2855090E-009  0.9378806E+02  0.7561462E-02  0.1293929E+00
         -2   -1    0    0    0  501 -0.00000000000E+00  0.00000000000E+00  0.21089251909E+03  0.21089251909E+03  0.00000000000E+00 0.  1.
          2   -1    0    0  501    0  0.00000000000E+00 -0.00000000000E+00 -0.67171303803E+02  0.67171303803E+02  0.00000000000E+00 0. -1.
         25    2    1    2    0    0 -0.40541135721E+01 -0.26412274086E+02  0.31836747750E+02  0.13180130901E+03  0.12507582696E+03 0.  0.
          5    1    3    3  502    0  0.32265037697E+02  0.19463102680E+02 -0.28666204649E+02  0.47529661396E+02  0.41800000000E+01 0.  1.
         -5    1    3    3    0  502 -0.36319151269E+02 -0.45875376765E+02  0.60502952398E+02  0.84271647611E+02  0.41800000000E+01 0.  1.
        -11    1    1    2    0    0 -0.89969663137E+00 -0.32184681424E+02  0.22543744140E+02  0.39305006961E+02  0.00000000000E+00 0.  1.
         11    1    1    2    0    0  0.49538102034E+01  0.58596955509E+02  0.89340723400E+02  0.10695750693E+03  0.00000000000E+00 0. -1.
</event>
<event>
 7    1  0.2855090E-009  0.1036600E+03  0.7561462E-02  0.1272783E+00
         -1   -1    0    0    0  501 -0.00000000000E+00  0.00000000000E+00  0.10920899974E+02  0.10920899974E+02  0.00000000000E+00 0.  1.
          1   -1    0    0  501    0  0.00000000000E+00 -0.00000000000E+00 -0.11843921990E+04  0.11843921990E+04  0.00000000000E+00 0. -1.
         25    2    1    2    0    0 -0.39736544941E+01  0.15510771571E+02 -0.81362615998E+03  0.82334069077E+03  0.12508393545E+03 0.  0.
          5    1    3    3  502    0  0.49007175012E+02  0.36473564176E+02 -0.27729751187E+03  0.28397782761E+03  0.41800000000E+01 0. -1.
         -5    1    3    3    0  502 -0.52980829506E+02 -0.20962792605E+02 -0.53632864812E+03  0.53936286316E+03  0.41800000000E+01 0. -1.
        -11    1    1    2    0    0  0.42165953966E+02  0.96047250328E+01 -0.11427564617E+03  0.12218486700E+03  0.00000000000E+00 0.  1.
         11    1    1    2    0    0 -0.38192299472E+02 -0.25115496604E+02 -0.24556949288E+03  0.24978754120E+03  0.00000000000E+00 0. -1.
</event>
<event>
 7    1  0.2855090E-009  0.1156611E+03  0.7561462E-02  0.1250431E+00
         -1   -1    0    0    0  501 -0.00000000000E+00  0.00000000000E+00  0.43062831916E+02  0.43062831916E+02  0.00000000000E+00 0.  1.
          1   -1    0    0  501    0  0.00000000000E+00 -0.00000000000E+00 -0.37435437376E+03  0.37435437376E+03  0.00000000000E+00 0. -1.
         25    2    1    2    0    0 -0.52960799243E+02 -0.29371780106E+02 -0.17393301832E+03  0.22263623889E+03  0.12508657915E+03 0.  0.
          5    1    3    3  502    0 -0.28228953310E+02 -0.66798081383E+02 -0.15960791610E+03  0.17535967827E+03  0.41800000000E+01 0. -1.
         -5    1    3    3    0  502 -0.24731845933E+02  0.37426301277E+02 -0.14325102220E+02  0.47276560621E+02  0.41800000000E+01 0. -1.
        -11    1    1    2    0    0  0.46891187639E+00  0.55148537618E+02 -0.62585763361E+02  0.83417976811E+02  0.00000000000E+00 0. -1.
         11    1    1    2    0    0  0.52491887366E+02 -0.25776757512E+02 -0.94772760162E+02  0.11136298997E+03  0.00000000000E+00 0.  1.
</event>
<event>
 7    1  0.2855090E-009  0.1516654E+03  0.7561462E-02  0.1198441E+00
          4   -1    0    0  501    0  0.00000000000E+00  0.00000000000E+00  0.16094555487E+03  0.16094555487E+03  0.00000000000E+00 0. -1.
         -4   -1    0    0    0  501 -0.00000000000E+00 -0.00000000000E+00 -0.17137891284E+03  0.17137891284E+03  0.00000000000E+00 0.  1.
         25    2    1    2    0    0 -0.12377169477E+03 -0.15288050303E+02  0.28357560281E+02  0.17889792844E+03  0.12508861125E+03 0.  0.
          5    1    3    3  502    0  0.19252447270E+02  0.54433362780E+01  0.27565590294E+02  0.34316480064E+02  0.41800000000E+01 0.  1.
         -5    1    3    3    0  502 -0.14302414204E+03 -0.20731386581E+02  0.79196998636E+00  0.14458144837E+03  0.41800000000E+01 0.  1.
        -11    1    1    2    0    0  0.91622098149E+02 -0.16505615817E+02  0.11388180849E+01  0.93103926498E+02  0.00000000000E+00 0.  1.
         11    1    1    2    0    0  0.32149596625E+02  0.31793666120E+02 -0.39929736328E+02  0.60322612773E+02  0.00000000000E+00 0. -1.
</event>
<event>
 7    1  0.2855090E-009  0.1043387E+03  0.7561462E-02  0.1271428E+00
          2   -1    0    0  501    0  0.00000000000E+00  0.00000000000E+00  0.94939699610E+02  0.94939699610E+02  0.00000000000E+00 0. -1.
         -2   -1    0    0    0  501 -0.00000000000E+00 -0.00000000000E+00 -0.18778397206E+03  0.18778397206E+03  0.00000000000E+00 0.  1.
         25    2    1    2    0    0 -0.32286521014E+02  0.68947828382E+02 -0.62833205926E+02  0.15934866647E+03  0.12509101991E+03 0.  0.
          5    1    3    3  502    0 -0.68213337151E+02  0.67919834170E+02 -0.12208129292E+02  0.97121954571E+02  0.41800000000E+01 0.  1.
         -5    1    3    3    0  502  0.35926816137E+02  0.10279942123E+01 -0.50625076634E+02  0.62226711902E+02  0.41800000000E+01 0.  1.
        -11    1    1    2    0    0  0.21318831924E+02 -0.46822788061E+02  0.29245316060E+02  0.59179004621E+02  0.00000000000E+00 0. -1.
         11    1    1    2    0    0  0.10967689090E+02 -0.22125040321E+02 -0.59256382580E+02  0.64196000573E+02  0.00000000000E+00 0.  1.
</event>
<event>
 7    1  0.2855090E-009  0.9398911E+02  0.7561462E-02  0.1293469E+00
         -2   -1    0    0    0  501 -0.00000000000E+00  0.00000000000E+00  0.35939107564E+03  0.35939107564E+03  0.00000000000E+00 0. -1.
          2   -1    0    0  501    0  0.00000000000E+00 -0.00000000000E+00 -0.40343986596E+02  0.40343986596E+02  0.00000000000E+00 0.  1.
         25    2    1    2    0    0  0.15654769732E+02 -0.45273895120E+02  0.20596081440E+03  0.24567704226E+03  0.12507019882E+03 0.  0.
          5    1    3    3  502    0  0.42528174486E+02 -0.64216552364E+02  0.64995070287E+02  0.10086745156E+03  0.41800000000E+01 0. -1.
         -5    1    3    3    0  502 -0.26873404754E+02  0.18942657244E+02  0.14096574411E+03  0.14480959070E+03  0.41800000000E+01 0. -1.
        -11    1    1    2    0    0 -0.11245888103E+02  0.60660252403E+02  0.28478606107E+02  0.67949740446E+02  0.00000000000E+00 0.  1.
         11    1    1    2    0    0 -0.44088816290E+01 -0.15386357283E+02  0.84607668541E+02  0.86108279530E+02  0.00000000000E+00 0. -1.
</event>
<event>
 7    1  0.2855090E-009  0.1035364E+03  0.7561462E-02  0.1273030E+00
         -1   -1    0    0    0  501 -0.00000000000E+00  0.00000000000E+00  0.29386641233E+02  0.29386641233E+02  0.00000000000E+00 0.  1.
          1   -1    0    0  501    0  0.00000000000E+00 -0.00000000000E+00 -0.45133453060E+03  0.45133453060E+03  0.00000000000E+00 0. -1.
         25    2    1    2    0    0 -0.17334596585E+02  0.55851370887E+01 -0.15536416591E+03  0.20029121356E+03  0.12508742616E+03 0.  0.
          5    1    3    3  502    0  0.26291320663E+02 -0.45538699616E+02 -0.38105447576E+02  0.65073068468E+02  0.41800000000E+01 0.  1.
         -5    1    3    3    0  502 -0.43625917248E+02  0.51123836704E+02 -0.11725871834E+03  0.13521814509E+03  0.41800000000E+01 0.  1.
        -11    1    1    2    0    0 -0.14221309973E+02 -0.38708026193E+02 -0.12197858865E+03  0.12876075892E+03  0.00000000000E+00 0. -1.
         11    1    1    2    0    0  0.31555906557E+02  0.33122889104E+02 -0.14460513481E+03  0.15166919936E+03  0.00000000000E+00 0.  1.
</event>
<event>
 7    1  0.2855090E-009  0.1248807E+03  0.7561462E-02  0.1235256E+00
          2   -1    0    0  501    0  0.00000000000E+00  0.00000000000E+00  0.10680058259E+03  0.10680058259E+03  0.00000000000E+00 0. -1.
         -2   -1    0    0    0  501 -0.00000000000E+00 -0.00000000000E+00 -0.23697516358E+03  0.23697516358E+03  0.00000000000E+00 0.  1.
         25    2    1    2    0    0  0.54002515211E+02  0.54043843813E+02 -0.16397781191E+03  0.21994747207E+03  0.12510459211E+03 0.  0.
          5    1    3    3  502    0  0.72087777454E+02 -0.15132818430E+02 -0.69217426370E+02  0.10116409623E+03  0.41800000000E+01 0.  1.
         -5    1    3    3    0  502 -0.18085262242E+02  0.69176662243E+02 -0.94760385544E+02  0.11878337585E+03  0.41800000000E+01 0.  1.
        -11    1    1    2    0    0 -0.41883563611E+02  0.67026488799E+01  0.43926388685E+02  0.61062967711E+02  0.00000000000E+00 0. -1.
         11    1    1    2    0    0 -0.12118951601E+02 -0.60746492693E+02 -0.10123157763E+02  0.62765306384E+02  0.00000000000E+00 0.  1.
</event>
<event>
 7    1  0.2855090E-009  0.1124707E+03  0.7561462E-02  0.1256062E+00
          1   -1    0    0  501    0  0.00000000000E+00  0.00000000000E+00  0.51666796265E+03  0.51666796265E+03  0.00000000000E+00 0. -1.
         -1   -1    0    0    0  501 -0.00000000000E+00 -0.00000000000E+00 -0.38714742732E+02  0.38714742732E+02  0.00000000000E+00 0.  1.
         25    2    1    2    0    0 -0.79724057015E+02  0.21153802908E+02  0.32098367834E+03  0.35423327899E+03  0.12508911038E+03 0.  0.
          5    1    3    3  502    0 -0.48478317437E+02 -0.16004143888E+02  0.29420607505E+03  0.29863182496E+03  0.41800000000E+01 0. -1.
         -5    1    3    3    0  502 -0.31245739578E+02  0.37157946797E+02  0.26777603292E+02  0.55601454027E+02  0.41800000000E+01 0. -1.
        -11    1    1    2    0    0  0.83687734450E+02  0.18028670384E+02  0.96651893607E+02  0.12911335481E+03  0.00000000000E+00 0. -1.
         11    1    1    2    0    0 -0.39636774345E+01 -0.39182473292E+02  0.60317647965E+02  0.72036071577E+02  0.00000000000E+00 0.  1.
</event>
<event>
 7    1  0.2855090E-009  0.1440365E+03  0.7561462E-02  0.1207998E+00
          1   -1    0    0  501    0  0.00000000000E+00  0.00000000000E+00  0.26711937093E+03  0.26711937093E+03  0.00000000000E+00 0. -1.
         -1   -1    0    0    0  501 -0.00000000000E+00 -0.00000000000E+00 -0.89117379713E+02  0.89117379713E+02  0.00000000000E+00 0.  1.
         25    2    1    2    0    0  0.10455937172E+03 -0.24673676977E+02  0.70221623173E+02  0.17922146723E+03  0.12509118836E+03 0.  0.
          5    1    3    3  502    0  0.48693520209E+02  0.48503188087E+02  0.49388879594E+02  0.84736957654E+02  0.41800000000E+01 0.  1.
         -5    1    3    3    0  502  0.55865851511E+02 -0.73176865063E+02  0.20832743579E+02  0.94484509580E+02  0.41800000000E+01 0.  1.
        -11    1    1    2    0    0 -0.20185662276E+02  0.36647655649E+02  0.74664451008E+02  0.85587918951E+02  0.00000000000E+00 0. -1.
         11    1    1    2    0    0 -0.84373709443E+02 -0.11973978673E+02  0.33115917036E+02  0.91427364458E+02  0.00000000000E+00 0.  1.
</event>
<event>
 7    1  0.2855090E-009  0.2337558E+03  0.7561462E-02  0.1124024E+00
          2   -1    0    0  501    0  0.00000000000E+00  0.00000000000E+00  0.33744323166E+03  0.33744323166E+03  0.00000000000E+00 0. -1.
         -2   -1    0    0    0  501 -0.00000000000E+00 -0.00000000000E+00 -0.16699781640E+03  0.16699781640E+03  0.00000000000E+00 0.  1.
         25    2    1    2    0    0 -0.18239723846E+03 -0.11894796284E+03  0.10158070784E+03  0.27089575916E+03  0.12509397133E+03 0.  0.
          5    1    3    3  502    0 -0.94855578539E+02 -0.12914754925E+03  0.83844480720E+02  0.18089787064E+03  0.41800000000E+01 0.  1.
         -5    1    3    3    0  502 -0.87541659923E+02  0.10199586409E+02  0.17736227122E+02  0.89997888517E+02  0.41800000000E+01 0.  1.
        -11    1    1    2    0    0  0.47651733004E+02  0.43679349054E+02  0.26101476046E+00  0.64642411162E+02  0.00000000000E+00 0. -1.
         11    1    1    2    0    0  0.13474550546E+03  0.75268613783E+02  0.68603692664E+02  0.16890287774E+03  0.00000000000E+00 0.  1.
</event>
<event>
 7    1  0.2855090E-009  0.6837910E+02  0.7561462E-02  0.1365693E+00
          2   -1    0    0  501    0  0.00000000000E+00  0.00000000000E+00  0.44761741548E+03  0.44761741548E+03  0.00000000000E+00 0. -1.
         -2   -1    0    0    0  501 -0.00000000000E+00 -0.00000000000E+00 -0.94115073258E+02  0.94115073258E+02  0.00000000000E+00 0.  1.
         25    2    1    2    0    0  0.50339500487E+01  0.17776532918E+02 -0.44049749340E+02  0.13391903623E+03  0.12511027964E+03 0.  0.
          5    1    3    3  502    0 -0.91453974227E+01 -0.11983588786E+02  0.40316235039E+02  0.43244836708E+02  0.41800000000E+01 0.  1.
         -5    1    3    3    0  502  0.14179347471E+02  0.29760121705E+02 -0.84365984379E+02  0.90674199521E+02  0.41800000000E+01 0.  1.
        -11    1    1    2    0    0  0.13246968068E+02 -0.49516198585E+02  0.17824346400E+03  0.18546716298E+03  0.00000000000E+00 0.  1.
         11    1    1    2    0    0 -0.18280918116E+02  0.31739665666E+02  0.21930862757E+03  0.22234628953E+03  0.00000000000E+00 0. -1.
</event>
<event>
 7    1  0.2855090E-009  0.9775058E+02  0.7561462E-02  0.1285099E+00
          2   -1    0    0  501    0  0.00000000000E+00  0.00000000000E+00  0.22720744579E+03  0.22720744579E+03  0.00000000000E+00 0. -1.
         -2   -1    0    0    0  501 -0.00000000000E+00 -0.00000000000E+00 -0.62844895238E+02  0.62844895238E+02  0.00000000000E+00 0.  1.
         25    2    1    2    0    0 -0.14054672501E+02  0.32466909893E+02  0.13399487306E+03  0.18669174005E+03  0.12509015045E+03 0.  0.
          5    1    3    3  502    0  0.58796452113E+01  0.61664281770E+02  0.13755265324E+03  0.15091473980E+03  0.41800000000E+01 0. -1.
         -5    1    3    3    0  502 -0.19934317712E+02 -0.29197371877E+02 -0.35577801818E+01  0.35777000251E+02  0.41800000000E+01 0. -1.
        -11    1    1    2    0    0 -0.35614102078E+02 -0.32401391695E+02  0.76840814344E+01  0.48757148789E+02  0.00000000000E+00 0.  1.
         11    1    1    2    0    0  0.49668774578E+02 -0.65518197945E-01  0.22683596052E+02  0.54603452185E+02  0.00000000000E+00 0. -1.
</event>
<event>
 7    1  0.2855090E-009  0.1259929E+03  0.7561462E-02  0.1233526E+00
          2   -1    0    0  501    0  0.00000000000E+00  0.00000000000E+00  0.30025730041E+03  0.30025730041E+03  0.00000000000E+00 0. -1.
         -2   -1    0    0    0  501 -0.00000000000E+00 -0.00000000000E+00 -0.71083589866E+02  0.71083589866E+02  0.00000000000E+00 0.  1.
         25    2    1    2    0    0  0.26958564105E+01 -0.78874285700E+02  0.20165610360E+03  0.25008216812E+03  0.12508991208E+03 0.  0.
          5    1    3    3  502    0 -0.59293373358E+02 -0.56085364219E+02  0.11052326507E+03  0.13745594467E+03  0.41800000000E+01 0. -1.
         -5    1    3    3    0  502  0.61989229768E+02 -0.22788921481E+02  0.91132838531E+02  0.11262622345E+03  0.41800000000E+01 0. -1.
        -11    1    1    2    0    0  0.22843910958E+02  0.74814391204E+02 -0.65382122471E+01  0.78497042100E+02  0.00000000000E+00 0.  1.
         11    1    1    2    0    0 -0.25539767368E+02  0.40598944965E+01  0.34055819189E+02  0.42761680056E+02  0.00000000000E+00 0. -1.
</event>
<event>
 7    1  0.2855090E-009  0.1418793E+03  0.7561462E-02  0.1210822E+00
         -2   -1    0    0    0  501 -0.00000000000E+00  0.00000000000E+00  0.71665427669E+02  0.71665427669E+02  0.00000000000E+00 0.  1.
          2   -1    0    0  501    0  0.00000000000E+00 -0.00000000000E+00 -0.48340593748E+03  0.48340593748E+03  0.00000000000E+00 0. -1.
         25    2    1    2    0    0 -0.83907669738E+02 -0.76686354256E+02 -0.36467755424E+03  0.40194388986E+03  0.12509147877E+03 0.  0.
          5    1    3    3  502    0  0.13578642085E+02  0.15226630805E+02 -0.13018808765E+03  0.13184324167E+03  0.41800000000E+01 0.  1.
         -5    1    3    3    0  502 -0.97486311823E+02 -0.91912985061E+02 -0.23448946659E+03  0.27010064819E+03  0.41800000000E+01 0.  1.
        -11    1    1    2    0    0  0.23296336077E+02 -0.80974070445E+01  0.17759397011E+02  0.30392161121E+02  0.00000000000E+00 0.  1.
         11    1    1    2    0    0  0.60611333661E+02  0.84783761300E+02 -0.64822352579E+02  0.12273531416E+03  0.00000000000E+00 0. -1.
</event>
<event>
 7    1  0.2855090E-009  0.8585594E+02  0.7561462E-02  0.1313209E+00
          2   -1    0    0  501    0  0.00000000000E+00  0.00000000000E+00  0.14089922117E+03  0.14089922117E+03  0.00000000000E+00 0. -1.
         -2   -1    0    0    0  501 -0.00000000000E+00 -0.00000000000E+00 -0.10972502185E+03  0.10972502185E+03  0.00000000000E+00 0.  1.
         25    2    1    2    0    0  0.26151003027E+01 -0.12044845914E+02  0.79319933688E+02  0.14862933403E+03  0.12508840870E+03 0.  0.
          5    1    3    3  502    0  0.30055522594E+02 -0.58802468031E+02  0.22271906832E+02  0.69818156083E+02  0.41800000000E+01 0. -1.
         -5    1    3    3    0  502 -0.27440422292E+02  0.46757622117E+02  0.57048026856E+02  0.78811177949E+02  0.41800000000E+01 0. -1.
        -11    1    1    2    0    0  0.18087116534E+02 -0.10210525198E+02 -0.64301401958E+02  0.67572693473E+02  0.00000000000E+00 0.  1.
         11    1    1    2    0    0 -0.20702216837E+02  0.22255371112E+02  0.16155667592E+02  0.34422215510E+02  0.00000000000E+00 0. -1.
</event>
<event>
 7    1  0.2855090E-009  0.8574181E+02  0.7561462E-02  0.1313504E+00
         -2   -1    0    0    0  501 -0.00000000000E+00  0.00000000000E+00  0.15451364287E+02  0.15451364287E+02  0.00000000000E+00 0. -1.
          2   -1    0    0  501    0  0.00000000000E+00 -0.00000000000E+00 -0.82979144100E+03  0.82979144100E+03  0.00000000000E+00 0.  1.
         25    2    1    2    0    0 -0.19029774703E+02 -0.79767165039E+01 -0.45921749515E+03  0.47639405080E+03  0.12507926867E+03 0.  0.
          5    1    3    3  502    0 -0.42056245790E+01 -0.38891426814E+02 -0.42810309451E+03  0.42990692282E+03  0.41800000000E+01 0. -1.
         -5    1    3    3    0  502 -0.14824150124E+02  0.30914710310E+02 -0.31114400637E+02  0.46487127976E+02  0.41800000000E+01 0. -1.
        -11    1    1    2    0    0  0.88401740268E+01  0.51831875426E+02 -0.22813317763E+03  0.23411415746E+03  0.00000000000E+00 0.  1.
         11    1    1    2    0    0  0.10189600676E+02 -0.43855158922E+02 -0.12698940393E+03  0.13473459703E+03  0.00000000000E+00 0. -1.
</event>
<event>
 7    1  0.2855090E-009  0.1697576E+03  0.7561462E-02  0.1178101E+00
          1   -1    0    0  501    0  0.00000000000E+00  0.00000000000E+00  0.28688404911E+03  0.28688404911E+03  0.00000000000E+00 0. -1.
         -1   -1    0    0    0  501 -0.00000000000E+00 -0.00000000000E+00 -0.11910924639E+03  0.11910924639E+03  0.00000000000E+00 0.  1.
         25    2    1    2    0    0  0.63155911642E+02  0.12357990383E+03  0.25770969196E+02  0.18860751575E+03  0.12509192755E+03 0.  0.
          5    1    3    3  502    0  0.68710468963E+02  0.20252184728E+02 -0.21301734879E+02  0.74849955512E+02  0.41800000000E+01 0.  1.
         -5    1    3    3    0  502 -0.55545573210E+01  0.10332771911E+03  0.47072704075E+02  0.11375756024E+03  0.41800000000E+01 0.  1.
        -11    1    1    2    0    0  0.12469851256E+02  0.62504638313E+01  0.16569623519E+02  0.21659129992E+02  0.00000000000E+00 0.  1.
         11    1    1    2    0    0 -0.75625762898E+02 -0.12983036767E+03  0.12543421001E+03  0.19572664975E+03  0.00000000000E+00 0. -1.
</event>
<event>
 7    1  0.2855090E-009  0.1174826E+03  0.7561462E-02  0.1247309E+00
         -1   -1    0    0    0  501 -0.00000000000E+00  0.00000000000E+00  0.12011194580E+03  0.12011194580E+03  0.00000000000E+00 0.  1.
          1   -1    0    0  501    0  0.00000000000E+00 -0.00000000000E+00 -0.14986212070E+03  0.14986212070E+03  0.00000000000E+00 0. -1.
         25    2    1    2    0    0 -0.26215707009E+02  0.73896279562E+02 -0.29010336011E+02  0.15045615652E+03  0.12509009558E+03 0.  0.
          5    1    3    3  502    0 -0.70910206592E+02  0.30453824837E+02  0.82402398093E+01  0.77724299921E+02  0.41800000000E+01 0. -1.
         -5    1    3    3    0  502  0.44694499583E+02  0.43442454726E+02 -0.37250575821E+02  0.72731856600E+02  0.41800000000E+01 0. -1.
        -11    1    1    2    0    0  0.91490321054E+01  0.76323266393E+01  0.28777750119E+02  0.31146686827E+02  0.00000000000E+00 0.  1.
         11    1    1    2    0    0  0.17066674903E+02 -0.81528606202E+02 -0.29517589008E+02  0.88371223157E+02  0.00000000000E+00 0. -1.
</event>
<event>
 7    1  0.2855090E-009  0.1808808E+03  0.7561462E-02  0.1166953E+00
          2   -1    0    0  501    0  0.00000000000E+00  0.00000000000E+00  0.71027746209E+03  0.71027746209E+03  0.00000000000E+00 0.  1.
         -2   -1    0    0    0  501 -0.00000000000E+00 -0.00000000000E+00 -0.47506433609E+02  0.47506433609E+02  0.00000000000E+00 0. -1.
         25    2    1    2    0    0 -0.13871141528E+02  0.14626586874E+03  0.31641516465E+03  0.37061241848E+03  0.12509554505E+03 0.  0.
          5    1    3    3  502    0 -0.36546777043E+02 -0.69955766381E+01  0.51185862130E+02  0.63419790970E+02  0.41800000000E+01 0. -1.
         -5    1    3    3    0  502  0.22675635515E+02  0.15326144537E+03  0.26522930252E+03  0.30719262751E+03  0.41800000000E+01 0. -1.
        -11    1    1    2    0    0  0.39189740016E+02 -0.13679684370E+03  0.31577132387E+03  0.34635349161E+03  0.00000000000E+00 0.  1.
         11    1    1    2    0    0 -0.25318598488E+02 -0.94690250350E+01  0.30584539964E+02  0.40817985611E+02  0.00000000000E+00 0. -1.
</event>
<event>
 7    1  0.3579366E-009  0.1093732E+03  0.7561462E-02  0.1261735E+00
          2   -1    0    0  501    0  0.00000000000E+00  0.00000000000E+00  0.28753415243E+03  0.28753415243E+03  0.00000000000E+00 0. -1.
         -2   -1    0    0    0  501 -0.00000000000E+00 -0.00000000000E+00 -0.69251049091E+02  0.69251049091E+02  0.00000000000E+00 0.  1.
         25    2    1    2    0    0  0.19440196170E+02  0.83658830616E+02  0.15266202219E+03  0.21524395645E+03  0.12509015390E+03 0.  0.
          5    1    3    3  502    0  0.32056035274E+02  0.91447431677E+02  0.45774350350E+02  0.10725197298E+03  0.41800000000E+01 0.  1.
         -5    1    3    3    0  502 -0.12615839104E+02 -0.77886010618E+01  0.10688767184E+03  0.10799198347E+03  0.41800000000E+01 0.  1.
        -11    1    1    2    0    0 -0.29275693520E+02 -0.84098597423E+01  0.57691836737E+02  0.65239098691E+02  0.00000000000E+00 0. -1.
         11    1    1    2    0    0  0.98354973504E+01 -0.75248970873E+02  0.79292444156E+01  0.76302146383E+02  0.00000000000E+00 0.  1.
</event>
<event>
 7    1  0.2855090E-009  0.6212189E+02  0.7561462E-02  0.1389137E+00
          4   -1    0    0  501    0  0.00000000000E+00  0.00000000000E+00  0.58530144600E+02  0.58530144600E+02  0.00000000000E+00 0.  1.
         -4   -1    0    0    0  501 -0.00000000000E+00 -0.00000000000E+00 -0.21914442421E+03  0.21914442421E+03  0.00000000000E+00 0. -1.
         25    2    1    2    0    0 -0.18409631461E+02 -0.13524934074E+02 -0.69789461493E+02  0.14505056101E+03  0.12508900008E+03 0.  0.
          5    1    3    3  502    0  0.83041349099E+01 -0.33719488797E+02  0.25939929856E+02  0.43546698409E+02  0.41800000000E+01 0. -1.
         -5    1    3    3    0  502 -0.26713766371E+02  0.20194554723E+02 -0.95729391349E+02  0.10150386260E+03  0.41800000000E+01 0. -1.
        -11    1    1    2    0    0  0.29161540998E+01 -0.19142283915E+02 -0.94332333260E+02  0.96299117787E+02  0.00000000000E+00 0. -1.
         11    1    1    2    0    0  0.15493477361E+02  0.32667217989E+02  0.35075151481E+01  0.36324890012E+02  0.00000000000E+00 0.  1.
</event>
<event>
 7    1  0.2855090E-009  0.2518710E+03  0.7561462E-02  0.1112128E+00
          3   -1    0    0  501    0  0.00000000000E+00  0.00000000000E+00  0.75995379809E+03  0.75995379809E+03  0.00000000000E+00 0. -1.
         -3   -1    0    0    0  501 -0.00000000000E+00 -0.00000000000E+00 -0.88702741952E+02  0.88702741952E+02  0.00000000000E+00 0.  1.
         25    2    1    2    0    0  0.22853129204E+03  0.51927806080E+02  0.38663973182E+03  0.46910759917E+03  0.12509439993E+03 0.  0.
          5    1    3    3  502    0  0.79140272908E+02 -0.32816396554E+02  0.18690918271E+03  0.20565168042E+03  0.41800000000E+01 0.  1.
         -5    1    3    3    0  502  0.14939101913E+03  0.84744202634E+02  0.19973054911E+03  0.26345591875E+03  0.41800000000E+01 0.  1.
        -11    1    1    2    0    0 -0.16144200344E+03 -0.19411435790E+00  0.22060987854E+03  0.27337204806E+03  0.00000000000E+00 0. -1.
         11    1    1    2    0    0 -0.67089288600E+02 -0.51733691722E+02  0.64001445780E+02  0.10617689281E+03  0.00000000000E+00 0.  1.
</event>
<event>
 7    1  0.2855090E-009  0.1058667E+03  0.7561462E-02  0.1268421E+00
         -2   -1    0    0    0  501 -0.00000000000E+00  0.00000000000E+00  0.68819880839E+02  0.68819880839E+02  0.00000000000E+00 0. -1.
          2   -1    0    0  501    0  0.00000000000E+00 -0.00000000000E+00 -0.27695620030E+03  0.27695620030E+03  0.00000000000E+00 0.  1.
         25    2    1    2    0    0  0.18105229099E+02 -0.80105289913E+02 -0.13608384462E+03  0.20227169553E+03  0.12510143585E+03 0.  0.
          5    1    3    3  502    0  0.28730389045E+02 -0.62079984221E+02 -0.15766953891E+03  0.17192008491E+03  0.41800000000E+01 0.  1.
         -5    1    3    3    0  502 -0.10625159946E+02 -0.18025305691E+02  0.21585694290E+02  0.30351610618E+02  0.41800000000E+01 0.  1.
        -11    1    1    2    0    0 -0.34357028257E+02  0.94250511792E+02 -0.47988809495E+02  0.11120472202E+03  0.00000000000E+00 0. -1.
         11    1    1    2    0    0  0.16251799158E+02 -0.14145221880E+02 -0.24063665345E+02  0.32299663585E+02  0.00000000000E+00 0.  1.
</event>
<event>
 7    1  0.2855090E-009  0.1108385E+03  0.7561462E-02  0.1259025E+00
         -1   -1    0    0    0  501 -0.00000000000E+00  0.00000000000E+00  0.22411001824E+02  0.22411001824E+02  0.00000000000E+00 0.  1.
          1   -1    0    0  501    0  0.00000000000E+00 -0.00000000000E+00 -0.58282005575E+03  0.58282005575E+03  0.00000000000E+00 0. -1.
         25    2    1    2    0    0 -0.17126289310E+02 -0.17650000556E+02 -0.24833701680E+03  0.27912360188E+03  0.12503551059E+03 0.  0.
          5    1    3    3  502    0  0.11133885115E+02 -0.68262847997E+02 -0.13760950905E+03  0.15407020866E+03  0.41800000000E+01 0. -1.
         -5    1    3    3    0  502 -0.28260174425E+02  0.50612847441E+02 -0.11072750775E+03  0.12505339322E+03  0.41800000000E+01 0. -1.
        -11    1    1    2    0    0  0.42247076006E+02  0.41792660690E+02 -0.21040577072E+03  0.21863675417E+03  0.00000000000E+00 0. -1.
         11    1    1    2    0    0 -0.25120786696E+02 -0.24142660134E+02 -0.10166626640E+03  0.10747070153E+03  0.00000000000E+00 0.  1.
</event>
<event>
 7    1  0.2855090E-009  0.1399262E+03  0.7561462E-02  0.1213428E+00
         -2   -1    0    0    0  501 -0.00000000000E+00  0.00000000000E+00  0.49380559027E+03  0.49380559027E+03  0.00000000000E+00 0.  1.
          2   -1    0    0  501    0  0.00000000000E+00 -0.00000000000E+00 -0.64823248050E+02  0.64823248050E+02  0.00000000000E+00 0. -1.
         25    2    1    2    0    0  0.92516981332E+02  0.60256487096E+02  0.36494058379E+03  0.40126687215E+03  0.12507292640E+03 0.  0.
          5    1    3    3  502    0  0.34103922054E+02 -0.32298888443E+02  0.54488016101E+02  0.72060474553E+02  0.41800000000E+01 0. -1.
         -5    1    3    3    0  502  0.58413059278E+02  0.92555375539E+02  0.31045256769E+03  0.32920639760E+03  0.41800000000E+01 0. -1.
        -11    1    1    2    0    0 -0.56123744950E+02 -0.41289567428E+01 -0.10456087586E+02  0.57238560417E+02  0.00000000000E+00 0. -1.
         11    1    1    2    0    0 -0.36393236382E+02 -0.56127530354E+02  0.74497846011E+02  0.10012340575E+03  0.00000000000E+00 0.  1.
</event>
<event>
 7    1  0.2855090E-009  0.1004203E+03  0.7561462E-02  0.1279415E+00
         -2   -1    0    0    0  501 -0.00000000000E+00  0.00000000000E+00  0.28630422639E+02  0.28630422639E+02  0.00000000000E+00 0.  1.
          2   -1    0    0  501    0  0.00000000000E+00 -0.00000000000E+00 -0.74245931593E+03  0.74245931593E+03  0.00000000000E+00 0. -1.
         25    2    1    2    0    0  0.24892222546E+02 -0.68700263483E+02 -0.55655602645E+03  0.57510106070E+03  0.12508905026E+03 0.  0.
          5    1    3    3  502    0 -0.14516664019E+02 -0.46024734397E+02 -0.50033811829E+03  0.50267754548E+03  0.41800000000E+01 0. -1.
         -5    1    3    3    0  502  0.39408886565E+02 -0.22675529086E+02 -0.56217908159E+02  0.72423515224E+02  0.41800000000E+01 0. -1.
        -11    1    1    2    0    0 -0.13027924626E+01  0.80399560256E+02 -0.14732580082E+03  0.16784122898E+03  0.00000000000E+00 0. -1.
         11    1    1    2    0    0 -0.23589430084E+02 -0.11699296773E+02 -0.99470660224E+01  0.28147448892E+02  0.00000000000E+00 0.  1.
</event>
<event>
 7    1  0.2855090E-009  0.1118619E+03  0.7561462E-02  0.1257160E+00
          2   -1    0    0  501    0  0.00000000000E+00  0.00000000000E+00  0.78340093189E+03  0.78340093189E+03  0.00000000000E+00 0. -1.
         -2   -1    0    0    0  501 -0.00000000000E+00 -0.00000000000E+00 -0.23049947140E+02  0.23049947140E+02  0.00000000000E+00 0.  1.
         25    2    1    2    0    0 -0.20319391659E+02  0.61450138770E+02  0.55208145695E+03  0.56976568835E+03  0.12509998913E+03 0.  0.
          5    1    3    3  502    0  0.32347933189E+02  0.45706496863E+02  0.10298435699E+03  0.11729758234E+03  0.41800000000E+01 0. -1.
         -5    1    3    3    0  502 -0.52667324848E+02  0.15743641906E+02  0.44909709996E+03  0.45246810601E+03  0.41800000000E+01 0. -1.
        -11    1    1    2    0    0  0.44353085377E+02 -0.73279563822E+02  0.15850575541E+03  0.18016982310E+03  0.00000000000E+00 0.  1.
         11    1    1    2    0    0 -0.24033693718E+02  0.11829425052E+02  0.49763772390E+02  0.56515367585E+02  0.00000000000E+00 0. -1.
</event>
<event>
 7    1  0.2855090E-009  0.5968853E+02  0.7561462E-02  0.1399144E+00
          4   -1    0    0  501    0  0.00000000000E+00  0.00000000000E+00  0.16903262141E+03  0.16903262141E+03  0.00000000000E+00 0. -1.
         -4   -1    0    0    0  501 -0.00000000000E+00 -0.00000000000E+00 -0.91160535631E+02  0.91160535631E+02  0.00000000000E+00 0.  1.
         25    2    1    2    0    0 -0.54410308187E+02 -0.11043866250E+02  0.31366412862E+02  0.14040697013E+03  0.12509123385E+03 0.  0.
          5    1    3    3  502    0 -0.12239687067E+02 -0.37230645484E+01  0.76728394987E+02  0.77899872570E+02  0.41800000000E+01 0.  1.
         -5    1    3    3    0  502 -0.42170621120E+02 -0.73208017013E+01 -0.45361982125E+02  0.62507097561E+02  0.41800000000E+01 0.  1.
        -11    1    1    2    0    0  0.30029629098E+02  0.20930467170E+02 -0.24511046354E+02  0.44052859987E+02  0.00000000000E+00 0.  1.
         11    1    1    2    0    0  0.24380679089E+02 -0.98866009198E+01  0.71016719271E+02  0.75733326921E+02  0.00000000000E+00 0. -1.
</event>
<event>
 7    1  0.2855090E-009  0.1013164E+03  0.7561462E-02  0.1277552E+00
          2   -1    0    0  501    0  0.00000000000E+00  0.00000000000E+00  0.28760796277E+03  0.28760796277E+03  0.00000000000E+00 0. -1.
         -2   -1    0    0    0  501 -0.00000000000E+00 -0.00000000000E+00 -0.52316151817E+02  0.52316151817E+02  0.00000000000E+00 0.  1.
         25    2    1    2    0    0  0.33818942978E+02 -0.35576388325E+02  0.16284925147E+03  0.21113291516E+03  0.12509128206E+03 0.  0.
          5    1    3    3  502    0  0.60192351934E+02  0.26747450291E+02  0.70592796110E+02  0.96640367296E+02  0.41800000000E+01 0.  1.
         -5    1    3    3    0  502 -0.26373408956E+02 -0.62323838616E+02  0.92256455362E+02  0.11449254786E+03  0.41800000000E+01 0.  1.
        -11    1    1    2    0    0 -0.66834173604E+00  0.35672272590E+02  0.85898611126E+02  0.93013596349E+02  0.00000000000E+00 0. -1.
         11    1    1    2    0    0 -0.33150601242E+02 -0.95884265005E-01 -0.13456051644E+02  0.35777603083E+02  0.00000000000E+00 0.  1.
</event>
<event>
 7    1  0.2855090E-009  0.1232660E+03  0.7561462E-02  0.1237804E+00
          1   -1    0    0  501    0  0.00000000000E+00  0.00000000000E+00  0.96323594019E+02  0.96323594019E+02  0.00000000000E+00 0. -1.
         -1   -1    0    0    0  501 -0.00000000000E+00 -0.00000000000E+00 -0.21310919823E+03  0.21310919823E+03  0.00000000000E+00 0.  1.
         25    2    1    2    0    0 -0.82502989054E+02  0.43494610810E+02 -0.73173419863E+02  0.17233944074E+03  0.12509200249E+03 0.  0.
          5    1    3    3  502    0  0.12709989150E+02 -0.11148767647E+02 -0.59064583736E+02  0.61578700020E+02  0.41800000000E+01 0. -1.
         -5    1    3    3    0  502 -0.95212978204E+02  0.54643378456E+02 -0.14108836127E+02  0.11076074072E+03  0.41800000000E+01 0. -1.
        -11    1    1    2    0    0  0.60612963458E+02 -0.64786975166E+02 -0.55132452136E+02  0.10445511366E+03  0.00000000000E+00 0.  1.
         11    1    1    2    0    0  0.21890025596E+02  0.21292364356E+02  0.11520267786E+02  0.32638237856E+02  0.00000000000E+00 0. -1.
</event>
<event>
 7    1  0.2855090E-009  0.1254923E+03  0.7561462E-02  0.1234302E+00
          1   -1    0    0  501    0  0.00000000000E+00  0.00000000000E+00  0.19506808556E+03  0.19506808556E+03  0.00000000000E+00 0. -1.
         -1   -1    0    0    0  501 -0.00000000000E+00 -0.00000000000E+00 -0.10214393411E+03  0.10214393411E+03  0.00000000000E+00 0.  1.
         25    2    1    2    0    0 -0.68587193992E+02  0.35502379485E+02  0.10025888508E+03  0.17794524964E+03  0.12509214885E+03 0.  0.
          5    1    3    3  502    0 -0.39823693065E+02  0.80769104783E+02  0.79786276766E+02  0.12038644931E+03  0.41800000000E+01 0. -1.
         -5    1    3    3    0  502 -0.28763500928E+02 -0.45266725298E+02  0.20472608313E+02  0.57558800335E+02  0.41800000000E+01 0. -1.
        -11    1    1    2    0    0  0.72599452536E+02 -0.13086090472E+01  0.19990163086E+02  0.75312678789E+02  0.00000000000E+00 0. -1.
         11    1    1    2    0    0 -0.40122585433E+01 -0.34193770438E+02 -0.27324896717E+02  0.43954091231E+02  0.00000000000E+00 0.  1.
</event>
<event>
 7    1  0.2855090E-009  0.7744127E+02  0.7561462E-02  0.1336474E+00
         -2   -1    0    0    0  501 -0.00000000000E+00  0.00000000000E+00  0.38603344538E+02  0.38603344538E+02  0.00000000000E+00 0.  1.
          2   -1    0    0  501    0  0.00000000000E+00 -0.00000000000E+00 -0.37128022210E+03  0.37128022210E+03  0.00000000000E+00 0. -1.
         25    2    1    2    0    0 -0.27662422851E+02 -0.34484425000E+02 -0.17086887458E+03  0.21632195035E+03  0.12507849015E+03 0.  0.
          5    1    3    3  502    0  0.15911718440E+02 -0.15751638457E+02  0.13111075097E+02  0.26280593372E+02  0.41800000000E+01 0.  1.
         -5    1    3    3    0  502 -0.43574141291E+02 -0.18732786543E+02 -0.18397994967E+03  0.19004135698E+03  0.41800000000E+01 0.  1.
        -11    1    1    2    0    0  0.48083385147E+02  0.40859355629E+02 -0.52219784976E+02  0.81904852191E+02  0.00000000000E+00 0.  1.
         11    1    1    2    0    0 -0.20420962295E+02 -0.63749306290E+01 -0.10958821801E+03  0.11165676409E+03  0.00000000000E+00 0. -1.
</event>
<event>
 7    1  0.2855090E-009  0.7205574E+02  0.7561462E-02  0.1353239E+00
          2   -1    0    0  501    0  0.00000000000E+00  0.00000000000E+00  0.14718858976E+04  0.14718858976E+04  0.00000000000E+00 0. -1.
         -2   -1    0    0    0  501 -0.00000000000E+00 -0.00000000000E+00 -0.25857486970E+02  0.25857486970E+02  0.00000000000E+00 0.  1.
         25    2    1    2    0    0  0.59674604133E+01 -0.21246214989E+02  0.13749491588E+04  0.13808041636E+04  0.12509171256E+03 0.  0.
          5    1    3    3  502    0 -0.37739892822E+02 -0.57837701225E+01  0.14581099060E+03  0.15078484303E+03  0.41800000000E+01 0. -1.
         -5    1    3    3    0  502  0.43707353235E+02 -0.15462444867E+02  0.12291381682E+04  0.12300193205E+04  0.41800000000E+01 0. -1.
        -11    1    1    2    0    0  0.22462609582E+02 -0.18289293044E+01 -0.12442652325E+02  0.25743609081E+02  0.00000000000E+00 0.  1.
         11    1    1    2    0    0 -0.28430069995E+02  0.23075144294E+02  0.83521904194E+02  0.91195611979E+02  0.00000000000E+00 0. -1.
</event>
<event>
 7    1  0.2855090E-009  0.1210085E+03  0.7561462E-02  0.1241443E+00
         -4   -1    0    0    0  501 -0.00000000000E+00  0.00000000000E+00  0.25570387988E+03  0.25570387988E+03  0.00000000000E+00 0. -1.
          4   -1    0    0  501    0  0.00000000000E+00 -0.00000000000E+00 -0.85612027876E+02  0.85612027876E+02  0.00000000000E+00 0.  1.
         25    2    1    2    0    0 -0.79095244362E+02  0.59986062028E+02  0.65974981605E+02  0.17278625785E+03  0.12509199568E+03 0.  0.
          5    1    3    3  502    0 -0.25812653569E+02  0.48513078288E+02 -0.29693551249E+02  0.62601846898E+02  0.41800000000E+01 0.  1.
         -5    1    3    3    0  502 -0.53282590794E+02  0.11472983740E+02  0.95668532854E+02  0.11018441095E+03  0.41800000000E+01 0.  1.
        -11    1    1    2    0    0 -0.13585707212E+01 -0.51302498855E+02  0.35120078784E+02  0.62186912104E+02  0.00000000000E+00 0.  1.
         11    1    1    2    0    0  0.80453815083E+02 -0.86835631724E+01  0.68996791614E+02  0.10634273780E+03  0.00000000000E+00 0. -1.
</event>
<event>
 7    1  0.2855090E-009  0.1578735E+03  0.7561462E-02  0.1191119E+00
         -2   -1    0    0    0  501 -0.00000000000E+00  0.00000000000E+00  0.38260938258E+02  0.38260938258E+02  0.00000000000E+00 0.  1.
          2   -1    0    0  501    0  0.00000000000E+00 -0.00000000000E+00 -0.77600183244E+03  0.77600183244E+03  0.00000000000E+00 0. -1.
         25    2    1    2    0    0 -0.13132932680E+03  0.20917718420E+02 -0.40958090833E+03  0.44842960905E+03  0.12509057035E+03 0.  0.
          5    1    3    3  502    0 -0.14186298811E+03  0.50474502434E+02 -0.34752831376E+03  0.37876930189E+03  0.41800000000E+01 0. -1.
         -5    1    3    3    0  502  0.10533661306E+02 -0.29556784014E+02 -0.62052594566E+02  0.69660307164E+02  0.41800000000E+01 0. -1.
        -11    1    1    2    0    0  0.66490104743E+02 -0.48979890515E+01 -0.60710435199E+02  0.90170290382E+02  0.00000000000E+00 0.  1.
         11    1    1    2    0    0  0.64839222056E+02 -0.16019729368E+02 -0.26744955066E+03  0.27566287127E+03  0.00000000000E+00 0. -1.
</event>
<event>
 7    1  0.2855090E-009  0.1795475E+03  0.7561462E-02  0.1168242E+00
         -2   -1    0    0    0  501 -0.00000000000E+00  0.00000000000E+00  0.15649482021E+03  0.15649482021E+03  0.00000000000E+00 0.  1.
          2   -1    0    0  501    0  0.00000000000E+00 -0.00000000000E+00 -0.24711574345E+03  0.24711574345E+03  0.00000000000E+00 0. -1.
         25    2    1    2    0    0  0.61503474509E+02  0.13787774147E+03  0.18442268375E+02  0.19692910808E+03  0.12509199565E+03 0.  0.
          5    1    3    3  502    0  0.50076624993E+02  0.16085234889E+03  0.73934006569E+01  0.16868100453E+03  0.41800000000E+01 0.  1.
         -5    1    3    3    0  502  0.11426849515E+02 -0.22974607426E+02  0.11048867718E+02  0.28248103548E+02  0.41800000000E+01 0.  1.
        -11    1    1    2    0    0  0.10764418320E+02 -0.48293028170E+02 -0.68796362123E+02  0.84740950626E+02  0.00000000000E+00 0. -1.
         11    1    1    2    0    0 -0.72267892829E+02 -0.89584713298E+02 -0.40266829493E+02  0.12194050495E+03  0.00000000000E+00 0.  1.
</event>
<event>
 7    1  0.2855090E-009  0.8888549E+02  0.7561462E-02  0.1305573E+00
          1   -1    0    0  501    0  0.00000000000E+00  0.00000000000E+00  0.25206960188E+03  0.25206960188E+03  0.00000000000E+00 0. -1.
         -1   -1    0    0    0  501 -0.00000000000E+00 -0.00000000000E+00 -0.60989755374E+02  0.60989755374E+02  0.00000000000E+00 0.  1.
         25    2    1    2    0    0 -0.29986833824E+02 -0.34095672837E+02  0.51921842186E+02  0.14284621506E+03  0.12508972121E+03 0.  0.
          5    1    3    3  502    0  0.22856178487E+02  0.48857084977E+01 -0.29688169571E+02  0.38014929370E+02  0.41800000000E+01 0.  1.
         -5    1    3    3    0  502 -0.52843012310E+02 -0.38981381335E+02  0.81610011758E+02  0.10483128569E+03  0.41800000000E+01 0.  1.
        -11    1    1    2    0    0  0.11343425024E+02 -0.24360605408E+02  0.82247602297E+02  0.86526183730E+02  0.00000000000E+00 0. -1.
         11    1    1    2    0    0  0.18643408800E+02  0.58456278245E+02  0.56910402018E+02  0.83686958457E+02  0.00000000000E+00 0.  1.
</event>
<event>
 7    1  0.2855090E-009  0.1410600E+03  0.7561462E-02  0.1211910E+00
          3   -1    0    0  501    0  0.00000000000E+00  0.00000000000E+00  0.78236835478E+02  0.78236835478E+02  0.00000000000E+00 0. -1.
         -3   -1    0    0    0  501 -0.00000000000E+00 -0.00000000000E+00 -0.30723349739E+03  0.30723349739E+03  0.00000000000E+00 0.  1.
         25    2    1    2    0    0  0.31466221786E+02  0.93226548444E+02 -0.72011635114E+02  0.17468357150E+03  0.12508941647E+03 0.  0.
          5    1    3    3  502    0  0.68535377922E+02  0.98823101654E+02 -0.45833626275E+02  0.12876838566E+03  0.41800000000E+01 0. -1.
         -5    1    3    3    0  502 -0.37069156137E+02 -0.55965532095E+01 -0.26178008839E+02  0.45915185846E+02  0.41800000000E+01 0. -1.
        -11    1    1    2    0    0  0.25071870737E+02 -0.24308126278E+02 -0.97641144149E+02  0.10369800739E+03  0.00000000000E+00 0.  1.
         11    1    1    2    0    0 -0.56538092523E+02 -0.68918422166E+02 -0.59343882647E+02  0.10708875397E+03  0.00000000000E+00 0. -1.
</event>
<event>
 7    1  0.2855090E-009  0.1485293E+03  0.7561462E-02  0.1202292E+00
          2   -1    0    0  501    0  0.00000000000E+00  0.00000000000E+00  0.54421174001E+03  0.54421174001E+03  0.00000000000E+00 0. -1.
         -2   -1    0    0    0  501 -0.00000000000E+00 -0.00000000000E+00 -0.46064772356E+02  0.46064772356E+02  0.00000000000E+00 0.  1.
         25    2    1    2    0    0  0.38078906214E+02  0.10750587603E+03  0.29416815067E+03  0.33939521303E+03  0.12508674303E+03 0.  0.
          5    1    3    3  502    0 -0.13892055973E+02 -0.13225609203E+02  0.29384188650E+01  0.19849752225E+02  0.41800000000E+01 0. -1.
         -5    1    3    3    0  502  0.51970962187E+02  0.12073148523E+03  0.29122973181E+03  0.31954546081E+03  0.41800000000E+01 0. -1.
        -11    1    1    2    0    0  0.23979662219E+02 -0.68606813707E+02  0.96046335863E+02  0.12044425150E+03  0.00000000000E+00 0.  1.
         11    1    1    2    0    0 -0.62058568433E+02 -0.38899062322E+02  0.10793248112E+03  0.13043704783E+03  0.00000000000E+00 0. -1.
</event>
<event>
 7    1  0.2855090E-009  0.8651562E+02  0.7561462E-02  0.1311516E+00
          1   -1    0    0  501    0  0.00000000000E+00  0.00000000000E+00  0.24408640698E+02  0.24408640698E+02  0.00000000000E+00 0. -1.
         -1   -1    0    0    0  501 -0.00000000000E+00 -0.00000000000E+00 -0.56455978120E+03  0.56455978120E+03  0.00000000000E+00 0.  1.
         25    2    1    2    0    0  0.61456801778E+01  0.28146009807E+02 -0.39572220124E+03  0.41602154274E+03  0.12509155136E+03 0.  0.
          5    1    3    3  502    0  0.39408703447E+02 -0.34354413347E+02 -0.22735132014E+03  0.23332245240E+03  0.41800000000E+01 0. -1.
         -5    1    3    3    0  502 -0.33263023269E+02  0.62500423154E+02 -0.16837088110E+03  0.18269909034E+03  0.41800000000E+01 0. -1.
        -11    1    1    2    0    0  0.46351783023E+01  0.94623708778E+01  0.94614767671E+01  0.14161245819E+02  0.00000000000E+00 0. -1.
         11    1    1    2    0    0 -0.10780858480E+02 -0.37608380685E+02 -0.15389041603E+03  0.15878563333E+03  0.00000000000E+00 0.  1.
</event>
<event>
 7    1  0.2855090E-009  0.9701504E+02  0.7561462E-02  0.1286701E+00
         -2   -1    0    0    0  501 -0.00000000000E+00  0.00000000000E+00  0.24320075228E+02  0.24320075228E+02  0.00000000000E+00 0.  1.
          2   -1    0    0  501    0  0.00000000000E+00 -0.00000000000E+00 -0.55512494654E+03  0.55512494654E+03  0.00000000000E+00 0. -1.
         25    2    1    2    0    0  0.12716042951E+02  0.24258395723E+02 -0.21940802287E+03  0.25403512962E+03  0.12507517366E+03 0.  0.
          5    1    3    3  502    0 -0.38542079745E+02  0.35722595649E+02 -0.37616479289E+02  0.64761621853E+02  0.41800000000E+01 0. -1.
         -5    1    3    3    0  502  0.51258122696E+02 -0.11464199925E+02 -0.18179154359E+03  0.18927350776E+03  0.41800000000E+01 0. -1.
        -11    1    1    2    0    0 -0.25953161805E+02  0.25948534696E+02 -0.18775474782E+03  0.19130796740E+03  0.00000000000E+00 0. -1.
         11    1    1    2    0    0  0.13237118854E+02 -0.50206930419E+02 -0.12364210061E+03  0.13410192475E+03  0.00000000000E+00 0.  1.
</event>
<event>
 7    1  0.2855090E-009  0.9991973E+02  0.7561462E-02  0.1280465E+00
         -3   -1    0    0    0  501 -0.00000000000E+00  0.00000000000E+00  0.76334146414E+02  0.76334146414E+02  0.00000000000E+00 0.  1.
          3   -1    0    0  501    0  0.00000000000E+00 -0.00000000000E+00 -0.21815403386E+03  0.21815403386E+03  0.00000000000E+00 0. -1.
         25    2    1    2    0    0 -0.50984773336E+02 -0.43241445121E+02 -0.10067441691E+03  0.17393098260E+03  0.12508948317E+03 0.  0.
          5    1    3    3  502    0 -0.86529327636E+02 -0.44040554629E+02 -0.98026709356E+02  0.13803478960E+03  0.41800000000E+01 0.  1.
         -5    1    3    3    0  502  0.35544554299E+02  0.79910950840E+00 -0.26477075547E+01  0.35896192997E+02  0.41800000000E+01 0.  1.
        -11    1    1    2    0    0  0.39735843633E+02  0.33197678184E+02 -0.70549574704E+02  0.87511516939E+02  0.00000000000E+00 0. -1.
         11    1    1    2    0    0  0.11248929703E+02  0.10043766936E+02  0.29404104166E+02  0.33045680740E+02  0.00000000000E+00 0.  1.
</event>
<event>
 7    1  0.2855090E-009  0.1148921E+03  0.7561462E-02  0.1251769E+00
         -4   -1    0    0    0  501 -0.00000000000E+00  0.00000000000E+00  0.98387556670E+02  0.98387556670E+02  0.00000000000E+00 0.  1.
          4   -1    0    0  501    0  0.00000000000E+00 -0.00000000000E+00 -0.26522171085E+03  0.26522171085E+03  0.00000000000E+00 0. -1.
         25    2    1    2    0    0  0.52607767068E+02  0.65300211760E+02 -0.18545206595E+03  0.23889431359E+03  0.12508528885E+03 0.  0.
          5    1    3    3  502    0 -0.36579855470E+02  0.30139844066E+01 -0.23598743481E+02  0.43835408314E+02  0.41800000000E+01 0.  1.
         -5    1    3    3    0  502  0.89187622537E+02  0.62286227354E+02 -0.16185332247E+03  0.19505890527E+03  0.41800000000E+01 0.  1.
        -11    1    1    2    0    0 -0.16216342006E+02 -0.23567691626E+02  0.52508356394E+02  0.59795763461E+02  0.00000000000E+00 0.  1.
         11    1    1    2    0    0 -0.36391425062E+02 -0.41732520134E+02 -0.33890444625E+02  0.64919190473E+02  0.00000000000E+00 0. -1.
</event>
<event>
 7    1  0.2855090E-009  0.1026800E+03  0.7561462E-02  0.1274759E+00
         -2   -1    0    0    0  501 -0.00000000000E+00  0.00000000000E+00  0.79592663975E+02  0.79592663975E+02  0.00000000000E+00 0.  1.
          2   -1    0    0  501    0  0.00000000000E+00 -0.00000000000E+00 -0.15842857864E+03  0.15842857864E+03  0.00000000000E+00 0. -1.
         25    2    1    2    0    0  0.43426606480E+02 -0.16833826047E+01 -0.58668163458E+02  0.14484033237E+03  0.12509222417E+03 0.  0.
          5    1    3    3  502    0 -0.43051349494E+02 -0.11763183392E+02 -0.25562538106E+02  0.51601423732E+02  0.41800000000E+01 0. -1.
         -5    1    3    3    0  502  0.86477955973E+02  0.10079800787E+02 -0.33105625351E+02  0.93238908633E+02  0.41800000000E+01 0. -1.
        -11    1    1    2    0    0  0.14865009544E+02  0.25023390302E+01  0.18016887814E+02  0.23491242110E+02  0.00000000000E+00 0.  1.
         11    1    1    2    0    0 -0.58291616023E+02 -0.81895642553E+00 -0.38184639022E+02  0.69689668140E+02  0.00000000000E+00 0. -1.
</event>
<event>
 7    1  0.2855090E-009  0.1128078E+03  0.7561462E-02  0.1255457E+00
         -3   -1    0    0    0  501 -0.00000000000E+00  0.00000000000E+00  0.28978652676E+03  0.28978652676E+03  0.00000000000E+00 0.  1.
          3   -1    0    0  501    0  0.00000000000E+00 -0.00000000000E+00 -0.72946484792E+02  0.72946484792E+02  0.00000000000E+00 0. -1.
         25    2    1    2    0    0  0.25159690605E+02 -0.75713632964E+02  0.44367352900E+02  0.15486047693E+03  0.12509093118E+03 0.  0.
          5    1    3    3  502    0 -0.43439930004E+02 -0.42440264129E+02 -0.92295077054E+01  0.61569958182E+02  0.41800000000E+01 0. -1.
         -5    1    3    3    0  502  0.68599620609E+02 -0.33273368835E+02  0.53596860605E+02  0.93290518747E+02  0.41800000000E+01 0. -1.
        -11    1    1    2    0    0 -0.10776909960E+02  0.72945127800E+02  0.17764401030E+03  0.19233961592E+03  0.00000000000E+00 0.  1.
         11    1    1    2    0    0 -0.14382780645E+02  0.27685051642E+01 -0.51713212346E+01  0.15532918696E+02  0.00000000000E+00 0. -1.
</event>
<event>
 7    1  0.2855090E-009  0.9303284E+02  0.7561462E-02  0.1295669E+00
          2   -1    0    0  501    0  0.00000000000E+00  0.00000000000E+00  0.87079102247E+02  0.87079102247E+02  0.00000000000E+00 0. -1.
         -2   -1    0    0    0  501 -0.00000000000E+00 -0.00000000000E+00 -0.19460564486E+03  0.19460564486E+03  0.00000000000E+00 0.  1.
         25    2    1    2    0    0  0.45295611092E+02  0.33071747501E+02 -0.14953924278E+02  0.13789518478E+03  0.12508408878E+03 0.  0.
          5    1    3    3  502    0  0.23601075411E+02  0.48713403563E+02 -0.62743556871E+02  0.82971276814E+02  0.41800000000E+01 0. -1.
         -5    1    3    3    0  502  0.21694535680E+02 -0.15641656062E+02  0.47789632593E+02  0.54923907965E+02  0.41800000000E+01 0. -1.
        -11    1    1    2    0    0 -0.52731053912E+02 -0.58179022770E+02 -0.86667058008E+02  0.11694674720E+03  0.00000000000E+00 0.  1.
         11    1    1    2    0    0  0.74354428202E+01  0.25107275269E+02 -0.59055603311E+01  0.26842815132E+02  0.00000000000E+00 0. -1.
</event>
<event>
 7    1  0.2855090E-009  0.1306089E+03  0.7561462E-02  0.1226555E+00
          2   -1    0    0  501    0  0.00000000000E+00  0.00000000000E+00  0.69793051486E+03  0.69793051486E+03  0.00000000000E+00 0. -1.
         -2   -1    0    0    0  501 -0.00000000000E+00 -0.00000000000E+00 -0.28975708320E+02  0.28975708320E+02  0.00000000000E+00 0.  1.
         25    2    1    2    0    0  0.62306810967E+02  0.65149466600E+02  0.31985482252E+03  0.35507942797E+03  0.12509077099E+03 0.  0.
          5    1    3    3  502    0 -0.20029050615E+02  0.55100536572E+02  0.20554760558E+03  0.21378616082E+03  0.41800000000E+01 0.  1.
         -5    1    3    3    0  502  0.82335861582E+02  0.10048930029E+02  0.11430721694E+03  0.14129326715E+03  0.41800000000E+01 0.  1.
        -11    1    1    2    0    0 -0.76799148271E+02 -0.70192989040E+02  0.33570340593E+03  0.35145688447E+03  0.00000000000E+00 0.  1.
         11    1    1    2    0    0  0.14492337304E+02  0.50435224398E+01  0.13396578090E+02  0.20369910742E+02  0.00000000000E+00 0. -1.
</event>
<event>
 7    1  0.2855090E-009  0.1114302E+03  0.7561462E-02  0.1257944E+00
         -2   -1    0    0    0  501 -0.00000000000E+00  0.00000000000E+00  0.15901906168E+03  0.15901906168E+03  0.00000000000E+00 0.  1.
          2   -1    0    0  501    0  0.00000000000E+00 -0.00000000000E+00 -0.11753525660E+03  0.11753525660E+03  0.00000000000E+00 0. -1.
         25    2    1    2    0    0 -0.30956216190E+02  0.38428637559E+02  0.89958533319E+02  0.16178715592E+03  0.12508996203E+03 0.  0.
          5    1    3    3  502    0  0.31268961084E+02  0.57292353436E+02  0.64429511415E+02  0.91808474722E+02  0.41800000000E+01 0.  1.
         -5    1    3    3    0  502 -0.62225177273E+02 -0.18863715877E+02  0.25529021904E+02  0.69978681202E+02  0.41800000000E+01 0.  1.
        -11    1    1    2    0    0  0.57407930309E+02 -0.24658773568E+02 -0.56118211187E+02  0.83982017141E+02  0.00000000000E+00 0. -1.
         11    1    1    2    0    0 -0.26451714119E+02 -0.13769863991E+02  0.76434829470E+01  0.30785145212E+02  0.00000000000E+00 0.  1.
</event>
<event>
 7    1  0.2855090E-009  0.2613313E+03  0.7561462E-02  0.1106346E+00
         -2   -1    0    0    0  501 -0.00000000000E+00  0.00000000000E+00  0.11108427721E+03  0.11108427721E+03  0.00000000000E+00 0.  1.
          2   -1    0    0  501    0  0.00000000000E+00 -0.00000000000E+00 -0.71898144685E+03  0.71898144685E+03  0.00000000000E+00 0. -1.
         25    2    1    2    0    0 -0.77200697939E+02  0.23730312018E+03 -0.42048126739E+03  0.50470274375E+03  0.12509054605E+03 0.  0.
          5    1    3    3  502    0 -0.22030410688E+02  0.16045837983E+03 -0.35306565624E+03  0.38846500572E+03  0.41800000000E+01 0.  1.
         -5    1    3    3    0  502 -0.55170287251E+02  0.76844740354E+02 -0.67415611148E+02  0.11623773803E+03  0.41800000000E+01 0.  1.
        -11    1    1    2    0    0 -0.15399606022E+02 -0.94561871384E+02 -0.68788612895E+02  0.11794476949E+03  0.00000000000E+00 0.  1.
         11    1    1    2    0    0  0.92600303961E+02 -0.14274124880E+03 -0.11862728936E+03  0.20741821083E+03  0.00000000000E+00 0. -1.
</event>
<event>
 7    1  0.2855090E-009  0.1883659E+03  0.7561462E-02  0.1159943E+00
         -2   -1    0    0    0  501 -0.00000000000E+00  0.00000000000E+00  0.79405086752E+02  0.79405086752E+02  0.00000000000E+00 0. -1.
          2   -1    0    0  501    0  0.00000000000E+00 -0.00000000000E+00 -0.49549977010E+03  0.49549977010E+03  0.00000000000E+00 0.  1.
         25    2    1    2    0    0 -0.13705713172E+03 -0.87769740654E+02 -0.19578042022E+03  0.28366547361E+03  0.12509173932E+03 0.  0.
          5    1    3    3  502    0  0.16747594491E+02  0.71995523492E+01 -0.43214518998E+02  0.47088029557E+02  0.41800000000E+01 0.  1.
         -5    1    3    3    0  502 -0.15380472621E+03 -0.94969293004E+02 -0.15256590122E+03  0.23657744405E+03  0.41800000000E+01 0.  1.
        -11    1    1    2    0    0  0.44009908911E+02 -0.68193344199E+01 -0.11004938565E+03  0.11871917573E+03  0.00000000000E+00 0.  1.
         11    1    1    2    0    0  0.93047222804E+02  0.94589075074E+02 -0.11026487747E+03  0.17252020751E+03  0.00000000000E+00 0. -1.
</event>
<event>
 7    1  0.2855090E-009  0.9500496E+02  0.7561462E-02  0.1291165E+00
          1   -1    0    0  501    0  0.00000000000E+00  0.00000000000E+00  0.74222752760E+03  0.74222752760E+03  0.00000000000E+00 0. -1.
         -1   -1    0    0    0  501 -0.00000000000E+00 -0.00000000000E+00 -0.20348916507E+02  0.20348916507E+02  0.00000000000E+00 0.  1.
         25    2    1    2    0    0  0.11892256390E+02  0.22181691305E+02  0.57067309212E+03  0.58476372567E+03  0.12508950234E+03 0.  0.
          5    1    3    3  502    0  0.97739127735E+01 -0.51352938171E+02  0.28203170227E+03  0.28686583470E+03  0.41800000000E+01 0. -1.
         -5    1    3    3    0  502  0.21183436161E+01  0.73534629476E+02  0.28864138985E+03  0.29789789097E+03  0.41800000000E+01 0. -1.
        -11    1    1    2    0    0 -0.25422513871E+02  0.11263631270E+02  0.63366393060E+01  0.28518881440E+02  0.00000000000E+00 0.  1.
         11    1    1    2    0    0  0.13530257481E+02 -0.33445322575E+02  0.14486887967E+03  0.14929383700E+03  0.00000000000E+00 0. -1.
</event>
<event>
 7    1  0.2855090E-009  0.1119677E+03  0.7561462E-02  0.1256969E+00
          2   -1    0    0  501    0  0.00000000000E+00  0.00000000000E+00  0.82845061742E+03  0.82845061742E+03  0.00000000000E+00 0. -1.
         -2   -1    0    0    0  501 -0.00000000000E+00 -0.00000000000E+00 -0.18232798696E+02  0.18232798696E+02  0.00000000000E+00 0.  1.
         25    2    1    2    0    0  0.19152516141E+02  0.51801158306E+02  0.47309164241E+03  0.49245544731E+03  0.12508591684E+03 0.  0.
          5    1    3    3  502    0 -0.42286466942E+02  0.17228159077E+02  0.32689205912E+03  0.33009217723E+03  0.41800000000E+01 0.  1.
         -5    1    3    3    0  502  0.61438983083E+02  0.34572999229E+02  0.14619958329E+03  0.16236327008E+03  0.41800000000E+01 0.  1.
        -11    1    1    2    0    0 -0.50821296094E+02 -0.55875866345E+02  0.21059056765E+03  0.22372595683E+03  0.00000000000E+00 0.  1.
         11    1    1    2    0    0  0.31668779953E+02  0.40747080394E+01  0.12653560866E+03  0.13050201197E+03  0.00000000000E+00 0. -1.
</event>
<event>
 7    1  0.2855090E-009  0.1701366E+03  0.7561462E-02  0.1177705E+00
         -2   -1    0    0    0  501 -0.00000000000E+00  0.00000000000E+00  0.51221212201E+03  0.51221212201E+03  0.00000000000E+00 0.  1.
          2   -1    0    0  501    0  0.00000000000E+00 -0.00000000000E+00 -0.14779728772E+03  0.14779728772E+03  0.00000000000E+00 0. -1.
         25    2    1    2    0    0  0.11307984072E+03  0.98186059322E+02 -0.56864328826E+02  0.20324405537E+03  0.12508813504E+03 0.  0.
          5    1    3    3  502    0  0.43645166868E+02 -0.21415743837E+01  0.30211802905E+02  0.53288951636E+02  0.41800000000E+01 0.  1.
         -5    1    3    3    0  502  0.69434673851E+02  0.10032763371E+03 -0.87076131730E+02  0.14995510373E+03  0.41800000000E+01 0.  1.
        -11    1    1    2    0    0 -0.59525957294E+02  0.32213871671E+01  0.18009620165E+03  0.18970597981E+03  0.00000000000E+00 0. -1.
         11    1    1    2    0    0 -0.53553883425E+02 -0.10140744649E+03  0.24118296147E+03  0.26705937455E+03  0.00000000000E+00 0.  1.
</event>
<event>
 7    1  0.2855090E-009  0.1696264E+03  0.7561462E-02  0.1178238E+00
          3   -1    0    0  501    0  0.00000000000E+00  0.00000000000E+00  0.17521902572E+03  0.17521902572E+03  0.00000000000E+00 0. -1.
         -3   -1    0    0    0  501 -0.00000000000E+00 -0.00000000000E+00 -0.23489432976E+03  0.23489432976E+03  0.00000000000E+00 0.  1.
         25    2    1    2    0    0 -0.10402227102E+03 -0.11983269886E+03  0.33036552260E+02  0.20474183403E+03  0.12508915314E+03 0.  0.
          5    1    3    3  502    0 -0.72623721598E+02 -0.84274632379E+02  0.80595945810E+02  0.13743943205E+03  0.41800000000E+01 0. -1.
         -5    1    3    3    0  502 -0.31398549420E+02 -0.35558066483E+02 -0.47559393550E+02  0.67302401982E+02  0.41800000000E+01 0. -1.
        -11    1    1    2    0    0  0.46922565847E+02 -0.70335815607E+00 -0.86608369325E+01  0.47720351997E+02  0.00000000000E+00 0.  1.
         11    1    1    2    0    0  0.57099705171E+02  0.12053605702E+03 -0.84051019370E+02  0.15765116945E+03  0.00000000000E+00 0. -1.
</event>
<event>
 7    1  0.3749703E-009  0.1295909E+03  0.7561462E-02  0.1228064E+00
         -1   -1    0    0    0  501 -0.00000000000E+00  0.00000000000E+00  0.20426463821E+03  0.20426463821E+03  0.00000000000E+00 0.  1.
          1   -1    0    0  501    0  0.00000000000E+00 -0.00000000000E+00 -0.96376938345E+02  0.96376938345E+02  0.00000000000E+00 0. -1.
         25    2    1    2    0    0 -0.75455834999E+02  0.42383867818E+02  0.36805909963E+02  0.15649966525E+03  0.12508994736E+03 0.  0.
          5    1    3    3  502    0 -0.66051331865E+02  0.74740215757E+02 -0.81485184543E+01  0.10016361138E+03  0.41800000000E+01 0. -1.
         -5    1    3    3    0  502 -0.94045031341E+01 -0.32356347939E+02  0.44954428417E+02  0.56336053869E+02  0.41800000000E+01 0. -1.
        -11    1    1    2    0    0  0.28091851233E+02 -0.66540931249E+02  0.40930844794E+02  0.83019164611E+02  0.00000000000E+00 0.  1.
         11    1    1    2    0    0  0.47363983766E+02  0.24157063431E+02  0.30150945105E+02  0.61122746687E+02  0.00000000000E+00 0. -1.
</event>
<event>
 7    1  0.2855090E-009  0.1745927E+03  0.7561462E-02  0.1173141E+00
          1   -1    0    0  501    0  0.00000000000E+00  0.00000000000E+00  0.49962772792E+03  0.49962772792E+03  0.00000000000E+00 0. -1.
         -1   -1    0    0    0  501 -0.00000000000E+00 -0.00000000000E+00 -0.13306738680E+03  0.13306738680E+03  0.00000000000E+00 0.  1.
         25    2    1    2    0    0 -0.11871784441E+03  0.96519553980E+02 -0.29063480564E+02  0.19975524723E+03  0.12509005561E+03 0.  0.
          5    1    3    3  502    0  0.18653417935E+02  0.44846439633E+02  0.50650786044E+01  0.49013065296E+02  0.41800000000E+01 0.  1.
         -5    1    3    3    0  502 -0.13737126234E+03  0.51673114347E+02 -0.34128559169E+02  0.15074218194E+03  0.41800000000E+01 0.  1.
        -11    1    1    2    0    0  0.32631809056E+02 -0.34633134533E+02  0.23974790007E+03  0.24442451710E+03  0.00000000000E+00 0. -1.
         11    1    1    2    0    0  0.86086035353E+02 -0.61886419447E+02  0.15587592161E+03  0.18851535039E+03  0.00000000000E+00 0.  1.
</event>
<event>
 7    1  0.2855090E-009  0.1195448E+03  0.7561462E-02  0.1243850E+00
         -2   -1    0    0    0  501 -0.00000000000E+00  0.00000000000E+00  0.46600912038E+02  0.46600912038E+02  0.00000000000E+00 0.  1.
          2   -1    0    0  501    0  0.00000000000E+00 -0.00000000000E+00 -0.40437632729E+03  0.40437632729E+03  0.00000000000E+00 0. -1.
         25    2    1    2    0    0 -0.17884294953E+02  0.78561994457E+02 -0.16306583767E+03  0.22074521437E+03  0.12508456048E+03 0.  0.
          5    1    3    3  502    0 -0.48102838206E+02 -0.27925269574E+01 -0.17913782204E+02  0.51575742778E+02  0.41800000000E+01 0.  1.
         -5    1    3    3    0  502  0.30218543253E+02  0.81354521415E+02 -0.14515205547E+03  0.16916947159E+03  0.41800000000E+01 0.  1.
        -11    1    1    2    0    0 -0.23728955023E+02 -0.42943694607E+02 -0.15499260660E+03  0.16257285233E+03  0.00000000000E+00 0. -1.
         11    1    1    2    0    0  0.41613249975E+02 -0.35618299851E+02 -0.39716970980E+02  0.67659172635E+02  0.00000000000E+00 0.  1.
</event>
<event>
 7    1  0.2855090E-009  0.1147085E+03  0.7561462E-02  0.1252091E+00
         -4   -1    0    0    0  501 -0.00000000000E+00  0.00000000000E+00  0.59432998009E+02  0.59432998009E+02  0.00000000000E+00 0.  1.
          4   -1    0    0  501    0  0.00000000000E+00 -0.00000000000E+00 -0.39532694525E+03  0.39532694525E+03  0.00000000000E+00 0. -1.
         25    2    1    2    0    0  0.19280571692E+01  0.39928011971E+02 -0.32086185491E+02  0.13518620945E+03  0.12509126421E+03 0.  0.
          5    1    3    3  502    0 -0.61231301584E+02  0.16016800824E+02 -0.11525251698E+02  0.64467930237E+02  0.41800000000E+01 0. -1.
         -5    1    3    3    0  502  0.63159358753E+02  0.23911211147E+02 -0.20560933793E+02  0.70718279214E+02  0.41800000000E+01 0. -1.
        -11    1    1    2    0    0 -0.37810118097E+02 -0.48437104921E+02 -0.16945857722E+03  0.18025528441E+03  0.00000000000E+00 0.  1.
         11    1    1    2    0    0  0.35882060928E+02  0.85090929500E+01 -0.13434918453E+03  0.13931844940E+03  0.00000000000E+00 0. -1.
</event>
<event>
 7    1  0.2855090E-009  0.1097602E+03  0.7561462E-02  0.1261015E+00
         -2   -1    0    0    0  501 -0.00000000000E+00  0.00000000000E+00  0.29974394129E+02  0.29974394129E+02  0.00000000000E+00 0.  1.
          2   -1    0    0  501    0  0.00000000000E+00 -0.00000000000E+00 -0.68049197657E+03  0.68049197657E+03  0.00000000000E+00 0. -1.
         25    2    1    2    0    0  0.89520933414E+02 -0.20987423158E+02 -0.38275663164E+03  0.41304290833E+03  0.12508931053E+03 0.  0.
          5    1    3    3  502    0  0.43329376139E+02  0.34092677663E+02 -0.56956849464E+02  0.79380731968E+02  0.41800000000E+01 0. -1.
         -5    1    3    3    0  502  0.46191557276E+02 -0.55080100822E+02 -0.32579978218E+03  0.33366217636E+03  0.41800000000E+01 0. -1.
        -11    1    1    2    0    0 -0.60520970357E+02  0.17577311590E+02 -0.25954934397E+03  0.26709101761E+03  0.00000000000E+00 0. -1.
         11    1    1    2    0    0 -0.28999963058E+02  0.34101115680E+01 -0.82116068409E+01  0.30332444761E+02  0.00000000000E+00 0.  1.
</event>
<event>
 7    1  0.3559187E-009  0.9487577E+02  0.7561462E-02  0.1291456E+00
         -2   -1    0    0    0  501 -0.00000000000E+00  0.00000000000E+00  0.76579208285E+02  0.76579208285E+02  0.00000000000E+00 0.  1.
          2   -1    0    0  501    0  0.00000000000E+00 -0.00000000000E+00 -0.18731080458E+03  0.18731080458E+03  0.00000000000E+00 0. -1.
         25    2    1    2    0    0 -0.81534798686E+01  0.49632861463E+02 -0.75526538474E+02  0.15453292552E+03  0.12508503861E+03 0.  0.
          5    1    3    3  502    0  0.38405003695E+02 -0.25071553497E+02 -0.18889415685E+02  0.49777600670E+02  0.41800000000E+01 0.  1.
         -5    1    3    3    0  502 -0.46558483563E+02  0.74704414959E+02 -0.56637122789E+02  0.10475532485E+03  0.41800000000E+01 0.  1.
        -11    1    1    2    0    0  0.16575452254E+02 -0.33133382529E+02  0.26097217975E+02  0.45317010507E+02  0.00000000000E+00 0.  1.
         11    1    1    2    0    0 -0.84219723857E+01 -0.16499478934E+02 -0.61302275793E+02  0.64040076838E+02  0.00000000000E+00 0. -1.
</event>
<event>
 7    1  0.2855090E-009  0.1301023E+03  0.7561462E-02  0.1227304E+00
         -2   -1    0    0    0  501 -0.00000000000E+00  0.00000000000E+00  0.20521885967E+02  0.20521885967E+02  0.00000000000E+00 0.  1.
          2   -1    0    0  501    0  0.00000000000E+00 -0.00000000000E+00 -0.37417730387E+04  0.37417730387E+04  0.00000000000E+00 0. -1.
         25    2    1    2    0    0 -0.88642999004E+02 -0.65712840508E+01 -0.35190099317E+04  0.35223542842E+04  0.12509213079E+03 0.  0.
          5    1    3    3  502    0  0.21016764375E+02 -0.66561753247E+00 -0.16357629061E+04  0.16359033911E+04  0.41800000000E+01 0.  1.
         -5    1    3    3    0  502 -0.10965976338E+03 -0.59056665183E+01 -0.18832470256E+04  0.18864508932E+04  0.41800000000E+01 0.  1.
        -11    1    1    2    0    0  0.95716865783E+02 -0.23017153363E+02 -0.16056922279E+03  0.18834538235E+03  0.00000000000E+00 0. -1.
         11    1    1    2    0    0 -0.70738667787E+01  0.29588437414E+02 -0.41671998244E+02  0.51595258091E+02  0.00000000000E+00 0.  1.
</event>
<event>
 7    1  0.2855090E-009  0.9395754E+02  0.7561462E-02  0.1293541E+00
          1   -1    0    0  501    0  0.00000000000E+00  0.00000000000E+00  0.10113857424E+03  0.10113857424E+03  0.00000000000E+00 0. -1.
         -1   -1    0    0    0  501 -0.00000000000E+00 -0.00000000000E+00 -0.28118126500E+03  0.28118126500E+03  0.00000000000E+00 0.  1.
         25    2    1    2    0    0 -0.77035614526E+02 -0.62128587647E+00  0.21534934257E+02  0.14847934514E+03  0.12508993021E+03 0.  0.
          5    1    3    3  502    0 -0.28312612438E+02 -0.18602217114E+02 -0.49657447539E+02  0.60257621931E+02  0.41800000000E+01 0.  1.
         -5    1    3    3    0  502 -0.48723002088E+02  0.17980931238E+02  0.71192381796E+02  0.88221723212E+02  0.41800000000E+01 0.  1.
        -11    1    1    2    0    0  0.35404932470E+02 -0.32821955657E+02 -0.15707694701E+03  0.16432880849E+03  0.00000000000E+00 0.  1.
         11    1    1    2    0    0  0.41630682056E+02  0.33443241534E+02 -0.44500678007E+02  0.69511685606E+02  0.00000000000E+00 0. -1.
</event>
<event>
 7    1  0.2855090E-009  0.1509575E+03  0.7561462E-02  0.1199301E+00
         -4   -1    0    0    0  501 -0.00000000000E+00  0.00000000000E+00  0.81085349388E+02  0.81085349388E+02  0.00000000000E+00 0.  1.
          4   -1    0    0  501    0  0.00000000000E+00 -0.00000000000E+00 -0.38500572540E+03  0.38500572540E+03  0.00000000000E+00 0. -1.
         25    2    1    2    0    0 -0.95791295297E+02  0.97967501630E+02 -0.12656023812E+03  0.22458612974E+03  0.12509129533E+03 0.  0.
          5    1    3    3  502    0 -0.71181281677E+01  0.71648792614E+02 -0.10844730684E+03  0.13024019346E+03  0.41800000000E+01 0. -1.
         -5    1    3    3    0  502 -0.88673167130E+02  0.26318709017E+02 -0.18112931279E+02  0.94345936280E+02  0.41800000000E+01 0. -1.
        -11    1    1    2    0    0  0.36191230584E+02 -0.32152096606E+02 -0.13442845125E+03  0.14287956814E+03  0.00000000000E+00 0. -1.
         11    1    1    2    0    0  0.59600064713E+02 -0.65815405025E+02 -0.42931686651E+02  0.98625376912E+02  0.00000000000E+00 0.  1.
</event>
<event>
 7    1  0.2855090E-009  0.1033296E+03  0.7561462E-02  0.1273446E+00
          1   -1    0    0  501    0  0.00000000000E+00  0.00000000000E+00  0.54671872600E+02  0.54671872600E+02  0.00000000000E+00 0. -1.
         -1   -1    0    0    0  501 -0.00000000000E+00 -0.00000000000E+00 -0.33239310021E+03  0.33239310021E+03  0.00000000000E+00 0.  1.
         25    2    1    2    0    0  0.56014815939E+02 -0.60072285352E+02 -0.15955714932E+03  0.21875141165E+03  0.12508939656E+03 0.  0.
          5    1    3    3  502    0  0.70149878624E+02 -0.45795042237E+02 -0.32352085946E+02  0.89901730959E+02  0.41800000000E+01 0.  1.
         -5    1    3    3    0  502 -0.14135062685E+02 -0.14277243115E+02 -0.12720506337E+03  0.12884968069E+03  0.41800000000E+01 0.  1.
        -11    1    1    2    0    0 -0.18692144204E+02  0.62129018907E+02 -0.27916114855E+02  0.70630876491E+02  0.00000000000E+00 0. -1.
         11    1    1    2    0    0 -0.37322671735E+02 -0.20567335548E+01 -0.90247963435E+02  0.97682684661E+02  0.00000000000E+00 0.  1.
</event>
<event>
 7    1  0.2855090E-009  0.1517495E+03  0.7561462E-02  0.1198340E+00
          2   -1    0    0  501    0  0.00000000000E+00  0.00000000000E+00  0.93195957197E+03  0.93195957197E+03  0.00000000000E+00 0. -1.
         -2   -1    0    0    0  501 -0.00000000000E+00 -0.00000000000E+00 -0.27489753952E+02  0.27489753952E+02  0.00000000000E+00 0.  1.
         25    2    1    2    0    0  0.33954563041E+01  0.11630217062E+03  0.52650390107E+03  0.55352677360E+03  0.12509119568E+03 0.  0.
          5    1    3    3  502    0  0.37515577433E+02  0.12856703031E+03  0.39872479627E+03  0.42063741559E+03  0.41800000000E+01 0. -1.
         -5    1    3    3    0  502 -0.34120121129E+02 -0.12264859692E+02  0.12777910480E+03  0.13288935801E+03  0.41800000000E+01 0. -1.
        -11    1    1    2    0    0  0.28415482842E+02 -0.79154599053E+02  0.14279922790E+03  0.16572419771E+03  0.00000000000E+00 0.  1.
         11    1    1    2    0    0 -0.31810939146E+02 -0.37147571564E+02  0.23516668904E+03  0.24019835461E+03  0.00000000000E+00 0. -1.
</event>
<event>
 7    1  0.2855090E-009  0.1376777E+03  0.7561462E-02  0.1216488E+00
          2   -1    0    0  501    0  0.00000000000E+00  0.00000000000E+00  0.21893500690E+03  0.21893500690E+03  0.00000000000E+00 0. -1.
         -2   -1    0    0    0  501 -0.00000000000E+00 -0.00000000000E+00 -0.14739677975E+03  0.14739677975E+03  0.00000000000E+00 0.  1.
         25    2    1    2    0    0  0.51613959643E+02 -0.94696602722E+02  0.15190054009E+03  0.22439491666E+03  0.12509139516E+03 0.  0.
          5    1    3    3  502    0 -0.35563091314E+02 -0.72295809791E+01  0.60605251878E+02  0.70763474053E+02  0.41800000000E+01 0.  1.
         -5    1    3    3    0  502  0.87177050957E+02 -0.87467021743E+02  0.91295288213E+02  0.15363144260E+03  0.41800000000E+01 0.  1.
        -11    1    1    2    0    0 -0.34257856496E+02  0.91381759819E+02 -0.58333822206E+02  0.11369723643E+03  0.00000000000E+00 0. -1.
         11    1    1    2    0    0 -0.17356103147E+02  0.33148429035E+01 -0.22028490728E+02  0.28239633561E+02  0.00000000000E+00 0.  1.
</event>
<event>
 7    1  0.2855090E-009  0.1006019E+03  0.7561462E-02  0.1279035E+00
          4   -1    0    0  501    0  0.00000000000E+00  0.00000000000E+00  0.10170626760E+03  0.10170626760E+03  0.00000000000E+00 0. -1.
         -4   -1    0    0    0  501 -0.00000000000E+00 -0.00000000000E+00 -0.11594622904E+03  0.11594622904E+03  0.00000000000E+00 0.  1.
         25    2    1    2    0    0 -0.31647783217E+00  0.70442761169E+01 -0.29627670389E+01  0.12532336528E+03  0.12508975142E+03 0.  0.
          5    1    3    3  502    0 -0.54845674450E+02  0.18556726253E+02 -0.27561909219E+02  0.64261429605E+02  0.41800000000E+01 0.  1.
         -5    1    3    3    0  502  0.54529196618E+02 -0.11512450136E+02  0.24599142180E+02  0.61061935671E+02  0.41800000000E+01 0.  1.
        -11    1    1    2    0    0  0.14397976236E+02  0.37700931823E+02  0.87991486592E+01  0.41304805982E+02  0.00000000000E+00 0. -1.
         11    1    1    2    0    0 -0.14081498404E+02 -0.44745207940E+02 -0.20076343060E+02  0.51024325391E+02  0.00000000000E+00 0.  1.
</event>
<event>
 7    1  0.2936200E-009  0.1456130E+03  0.7561462E-02  0.1205970E+00
          3   -1    0    0  501    0  0.00000000000E+00  0.00000000000E+00  0.89869040187E+02  0.89869040187E+02  0.00000000000E+00 0. -1.
         -3   -1    0    0    0  501 -0.00000000000E+00 -0.00000000000E+00 -0.29500033256E+03  0.29500033256E+03  0.00000000000E+00 0.  1.
         25    2    1    2    0    0 -0.11166704828E+03  0.39308785379E+02 -0.13817199281E+03  0.22080005384E+03  0.12508578617E+03 0.  0.
          5    1    3    3  502    0  0.24360475330E+02  0.24826549301E+02 -0.33841014189E+02  0.48708078898E+02  0.41800000000E+01 0. -1.
         -5    1    3    3    0  502 -0.13602752361E+03  0.14482236078E+02 -0.10433097862E+03  0.17209197495E+03  0.41800000000E+01 0. -1.
        -11    1    1    2    0    0  0.43802782256E+02 -0.23268497270E+02 -0.79023187710E+02  0.93299361704E+02  0.00000000000E+00 0.  1.
         11    1    1    2    0    0  0.67864266020E+02 -0.16040288110E+02  0.12063888147E+02  0.70769957202E+02  0.00000000000E+00 0. -1.
</event>
<event>
 7    1  0.2855090E-009  0.4755359E+03  0.7561462E-02  0.1020369E+00
          1   -1    0    0  501    0  0.00000000000E+00  0.00000000000E+00  0.12668495127E+04  0.12668495127E+04  0.00000000000E+00 0. -1.
         -1   -1    0    0    0  501 -0.00000000000E+00 -0.00000000000E+00 -0.27921719187E+03  0.27921719187E+03  0.00000000000E+00 0.  1.
         25    2    1    2    0    0  0.33658350213E+03 -0.32584398806E+03  0.42267888383E+02  0.48672074189E+03  0.12509095786E+03 0.  0.
          5    1    3    3  502    0  0.25654020672E+03 -0.30440731069E+03  0.57869335704E+02  0.40229717981E+03  0.41800000000E+01 0.  1.
         -5    1    3    3    0  502  0.80043295409E+02 -0.21436677371E+02 -0.15601447321E+02  0.84423562085E+02  0.41800000000E+01 0.  1.
        -11    1    1    2    0    0 -0.24943176437E+03  0.26350163984E+03  0.80293757987E+03  0.88111184105E+03  0.00000000000E+00 0. -1.
         11    1    1    2    0    0 -0.87151737754E+02  0.62342348229E+02  0.14242685256E+03  0.17823412161E+03  0.00000000000E+00 0.  1.
</event>
<event>
 7    1  0.2855090E-009  0.1198136E+03  0.7561462E-02  0.1243405E+00
         -2   -1    0    0    0  501 -0.00000000000E+00  0.00000000000E+00  0.77375197763E+02  0.77375197763E+02  0.00000000000E+00 0.  1.
          2   -1    0    0  501    0  0.00000000000E+00 -0.00000000000E+00 -0.24431246703E+03  0.24431246703E+03  0.00000000000E+00 0. -1.
         25    2    1    2    0    0 -0.43655239419E+02  0.44297593272E+02 -0.21609207845E+02  0.14135950102E+03  0.12508994351E+03 0.  0.
          5    1    3    3  502    0 -0.61017388138E+02  0.78398448353E+02 -0.25553545404E+02  0.10266398805E+03  0.41800000000E+01 0. -1.
         -5    1    3    3    0  502  0.17362148719E+02 -0.34100855082E+02  0.39443375582E+01  0.38695512973E+02  0.41800000000E+01 0. -1.
        -11    1    1    2    0    0 -0.23012172437E+02 -0.28228596608E+01 -0.13329569429E+02  0.26743336331E+02  0.00000000000E+00 0.  1.
         11    1    1    2    0    0  0.66667411856E+02 -0.41474733611E+02 -0.13199849199E+03  0.15358482744E+03  0.00000000000E+00 0. -1.
</event>
<event>
 7    1  0.2855090E-009  0.1067644E+03  0.7561462E-02  0.1266682E+00
          2   -1    0    0  501    0  0.00000000000E+00  0.00000000000E+00  0.47216267539E+03  0.47216267539E+03  0.00000000000E+00 0. -1.
         -2   -1    0    0    0  501 -0.00000000000E+00 -0.00000000000E+00 -0.27104564348E+02  0.27104564348E+02  0.00000000000E+00 0.  1.
         25    2    1    2    0    0 -0.38832679852E+01 -0.11224790724E+02  0.23577736262E+03  0.26716971201E+03  0.12509042568E+03 0.  0.
          5    1    3    3  502    0  0.50738949688E+02  0.27911514085E+02  0.11790478456E+03  0.13142489968E+03  0.41800000000E+01 0.  1.
         -5    1    3    3    0  502 -0.54622217673E+02 -0.39136304808E+02  0.11787257806E+03  0.13574481233E+03  0.41800000000E+01 0.  1.
        -11    1    1    2    0    0  0.44115152709E+02  0.17434175798E+02  0.16615430873E+03  0.17279279931E+03  0.00000000000E+00 0. -1.
         11    1    1    2    0    0 -0.40231884724E+02 -0.62093850748E+01  0.43126439696E+02  0.59304728414E+02  0.00000000000E+00 0.  1.
</event>
<event>
 7    1  0.2855090E-009  0.1194606E+03  0.7561462E-02  0.1243990E+00
         -2   -1    0    0    0  501 -0.00000000000E+00  0.00000000000E+00  0.45586258971E+02  0.45586258971E+02  0.00000000000E+00 0.  1.
          2   -1    0    0  501    0  0.00000000000E+00 -0.00000000000E+00 -0.38329833422E+03  0.38329833422E+03  0.00000000000E+00 0. -1.
         25    2    1    2    0    0  0.25390692811E+02  0.77211824222E+02 -0.24937980206E+03  0.29058870188E+03  0.12508059362E+03 0.  0.
          5    1    3    3  502    0  0.10508217277E+02 -0.31376428048E+02 -0.98938373113E+02  0.10440870146E+03  0.41800000000E+01 0.  1.
         -5    1    3    3    0  502  0.14882475535E+02  0.10858825227E+03 -0.15044142895E+03  0.18618000041E+03  0.41800000000E+01 0.  1.
        -11    1    1    2    0    0 -0.40242047512E+02 -0.44719153692E+02 -0.24121740438E+02  0.64815765494E+02  0.00000000000E+00 0. -1.
         11    1    1    2    0    0  0.14851354701E+02 -0.32492670531E+02 -0.64210532745E+02  0.73480125817E+02  0.00000000000E+00 0.  1.
</event>
<event>
 7    1  0.2855090E-009  0.1931463E+03  0.7561462E-02  0.1155654E+00
         -1   -1    0    0    0  501 -0.00000000000E+00  0.00000000000E+00  0.97135029548E+02  0.97135029548E+02  0.00000000000E+00 0.  1.
          1   -1    0    0  501    0  0.00000000000E+00 -0.00000000000E+00 -0.63222841216E+03  0.63222841216E+03  0.00000000000E+00 0. -1.
         25    2    1    2    0    0  0.14587815547E+03  0.76723794735E+02 -0.49601698946E+03  0.53744545652E+03  0.12509111872E+03 0.  0.
          5    1    3    3  502    0  0.14951976948E+03  0.98788153105E+02 -0.39307155101E+03  0.43201617709E+03  0.41800000000E+01 0. -1.
         -5    1    3    3    0  502 -0.36416140084E+01 -0.22064358369E+02 -0.10294543845E+03  0.10542927943E+03  0.41800000000E+01 0. -1.
        -11    1    1    2    0    0 -0.13926665922E+02 -0.47011553899E+02  0.58907211740E+01  0.49383588566E+02  0.00000000000E+00 0.  1.
         11    1    1    2    0    0 -0.13195148954E+03 -0.29712240836E+02 -0.44967114323E+02  0.14253439662E+03  0.00000000000E+00 0. -1.
</event>
<event>
 7    1  0.2855090E-009  0.1056796E+03  0.7561462E-02  0.1268786E+00
         -1   -1    0    0    0  501 -0.00000000000E+00  0.00000000000E+00  0.66998765020E+03  0.66998765020E+03  0.00000000000E+00 0.  1.
          1   -1    0    0  501    0  0.00000000000E+00 -0.00000000000E+00 -0.30343010984E+02  0.30343010984E+02  0.00000000000E+00 0. -1.
         25    2    1    2    0    0  0.82110176155E+02 -0.33242501304E+02  0.40637601986E+03  0.43432306908E+03  0.12509162202E+03 0.  0.
          5    1    3    3  502    0  0.15968548956E+02 -0.20544336736E+01  0.32265780663E+03  0.32308628543E+03  0.41800000000E+01 0. -1.
         -5    1    3    3    0  502  0.66141627199E+02 -0.31188067630E+02  0.83718213224E+02  0.11123678365E+03  0.41800000000E+01 0. -1.
        -11    1    1    2    0    0 -0.12506175727E+02 -0.26788815366E+02  0.98784171228E+02  0.10311332380E+03  0.00000000000E+00 0.  1.
         11    1    1    2    0    0 -0.69604000428E+02  0.60031316669E+02  0.13448444813E+03  0.16289426830E+03  0.00000000000E+00 0. -1.
</event>
<event>
 7    1  0.2855090E-009  0.8950174E+02  0.7561462E-02  0.1304063E+00
         -1   -1    0    0    0  501 -0.00000000000E+00  0.00000000000E+00  0.54927087701E+02  0.54927087701E+02  0.00000000000E+00 0. -1.
          1   -1    0    0  501    0  0.00000000000E+00 -0.00000000000E+00 -0.38231444024E+03  0.38231444024E+03  0.00000000000E+00 0.  1.
         25    2    1    2    0    0 -0.51815617049E+02  0.14712699475E+01 -0.29830032222E+03  0.32759339367E+03  0.12508927425E+03 0.  0.
          5    1    3    3  502    0 -0.62837676308E+02 -0.12517529969E+02 -0.30215204128E+03  0.30889899736E+03  0.41800000000E+01 0. -1.
         -5    1    3    3    0  502  0.11022059259E+02  0.13988799917E+02  0.38517190636E+01  0.18694396304E+02  0.41800000000E+01 0. -1.
        -11    1    1    2    0    0 -0.11761860378E+02 -0.25858154919E+02 -0.30312220233E+02  0.41542944417E+02  0.00000000000E+00 0.  1.
         11    1    1    2    0    0  0.63577477427E+02  0.24386884972E+02  0.12251899169E+01  0.68105189853E+02  0.00000000000E+00 0. -1.
</event>
<event>
 7    1  0.2855090E-009  0.1163151E+03  0.7561462E-02  0.1249303E+00
          2   -1    0    0  501    0  0.00000000000E+00  0.00000000000E+00  0.20227427824E+03  0.20227427824E+03  0.00000000000E+00 0. -1.
         -2   -1    0    0    0  501 -0.00000000000E+00 -0.00000000000E+00 -0.12090290012E+03  0.12090290012E+03  0.00000000000E+00 0.  1.
         25    2    1    2    0    0 -0.61954449547E+02  0.80804197445E+02 -0.63840175419E+01  0.16141727481E+03  0.12508840388E+03 0.  0.
          5    1    3    3  502    0 -0.59608144998E+02  0.73656907314E+02  0.48038463812E+02  0.10631856541E+03  0.41800000000E+01 0.  1.
         -5    1    3    3    0  502 -0.23463045493E+01  0.71472901317E+01 -0.54422481354E+02  0.55098709404E+02  0.41800000000E+01 0.  1.
        -11    1    1    2    0    0 -0.16497809002E+02 -0.34085030822E+02  0.50551571520E+02  0.63161922162E+02  0.00000000000E+00 0. -1.
         11    1    1    2    0    0  0.78452258550E+02 -0.46719166623E+02  0.37203824139E+02  0.98597981379E+02  0.00000000000E+00 0.  1.
</event>
<event>
 7    1  0.2855090E-009  0.1027740E+03  0.7561462E-02  0.1274568E+00
          1   -1    0    0  501    0  0.00000000000E+00  0.00000000000E+00  0.19833475117E+03  0.19833475117E+03  0.00000000000E+00 0. -1.
         -1   -1    0    0    0  501 -0.00000000000E+00 -0.00000000000E+00 -0.83135075804E+02  0.83135075804E+02  0.00000000000E+00 0.  1.
         25    2    1    2    0    0 -0.61857332334E+01  0.68864036248E+02  0.68493103124E+02  0.15849052040E+03  0.12508965224E+03 0.  0.
          5    1    3    3  502    0 -0.84909430984E+01  0.94045660716E+02  0.10519672079E+02  0.95104249721E+02  0.41800000000E+01 0.  1.
         -5    1    3    3    0  502  0.23052098650E+01 -0.25181624468E+02  0.57973431045E+02  0.63386270679E+02  0.41800000000E+01 0.  1.
        -11    1    1    2    0    0  0.24619741370E+02 -0.15876947989E+02 -0.20259770742E+02  0.35618358372E+02  0.00000000000E+00 0.  1.
         11    1    1    2    0    0 -0.18434008136E+02 -0.52987088259E+02  0.66966342981E+02  0.87360948200E+02  0.00000000000E+00 0. -1.
</event>
<event>
 7    1  0.2855090E-009  0.1719090E+03  0.7561462E-02  0.1175872E+00
         -2   -1    0    0    0  501 -0.00000000000E+00  0.00000000000E+00  0.22138539050E+03  0.22138539050E+03  0.00000000000E+00 0.  1.
          2   -1    0    0  501    0  0.00000000000E+00 -0.00000000000E+00 -0.15852637429E+03  0.15852637429E+03  0.00000000000E+00 0. -1.
         25    2    1    2    0    0 -0.46150088801E+02  0.14443767827E+03  0.18773973712E+02  0.19746416427E+03  0.12509020937E+03 0.  0.
          5    1    3    3  502    0  0.15947169377E+02  0.79801070540E+02 -0.39415275663E+02  0.90518282276E+02  0.41800000000E+01 0.  1.
         -5    1    3    3    0  502 -0.62097258178E+02  0.64636607728E+02  0.58189249375E+02  0.10694588199E+03  0.41800000000E+01 0.  1.
        -11    1    1    2    0    0  0.12920393796E+02 -0.13818687132E+03  0.18438435676E+02  0.14000901361E+03  0.00000000000E+00 0. -1.
         11    1    1    2    0    0  0.33229695004E+02 -0.62508069462E+01  0.25646606820E+02  0.42438586910E+02  0.00000000000E+00 0.  1.
</event>
<event>
 7    1  0.2855090E-009  0.1307196E+03  0.7561462E-02  0.1226392E+00
          2   -1    0    0  501    0  0.00000000000E+00  0.00000000000E+00  0.53016549361E+02  0.53016549361E+02  0.00000000000E+00 0.  1.
         -2   -1    0    0    0  501 -0.00000000000E+00 -0.00000000000E+00 -0.41007934874E+03  0.41007934874E+03  0.00000000000E+00 0. -1.
         25    2    1    2    0    0 -0.88469697963E+02  0.46359712315E+02 -0.19056394193E+03  0.24887475269E+03  0.12509163114E+03 0.  0.
          5    1    3    3  502    0 -0.21207184698E+01 -0.36654480656E+02 -0.25543693728E+02  0.44922167003E+02  0.41800000000E+01 0.  1.
         -5    1    3    3    0  502 -0.86348979494E+02  0.83014192971E+02 -0.16502024820E+03  0.20395258569E+03  0.41800000000E+01 0.  1.
        -11    1    1    2    0    0  0.29024343706E+02 -0.32536661239E+02 -0.79348481220E+01  0.44317137395E+02  0.00000000000E+00 0.  1.
         11    1    1    2    0    0  0.59445354257E+02 -0.13823051075E+02 -0.15856400933E+03  0.16990400802E+03  0.00000000000E+00 0. -1.
</event>
<event>
 7    1  0.3500321E-009  0.1363350E+03  0.7561462E-02  0.1218347E+00
          2   -1    0    0  501    0  0.00000000000E+00  0.00000000000E+00  0.13452053029E+04  0.13452053029E+04  0.00000000000E+00 0. -1.
         -2   -1    0    0    0  501 -0.00000000000E+00 -0.00000000000E+00 -0.16622361557E+02  0.16622361557E+02  0.00000000000E+00 0.  1.
         25    2    1    2    0    0  0.52211964412E+01  0.10186402882E+03  0.67816318858E+03  0.69710575494E+03  0.12509029524E+03 0.  0.
          5    1    3    3  502    0 -0.21787265105E+02 -0.82230395043E+01  0.26006961545E+02  0.35158750664E+02  0.41800000000E+01 0.  1.
         -5    1    3    3    0  502  0.27008461546E+02  0.11008706833E+03  0.65215622703E+03  0.66194700427E+03  0.41800000000E+01 0.  1.
        -11    1    1    2    0    0  0.42008143382E+02 -0.52913301264E+02  0.27405637202E+03  0.28226122051E+03  0.00000000000E+00 0. -1.
         11    1    1    2    0    0 -0.47229339824E+02 -0.48950727560E+02  0.37636338069E+03  0.38246068896E+03  0.00000000000E+00 0.  1.
</event>
<event>
 7    1  0.2855090E-009  0.1385095E+03  0.7561462E-02  0.1215349E+00
         -1   -1    0    0    0  501 -0.00000000000E+00  0.00000000000E+00  0.17040529466E+03  0.17040529466E+03  0.00000000000E+00 0.  1.
          1   -1    0    0  501    0  0.00000000000E+00 -0.00000000000E+00 -0.13358378720E+03  0.13358378720E+03  0.00000000000E+00 0. -1.
         25    2    1    2    0    0 -0.10148154572E+03 -0.29879493062E+01 -0.64114263416E+01  0.16123464654E+03  0.12509225753E+03 0.  0.
          5    1    3    3  502    0  0.33757660535E+00 -0.47743431392E+02  0.93305339622E+01  0.48827046430E+02  0.41800000000E+01 0. -1.
         -5    1    3    3    0  502 -0.10181912233E+03  0.44755482086E+02 -0.15741960304E+02  0.11240760011E+03  0.41800000000E+01 0. -1.
        -11    1    1    2    0    0  0.28517860595E+02 -0.26656209798E+02  0.50313483642E+02  0.63680990333E+02  0.00000000000E+00 0.  1.
         11    1    1    2    0    0  0.72963685126E+02  0.29644159104E+02 -0.70805498435E+01  0.79073444988E+02  0.00000000000E+00 0. -1.
</event>
<event>
 7    1  0.2855090E-009  0.1884826E+03  0.7561462E-02  0.1159837E+00
          2   -1    0    0  501    0  0.00000000000E+00  0.00000000000E+00  0.28796131794E+03  0.28796131794E+03  0.00000000000E+00 0. -1.
         -2   -1    0    0    0  501 -0.00000000000E+00 -0.00000000000E+00 -0.14897211656E+03  0.14897211656E+03  0.00000000000E+00 0.  1.
         25    2    1    2    0    0  0.16078271666E+03  0.54474175690E+02  0.12292223928E+03  0.24407976535E+03  0.12508611893E+03 0.  0.
          5    1    3    3  502    0  0.99072879497E+02  0.90939960724E+02  0.10335066944E+03  0.16965949777E+03  0.41800000000E+01 0. -1.
         -5    1    3    3    0  502  0.61709837166E+02 -0.36465785034E+02  0.19571569835E+02  0.74420267582E+02  0.41800000000E+01 0. -1.
        -11    1    1    2    0    0 -0.99878359483E+02 -0.42511258555E+02 -0.33305460262E+02  0.11354359286E+03  0.00000000000E+00 0.  1.
         11    1    1    2    0    0 -0.60904357180E+02 -0.11962917135E+02  0.49372422366E+02  0.79310076284E+02  0.00000000000E+00 0. -1.
</event>
<event>
 7    1  0.2855090E-009  0.1446709E+03  0.7561462E-02  0.1207179E+00
          1   -1    0    0  501    0  0.00000000000E+00  0.00000000000E+00  0.14249835052E+04  0.14249835052E+04  0.00000000000E+00 0.  1.
         -1   -1    0    0    0  501 -0.00000000000E+00 -0.00000000000E+00 -0.17972730195E+02  0.17972730195E+02  0.00000000000E+00 0. -1.
         25    2    1    2    0    0 -0.61950274280E+02  0.81196339378E+02  0.10293357688E+04  0.10419259505E+04  0.12508748751E+03 0.  0.
          5    1    3    3  502    0 -0.72145336139E+02 -0.59821192170E+01  0.40562595551E+03  0.41205657798E+03  0.41800000000E+01 0.  1.
         -5    1    3    3    0  502  0.10195061860E+02  0.87178458595E+02  0.62370981325E+03  0.62986937255E+03  0.41800000000E+01 0.  1.
        -11    1    1    2    0    0  0.18016726721E+01 -0.67169625119E+02  0.13748492327E+03  0.15302649669E+03  0.00000000000E+00 0. -1.
         11    1    1    2    0    0  0.60148601608E+02 -0.14026714260E+02  0.24019008298E+03  0.24800378817E+03  0.00000000000E+00 0.  1.
</event>
<event>
 7    1  0.2855090E-009  0.1156029E+03  0.7561462E-02  0.1250532E+00
          2   -1    0    0  501    0  0.00000000000E+00  0.00000000000E+00  0.67860189111E+03  0.67860189111E+03  0.00000000000E+00 0. -1.
         -2   -1    0    0    0  501 -0.00000000000E+00 -0.00000000000E+00 -0.24940729222E+02  0.24940729222E+02  0.00000000000E+00 0.  1.
         25    2    1    2    0    0 -0.45685331632E+02  0.48243777898E+02  0.30862906497E+03  0.33957936700E+03  0.12509050770E+03 0.  0.
          5    1    3    3  502    0 -0.18877758479E+02  0.87138592155E+02  0.24085026983E+03  0.25685760430E+03  0.41800000000E+01 0.  1.
         -5    1    3    3    0  502 -0.26807573153E+02 -0.38894814257E+02  0.67778795143E+02  0.82721762708E+02  0.41800000000E+01 0.  1.
        -11    1    1    2    0    0 -0.12059171159E+02 -0.32511256782E+02  0.39224854094E+02  0.52354508930E+02  0.00000000000E+00 0.  1.
         11    1    1    2    0    0  0.57744502792E+02 -0.15732521116E+02  0.30580724282E+03  0.31160874440E+03  0.00000000000E+00 0. -1.
</event>
<event>
 7    1  0.2855090E-009  0.6560255E+02  0.7561462E-02  0.1375719E+00
          2   -1    0    0  501    0  0.00000000000E+00  0.00000000000E+00  0.35449924236E+02  0.35449924236E+02  0.00000000000E+00 0. -1.
         -2   -1    0    0    0  501 -0.00000000000E+00 -0.00000000000E+00 -0.35132774911E+03  0.35132774911E+03  0.00000000000E+00 0.  1.
         25    2    1    2    0    0  0.13164193457E+02 -0.21263166400E+02 -0.19518777656E+03  0.23317542703E+03  0.12508834246E+03 0.  0.
          5    1    3    3  502    0  0.40107589710E+02 -0.27677986566E+01 -0.19609367283E+03  0.20021608423E+03  0.41800000000E+01 0.  1.
         -5    1    3    3    0  502 -0.26943396253E+02 -0.18495367744E+02  0.90589627589E+00  0.32959342798E+02  0.41800000000E+01 0.  1.
        -11    1    1    2    0    0  0.11133680025E+02  0.30014311779E+02 -0.12353943581E+03  0.12761978665E+03  0.00000000000E+00 0.  1.
         11    1    1    2    0    0 -0.24297873483E+02 -0.87511453783E+01  0.28493874965E+01  0.25982459666E+02  0.00000000000E+00 0. -1.
</event>
<event>
 7    1  0.2855090E-009  0.1363075E+03  0.7561462E-02  0.1218386E+00
         -2   -1    0    0    0  501 -0.00000000000E+00  0.00000000000E+00  0.89102801284E+02  0.89102801284E+02  0.00000000000E+00 0. -1.
          2   -1    0    0  501    0  0.00000000000E+00 -0.00000000000E+00 -0.25135648750E+03  0.25135648750E+03  0.00000000000E+00 0.  1.
         25    2    1    2    0    0  0.73550452184E+02 -0.52776862052E+02 -0.32426707510E+02  0.15778003288E+03  0.12509189115E+03 0.  0.
          5    1    3    3  502    0  0.32831480438E+01  0.38236447087E+02 -0.14970221458E+02  0.41405131051E+02  0.41800000000E+01 0. -1.
         -5    1    3    3    0  502  0.70267304140E+02 -0.91013309138E+02 -0.17456486052E+02  0.11637490183E+03  0.41800000000E+01 0. -1.
        -11    1    1    2    0    0 -0.87047791632E+02  0.57867507987E+02 -0.13169270251E+03  0.16813368016E+03  0.00000000000E+00 0.  1.
         11    1    1    2    0    0  0.13497339448E+02 -0.50906459351E+01  0.18657238087E+01  0.14545575738E+02  0.00000000000E+00 0. -1.
</event>
<event>
 7    1  0.2855090E-009  0.1096499E+03  0.7561462E-02  0.1261220E+00
         -1   -1    0    0    0  501 -0.00000000000E+00  0.00000000000E+00  0.50074123496E+03  0.50074123496E+03  0.00000000000E+00 0.  1.
          1   -1    0    0  501    0  0.00000000000E+00 -0.00000000000E+00 -0.44541910185E+02  0.44541910185E+02  0.00000000000E+00 0. -1.
         25    2    1    2    0    0  0.80717601504E+02 -0.64268849392E+02  0.23533406545E+03  0.28580070651E+03  0.12511636698E+03 0.  0.
          5    1    3    3  502    0  0.17648342336E+02 -0.40059775852E+02  0.33018089855E+01  0.44097890779E+02  0.41800000000E+01 0.  1.
         -5    1    3    3    0  502  0.63069259168E+02 -0.24209073539E+02  0.23203225646E+03  0.24170281573E+03  0.41800000000E+01 0.  1.
        -11    1    1    2    0    0 -0.70065644957E+02  0.66675309477E+02  0.22714879794E+03  0.24688330827E+03  0.00000000000E+00 0.  1.
         11    1    1    2    0    0 -0.10651956547E+02 -0.24064600857E+01 -0.62835386130E+01  0.12599130364E+02  0.00000000000E+00 0. -1.
</event>
<event>
 7    1  0.2855090E-009  0.1316344E+03  0.7561462E-02  0.1225051E+00
          2   -1    0    0  501    0  0.00000000000E+00  0.00000000000E+00  0.80081114333E+03  0.80081114333E+03  0.00000000000E+00 0. -1.
         -2   -1    0    0    0  501 -0.00000000000E+00 -0.00000000000E+00 -0.36283893752E+02  0.36283893752E+02  0.00000000000E+00 0.  1.
         25    2    1    2    0    0  0.59223828355E+02 -0.59410706208E+02  0.66556507611E+03  0.68239368815E+03  0.12508869346E+03 0.  0.
          5    1    3    3  502    0 -0.30813959536E+02 -0.51454534909E+02  0.26885034137E+03  0.27549055831E+03  0.41800000000E+01 0. -1.
         -5    1    3    3    0  502  0.90037787891E+02 -0.79561712988E+01  0.39671473474E+03  0.40690312984E+03  0.41800000000E+01 0. -1.
        -11    1    1    2    0    0 -0.15862578246E+02  0.66816261244E+02  0.35014489315E+02  0.77084684713E+02  0.00000000000E+00 0.  1.
         11    1    1    2    0    0 -0.43361250109E+02 -0.74055550357E+01  0.63947684155E+02  0.77616664223E+02  0.00000000000E+00 0. -1.
</event>
<event>
 7    1  0.2855090E-009  0.1136420E+03  0.7561462E-02  0.1253970E+00
          2   -1    0    0  501    0  0.00000000000E+00  0.00000000000E+00  0.62828196009E+03  0.62828196009E+03  0.00000000000E+00 0. -1.
         -2   -1    0    0    0  501 -0.00000000000E+00 -0.00000000000E+00 -0.28346281421E+02  0.28346281421E+02  0.00000000000E+00 0.  1.
         25    2    1    2    0    0 -0.23273231724E+02 -0.31227312510E+02  0.49820575633E+03  0.51514509765E+03  0.12509479459E+03 0.  0.
          5    1    3    3  502    0 -0.14775829668E+02  0.48253248783E+02  0.17535372928E+03  0.18251877693E+03  0.41800000000E+01 0. -1.
         -5    1    3    3    0  502 -0.84974020566E+01 -0.79480561293E+02  0.32285202705E+03  0.33262632072E+03  0.41800000000E+01 0. -1.
        -11    1    1    2    0    0  0.55282893496E+02  0.33281664200E+02  0.79811380428E+02  0.10263393167E+03  0.00000000000E+00 0.  1.
         11    1    1    2    0    0 -0.32009661772E+02 -0.20543516906E+01  0.21918541906E+02  0.38849212178E+02  0.00000000000E+00 0. -1.
</event>
<event>
 7    1  0.2855090E-009  0.1469811E+03  0.7561462E-02  0.1204232E+00
          1   -1    0    0  501    0  0.00000000000E+00  0.00000000000E+00  0.45493209885E+03  0.45493209885E+03  0.00000000000E+00 0. -1.
         -1   -1    0    0    0  501 -0.00000000000E+00 -0.00000000000E+00 -0.58141441507E+02  0.58141441507E+02  0.00000000000E+00 0.  1.
         25    2    1    2    0    0  0.11958428000E+03 -0.11500342509E+02  0.23839623593E+03  0.29481106437E+03  0.12509252762E+03 0.  0.
          5    1    3    3  502    0  0.81442947270E+02  0.31337505052E+02  0.56504332038E+02  0.10404424454E+03  0.41800000000E+01 0. -1.
         -5    1    3    3    0  502  0.38141332731E+02 -0.42837847561E+02  0.18189190389E+03  0.19076681983E+03  0.41800000000E+01 0. -1.
        -11    1    1    2    0    0 -0.30227777032E+02  0.44532416728E+02  0.44957920219E+02  0.70128947193E+02  0.00000000000E+00 0.  1.
         11    1    1    2    0    0 -0.89356502969E+02 -0.33032074219E+02  0.11343650120E+03  0.14813352880E+03  0.00000000000E+00 0. -1.
</event>
<event>
 7    1  0.2855090E-009  0.1749051E+03  0.7561462E-02  0.1172827E+00
          1   -1    0    0  501    0  0.00000000000E+00  0.00000000000E+00  0.29098853180E+02  0.29098853180E+02  0.00000000000E+00 0. -1.
         -1   -1    0    0    0  501 -0.00000000000E+00 -0.00000000000E+00 -0.11097978944E+04  0.11097978944E+04  0.00000000000E+00 0.  1.
         25    2    1    2    0    0 -0.13626092303E+03  0.28285410705E+02 -0.46813206874E+03  0.50414525136E+03  0.12509075539E+03 0.  0.
          5    1    3    3  502    0 -0.13661797954E+03  0.63213500033E+02 -0.35358577473E+03  0.38431860664E+03  0.41800000000E+01 0. -1.
         -5    1    3    3    0  502  0.35705650662E+00 -0.34928089328E+02 -0.11454629402E+03  0.11982664473E+03  0.41800000000E+01 0. -1.
        -11    1    1    2    0    0 -0.73199972356E+01 -0.18766051027E+02 -0.46384883009E+02  0.50569797334E+02  0.00000000000E+00 0. -1.
         11    1    1    2    0    0  0.14358092027E+03 -0.95193596780E+01 -0.56618208948E+03  0.58418169889E+03  0.00000000000E+00 0.  1.
</event>
<event>
 7    1  0.2855090E-009  0.7889999E+02  0.7561462E-02  0.1332202E+00
          1   -1    0    0  501    0  0.00000000000E+00  0.00000000000E+00  0.63201612678E+02  0.63201612678E+02  0.00000000000E+00 0. -1.
         -1   -1    0    0    0  501 -0.00000000000E+00 -0.00000000000E+00 -0.24525861017E+03  0.24525861017E+03  0.00000000000E+00 0.  1.
         25    2    1    2    0    0 -0.59698856674E+02  0.19525615367E+01 -0.11684278711E+03  0.18129609307E+03  0.12509304729E+03 0.  0.
          5    1    3    3  502    0 -0.58636206795E+02 -0.23879331891E+02 -0.13517652650E+03  0.14932713402E+03  0.41800000000E+01 0.  1.
         -5    1    3    3    0  502 -0.10626498790E+01  0.25831893428E+02  0.18333739391E+02  0.31968959053E+02  0.41800000000E+01 0.  1.
        -11    1    1    2    0    0  0.55788680632E+02  0.90190070684E+01  0.43042472425E+01  0.56676678797E+02  0.00000000000E+00 0. -1.
         11    1    1    2    0    0  0.39101760424E+01 -0.10971568605E+02 -0.69518457627E+02  0.70487450977E+02  0.00000000000E+00 0.  1.
</event>
<event>
 7    1  0.2855090E-009  0.9830244E+02  0.7561462E-02  0.1283907E+00
         -2   -1    0    0    0  501 -0.00000000000E+00  0.00000000000E+00  0.35414967477E+02  0.35414967477E+02  0.00000000000E+00 0.  1.
          2   -1    0    0  501    0  0.00000000000E+00 -0.00000000000E+00 -0.37368498628E+03  0.37368498628E+03  0.00000000000E+00 0. -1.
         25    2    1    2    0    0  0.19510387328E+02  0.15947353749E+02 -0.13890369931E+03  0.18861937303E+03  0.12509219358E+03 0.  0.
          5    1    3    3  502    0  0.71058463051E+02  0.90276606071E+01 -0.57592442739E+02  0.92006335042E+02  0.41800000000E+01 0. -1.
         -5    1    3    3    0  502 -0.51548075723E+02  0.69196931424E+01 -0.81311256569E+02  0.96613037985E+02  0.41800000000E+01 0. -1.
        -11    1    1    2    0    0 -0.71799666096E+01  0.27028278774E+02 -0.15496897206E+03  0.15747209935E+03  0.00000000000E+00 0. -1.
         11    1    1    2    0    0 -0.12330420719E+02 -0.42975632524E+02 -0.44397347439E+02  0.63008481378E+02  0.00000000000E+00 0.  1.
</event>
<event>
 7    1  0.2855090E-009  0.1441706E+03  0.7561462E-02  0.1207825E+00
          3   -1    0    0  501    0  0.00000000000E+00  0.00000000000E+00  0.14665665768E+03  0.14665665768E+03  0.00000000000E+00 0. -1.
         -3   -1    0    0    0  501 -0.00000000000E+00 -0.00000000000E+00 -0.20712998569E+03  0.20712998569E+03  0.00000000000E+00 0.  1.
         25    2    1    2    0    0 -0.11706678064E+03 -0.56689118255E+02 -0.71172136119E+02  0.19399131059E+03  0.12509543704E+03 0.  0.
          5    1    3    3  502    0 -0.35733744151E+02 -0.78773464949E+01 -0.89955701966E+02  0.97203157227E+02  0.41800000000E+01 0. -1.
         -5    1    3    3    0  502 -0.81333036486E+02 -0.48811771760E+02  0.18783565846E+02  0.96788153367E+02  0.41800000000E+01 0. -1.
        -11    1    1    2    0    0  0.77474998254E+02 -0.10894139307E+02  0.20446575571E+02  0.80864825965E+02  0.00000000000E+00 0.  1.
         11    1    1    2    0    0  0.39591782383E+02  0.67583257562E+02 -0.97477674660E+01  0.78930506811E+02  0.00000000000E+00 0. -1.
</event>
<event>
 7    1  0.2855090E-009  0.2004476E+03  0.7561462E-02  0.1149362E+00
          2   -1    0    0  501    0  0.00000000000E+00  0.00000000000E+00  0.50073097699E+03  0.50073097699E+03  0.00000000000E+00 0. -1.
         -2   -1    0    0    0  501 -0.00000000000E+00 -0.00000000000E+00 -0.91240599959E+02  0.91240599959E+02  0.00000000000E+00 0.  1.
         25    2    1    2    0    0  0.17893851445E+03  0.37522528515E+02  0.24093232446E+03  0.32729707198E+03  0.12509219102E+03 0.  0.
          5    1    3    3  502    0  0.65889083148E+02  0.70419211782E+02  0.68110413212E+02  0.11813863658E+03  0.41800000000E+01 0.  1.
         -5    1    3    3    0  502  0.11304943130E+03 -0.32896683266E+02  0.17282191125E+03  0.20915843539E+03  0.41800000000E+01 0.  1.
        -11    1    1    2    0    0 -0.41642186413E+02 -0.25275496835E+02  0.23831762059E+01  0.48770913036E+02  0.00000000000E+00 0.  1.
         11    1    1    2    0    0 -0.13729632803E+03 -0.12247031680E+02  0.16617487636E+03  0.21590359193E+03  0.00000000000E+00 0. -1.
</event>
<event>
 7    1  0.2855090E-009  0.1218824E+03  0.7561462E-02  0.1240024E+00
          2   -1    0    0  501    0  0.00000000000E+00  0.00000000000E+00  0.24666201638E+03  0.24666201638E+03  0.00000000000E+00 0.  1.
         -2   -1    0    0    0  501 -0.00000000000E+00 -0.00000000000E+00 -0.16235464868E+03  0.16235464868E+03  0.00000000000E+00 0. -1.
         25    2    1    2    0    0 -0.91871632603E+02  0.17725245695E+02 -0.10481635611E+03  0.18812297024E+03  0.12509677138E+03 0.  0.
          5    1    3    3  502    0  0.20672211955E+02 -0.17888892477E+02  0.34792789317E+01  0.27873474901E+02  0.41800000000E+01 0.  1.
         -5    1    3    3    0  502 -0.11254384456E+03  0.35614138172E+02 -0.10829563504E+03  0.16024949534E+03  0.41800000000E+01 0.  1.
        -11    1    1    2    0    0  0.65856730739E+02 -0.25832632722E+02  0.17785332946E+03  0.19140595784E+03  0.00000000000E+00 0.  1.
         11    1    1    2    0    0  0.26014901864E+02  0.81073870276E+01  0.11270394353E+02  0.29487736981E+02  0.00000000000E+00 0. -1.
</event>
<event>
 7    1  0.2855090E-009  0.1146636E+03  0.7561462E-02  0.1252169E+00
          1   -1    0    0  501    0  0.00000000000E+00  0.00000000000E+00  0.46367496316E+03  0.46367496316E+03  0.00000000000E+00 0. -1.
         -1   -1    0    0    0  501 -0.00000000000E+00 -0.00000000000E+00 -0.47258334011E+02  0.47258334011E+02  0.00000000000E+00 0.  1.
         25    2    1    2    0    0 -0.34882542184E+02  0.56954021163E+02  0.35522237407E+03  0.38247822963E+03  0.12508440681E+03 0.  0.
          5    1    3    3  502    0  0.45249953906E+01 -0.37692545659E+02  0.11766520099E+03  0.12370842940E+03  0.41800000000E+01 0. -1.
         -5    1    3    3    0  502 -0.39407537574E+02  0.94646566822E+02  0.23755717308E+03  0.25876980023E+03  0.41800000000E+01 0. -1.
        -11    1    1    2    0    0  0.33616786907E+02 -0.68820870507E+02  0.11625225433E+02  0.77469648544E+02  0.00000000000E+00 0.  1.
         11    1    1    2    0    0  0.12657552765E+01  0.11866849343E+02  0.49569029651E+02  0.50985418997E+02  0.00000000000E+00 0. -1.
</event>
<event>
 7    1  0.2855090E-009  0.8308211E+02  0.7561462E-02  0.1320526E+00
          1   -1    0    0  501    0  0.00000000000E+00  0.00000000000E+00  0.80090817171E+02  0.80090817171E+02  0.00000000000E+00 0.  1.
         -1   -1    0    0    0  501 -0.00000000000E+00 -0.00000000000E+00 -0.21894470558E+03  0.21894470558E+03  0.00000000000E+00 0. -1.
         25    2    1    2    0    0 -0.51696108936E+02 -0.14755973018E+02 -0.13609577171E+03  0.19250717739E+03  0.12508688121E+03 0.  0.
          5    1    3    3  502    0 -0.20860131134E+02 -0.20493793101E+02  0.18401586916E+02  0.34802750288E+02  0.41800000000E+01 0. -1.
         -5    1    3    3    0  502 -0.30835977802E+02  0.57378200825E+01 -0.15449735862E+03  0.15770442710E+03  0.41800000000E+01 0. -1.
        -11    1    1    2    0    0  0.65895942572E+02  0.39227875714E+02  0.59674260900E+01  0.76920164161E+02  0.00000000000E+00 0.  1.
         11    1    1    2    0    0 -0.14199833636E+02 -0.24471902696E+02 -0.87255427917E+01  0.29608181198E+02  0.00000000000E+00 0. -1.
</event>
<event>
 7    1  0.2855090E-009  0.1385081E+03  0.7561462E-02  0.1215351E+00
         -2   -1    0    0    0  501 -0.00000000000E+00  0.00000000000E+00  0.34086509945E+03  0.34086509945E+03  0.00000000000E+00 0.  1.
          2   -1    0    0  501    0  0.00000000000E+00 -0.00000000000E+00 -0.83634683880E+02  0.83634683880E+02  0.00000000000E+00 0. -1.
         25    2    1    2    0    0 -0.88270362697E+02  0.94469901261E+02  0.13593995771E+03  0.22548470669E+03  0.12508981442E+03 0.  0.
          5    1    3    3  502    0  0.48291170439E+01  0.22850068961E+02  0.99708436852E+02  0.10249239388E+03  0.41800000000E+01 0. -1.
         -5    1    3    3    0  502 -0.93099479741E+02  0.71619832300E+02  0.36231520858E+02  0.12299231281E+03  0.41800000000E+01 0. -1.
        -11    1    1    2    0    0 -0.36539384906E+01 -0.10993556064E+02  0.58942743543E+02  0.60070429978E+02  0.00000000000E+00 0.  1.
         11    1    1    2    0    0  0.91924301187E+02 -0.83476345198E+02  0.62347714318E+02  0.13894464667E+03  0.00000000000E+00 0. -1.
</event>
<event>
 7    1  0.2855090E-009  0.7535671E+02  0.7561462E-02  0.1342770E+00
          1   -1    0    0  501    0  0.00000000000E+00  0.00000000000E+00  0.36410430017E+03  0.36410430017E+03  0.00000000000E+00 0. -1.
         -1   -1    0    0    0  501 -0.00000000000E+00 -0.00000000000E+00 -0.35539633376E+02  0.35539633376E+02  0.00000000000E+00 0.  1.
         25    2    1    2    0    0  0.25758366752E+02  0.19383369451E+02  0.22159527442E+03  0.25649782083E+03  0.12508979965E+03 0.  0.
          5    1    3    3  502    0  0.55416570581E+02  0.38099277558E+02  0.57300586017E+02  0.88449877350E+02  0.41800000000E+01 0.  1.
         -5    1    3    3    0  502 -0.29658203829E+02 -0.18715908107E+02  0.16429468840E+03  0.16804794348E+03  0.41800000000E+01 0.  1.
        -11    1    1    2    0    0  0.88845308266E+01 -0.66855250747E+01 -0.13305088782E+02  0.17339449848E+02  0.00000000000E+00 0.  1.
         11    1    1    2    0    0 -0.34642897579E+02 -0.12697844376E+02  0.12027448116E+03  0.12580666287E+03  0.00000000000E+00 0. -1.
</event>
<event>
 7    1  0.2855090E-009  0.1769967E+03  0.7561462E-02  0.1170742E+00
          2   -1    0    0  501    0  0.00000000000E+00  0.00000000000E+00  0.73213491647E+03  0.73213491647E+03  0.00000000000E+00 0. -1.
         -2   -1    0    0    0  501 -0.00000000000E+00 -0.00000000000E+00 -0.60174246016E+02  0.60174246016E+02  0.00000000000E+00 0.  1.
         25    2    1    2    0    0  0.49036417472E+02  0.16112069224E+03  0.46741413113E+03  0.51233634899E+03  0.12509243306E+03 0.  0.
          5    1    3    3  502    0  0.71278942527E+01  0.95032514427E+01 -0.56385640694E+01  0.13797987869E+02  0.41800000000E+01 0. -1.
         -5    1    3    3    0  502  0.41908523220E+02  0.15161744080E+03  0.47305269520E+03  0.49853836112E+03  0.41800000000E+01 0. -1.
        -11    1    1    2    0    0  0.19944445883E+02 -0.34484005408E+02  0.16792930235E+02  0.43231123700E+02  0.00000000000E+00 0.  1.
         11    1    1    2    0    0 -0.68980863355E+02 -0.12663668684E+03  0.18775360909E+03  0.23674168980E+03  0.00000000000E+00 0. -1.
</event>
<event>
 7    1  0.2855090E-009  0.1425797E+03  0.7561462E-02  0.1209899E+00
         -1   -1    0    0    0  501 -0.00000000000E+00  0.00000000000E+00  0.59288767619E+02  0.59288767619E+02  0.00000000000E+00 0.  1.
          1   -1    0    0  501    0  0.00000000000E+00 -0.00000000000E+00 -0.52894315748E+03  0.52894315748E+03  0.00000000000E+00 0. -1.
         25    2    1    2    0    0  0.10933206712E+03  0.73259267872E+02 -0.32381696952E+03  0.37124817853E+03  0.12508940435E+03 0.  0.
          5    1    3    3  502    0  0.43421330628E+02  0.32216600324E+02 -0.27305567400E+03  0.27838856800E+03  0.41800000000E+01 0. -1.
         -5    1    3    3    0  502  0.65910736489E+02  0.41042667548E+02 -0.50761295520E+02  0.92859610525E+02  0.41800000000E+01 0. -1.
        -11    1    1    2    0    0 -0.99929389714E+02 -0.23662335138E+02 -0.64543183947E+02  0.12129143262E+03  0.00000000000E+00 0.  1.
         11    1    1    2    0    0 -0.94026774037E+01 -0.49596932733E+02 -0.81294236396E+02  0.95692313955E+02  0.00000000000E+00 0. -1.
</event>
<event>
 7    1  0.4391659E-009  0.1026866E+03  0.7561462E-02  0.1274746E+00
          1   -1    0    0  501    0  0.00000000000E+00  0.00000000000E+00  0.11157426680E+04  0.11157426680E+04  0.00000000000E+00 0. -1.
         -1   -1    0    0    0  501 -0.00000000000E+00 -0.00000000000E+00 -0.16574917716E+02  0.16574917716E+02  0.00000000000E+00 0.  1.
         25    2    1    2    0    0 -0.60181919802E+02 -0.56042751242E+02  0.59672256067E+03  0.61521431059E+03  0.12509268604E+03 0.  0.
          5    1    3    3  502    0 -0.13240316608E+02 -0.40677052277E+01  0.47114243344E+03  0.47136452688E+03  0.41800000000E+01 0. -1.
         -5    1    3    3    0  502 -0.46941603194E+02 -0.51975046015E+02  0.12558012723E+03  0.14384978371E+03  0.41800000000E+01 0. -1.
        -11    1    1    2    0    0 -0.12559712380E+02  0.45551137489E+02  0.15847957460E+03  0.16537360148E+03  0.00000000000E+00 0.  1.
         11    1    1    2    0    0  0.72741632182E+02  0.10491613753E+02  0.34396561506E+03  0.35172967369E+03  0.00000000000E+00 0. -1.
</event>
<event>
 6    1  0.2855090E-009  0.1597711E+03  0.7561462E-02  0.1188955E+00
          3   -1    0    0  501    0  0.00000000000E+00  0.00000000000E+00  0.25215338107E+02  0.25215338107E+02  0.00000000000E+00 0. -1.
         -3   -1    0    0    0  501 -0.00000000000E+00 -0.00000000000E+00 -0.12717478160E+04  0.12717478160E+04  0.00000000000E+00 0.  1.
          5    1    1    2  502    0 -0.11758460448E+03 -0.10599660977E+03 -0.69380316622E+03  0.71164719233E+03  0.41800000000E+01 0.  1.
         -5    1    1    2    0  502  0.10551727497E+02  0.23266965812E+02 -0.12301082242E+03  0.12570531207E+03  0.41800000000E+01 0.  1.
        -11    1    1    2    0    0  0.72008831412E+02  0.56769542584E+02 -0.39000027769E+03  0.40063483294E+03  0.00000000000E+00 0.  1.
         11    1    1    2    0    0  0.35024045573E+02  0.25960101371E+02 -0.39718211520E+02  0.58975816720E+02  0.00000000000E+00 0. -1.
</event>
<event>
 7    1  0.2855090E-009  0.1816854E+03  0.7561462E-02  0.1166182E+00
         -1   -1    0    0    0  501 -0.00000000000E+00  0.00000000000E+00  0.18573945732E+04  0.18573945732E+04  0.00000000000E+00 0.  1.
          1   -1    0    0  501    0  0.00000000000E+00 -0.00000000000E+00 -0.21908682545E+02  0.21908682545E+02  0.00000000000E+00 0. -1.
         25    2    1    2    0    0 -0.14704744451E+03  0.97431536525E+02  0.88002350796E+03  0.90620219444E+03  0.12508072352E+03 0.  0.
          5    1    3    3  502    0 -0.64519895012E+02  0.63342861581E+02  0.19050956036E+03  0.21091823049E+03  0.41800000000E+01 0.  1.
         -5    1    3    3    0  502 -0.82527549495E+02  0.34088674944E+02  0.68951394760E+03  0.69528396395E+03  0.41800000000E+01 0.  1.
        -11    1    1    2    0    0  0.93286125117E+02 -0.31640203791E+02  0.56228834012E+03  0.57085162790E+03  0.00000000000E+00 0.  1.
         11    1    1    2    0    0  0.53761319390E+02 -0.65791332734E+02  0.39317404257E+03  0.40224943341E+03  0.00000000000E+00 0. -1.
</event>
<event>
 7    1  0.2855090E-009  0.3043750E+03  0.7561462E-02  0.1083074E+00
          2   -1    0    0  501    0  0.00000000000E+00  0.00000000000E+00  0.10690361058E+04  0.10690361058E+04  0.00000000000E+00 0. -1.
         -2   -1    0    0    0  501 -0.00000000000E+00 -0.00000000000E+00 -0.95080469920E+02  0.95080469920E+02  0.00000000000E+00 0.  1.
         25    2    1    2    0    0 -0.28425056210E+03 -0.63364939780E+02  0.37548901696E+03  0.49137860923E+03  0.12508972022E+03 0.  0.
          5    1    3    3  502    0 -0.83580700572E+02  0.37908728259E+02  0.99880061235E+02  0.13570668450E+03  0.41800000000E+01 0. -1.
         -5    1    3    3    0  502 -0.20066986153E+03 -0.10127366804E+03  0.27560895572E+03  0.35567192472E+03  0.41800000000E+01 0. -1.
        -11    1    1    2    0    0  0.17374585525E+03  0.27664344984E+02  0.45709913925E+03  0.48978828212E+03  0.00000000000E+00 0. -1.
         11    1    1    2    0    0  0.11050470685E+03  0.35700594796E+02  0.14136747971E+03  0.18294968440E+03  0.00000000000E+00 0.  1.
</event>
<event>
 7    1  0.2855090E-009  0.1024724E+03  0.7561462E-02  0.1275181E+00
          1   -1    0    0  501    0  0.00000000000E+00  0.00000000000E+00  0.88968591419E+03  0.88968591419E+03  0.00000000000E+00 0. -1.
         -1   -1    0    0    0  501 -0.00000000000E+00 -0.00000000000E+00 -0.33374885589E+02  0.33374885589E+02  0.00000000000E+00 0.  1.
         25    2    1    2    0    0  0.82058001325E+01  0.84238608543E+02  0.73121614475E+03  0.74665097850E+03  0.12508858869E+03 0.  0.
          5    1    3    3  502    0 -0.52967241216E+00  0.40341422995E+01  0.52705199708E+03  0.52708427683E+03  0.41800000000E+01 0. -1.
         -5    1    3    3    0  502  0.87354725446E+01  0.80204466244E+02  0.20416414767E+03  0.21956670167E+03  0.41800000000E+01 0. -1.
        -11    1    1    2    0    0  0.31478917217E+02 -0.68951484066E+02  0.52255711257E+02  0.92064590061E+02  0.00000000000E+00 0.  1.
         11    1    1    2    0    0 -0.39684717349E+02 -0.15287124477E+02  0.72839172594E+02  0.84345231223E+02  0.00000000000E+00 0. -1.
</event>
<event>
 7    1  0.2855090E-009  0.9679184E+02  0.7561462E-02  0.1287191E+00
          1   -1    0    0  501    0  0.00000000000E+00  0.00000000000E+00  0.15965323622E+03  0.15965323622E+03  0.00000000000E+00 0. -1.
         -1   -1    0    0    0  501 -0.00000000000E+00 -0.00000000000E+00 -0.11788033562E+03  0.11788033562E+03  0.00000000000E+00 0.  1.
         25    2    1    2    0    0 -0.59165250212E+01  0.68242896614E+02 -0.28581958439E+02  0.14545320792E+03  0.12509040387E+03 0.  0.
          5    1    3    3  502    0  0.38051032298E+02  0.43553804285E+02 -0.61941931530E+02  0.84847452574E+02  0.41800000000E+01 0.  1.
         -5    1    3    3    0  502 -0.43967557319E+02  0.24689092329E+02  0.33359973091E+02  0.60605755348E+02  0.41800000000E+01 0.  1.
        -11    1    1    2    0    0  0.25058196307E+02 -0.16951075560E+02  0.71163505336E+02  0.77327205151E+02  0.00000000000E+00 0. -1.
         11    1    1    2    0    0 -0.19141671285E+02 -0.51291821054E+02 -0.80864630173E+00  0.54753158772E+02  0.00000000000E+00 0.  1.
</event>
<event>
 7    1  0.2855090E-009  0.2025299E+03  0.7561462E-02  0.1147622E+00
         -1   -1    0    0    0  501 -0.00000000000E+00  0.00000000000E+00  0.14842755185E+03  0.14842755185E+03  0.00000000000E+00 0.  1.
          1   -1    0    0  501    0  0.00000000000E+00 -0.00000000000E+00 -0.32290488285E+03  0.32290488285E+03  0.00000000000E+00 0. -1.
         25    2    1    2    0    0  0.14023270443E+03 -0.12953749623E+03 -0.10969677141E+03  0.25323132752E+03  0.12509016452E+03 0.  0.
          5    1    3    3  502    0  0.38269511070E+01 -0.27606922283E+02  0.23743852396E+02  0.36851467261E+02  0.41800000000E+01 0. -1.
         -5    1    3    3    0  502  0.13640575332E+03 -0.10193057395E+03 -0.13344062380E+03  0.21637986026E+03  0.41800000000E+01 0. -1.
        -11    1    1    2    0    0 -0.11573888770E+03  0.55112628357E+02 -0.26514485899E+02  0.13090420120E+03  0.00000000000E+00 0.  1.
         11    1    1    2    0    0 -0.24493816727E+02  0.74424867877E+02 -0.38266073693E+02  0.87196905979E+02  0.00000000000E+00 0. -1.
</event>
<event>
 7    1  0.2855090E-009  0.1159556E+03  0.7561462E-02  0.1249922E+00
          2   -1    0    0  501    0  0.00000000000E+00  0.00000000000E+00  0.27418501569E+02  0.27418501569E+02  0.00000000000E+00 0. -1.
         -2   -1    0    0    0  501 -0.00000000000E+00 -0.00000000000E+00 -0.70450188796E+03  0.70450188796E+03  0.00000000000E+00 0.  1.
         25    2    1    2    0    0 -0.58839587642E+02 -0.63557657932E+02 -0.35342182042E+03  0.38478050598E+03  0.12508949466E+03 0.  0.
          5    1    3    3  502    0  0.13132968249E+02  0.76614137622E+01  0.13430016534E+01  0.15825554313E+02  0.41800000000E+01 0.  1.
         -5    1    3    3    0  502 -0.71972555891E+02 -0.71219071694E+02 -0.35476482208E+03  0.36895495166E+03  0.41800000000E+01 0.  1.
        -11    1    1    2    0    0  0.17394483566E+02  0.70646442416E+02 -0.13008074478E+03  0.14904525503E+03  0.00000000000E+00 0.  1.
         11    1    1    2    0    0  0.41445104076E+02 -0.70887844837E+01 -0.19358082119E+03  0.19809462852E+03  0.00000000000E+00 0. -1.
</event>
<event>
 7    1  0.2855090E-009  0.9092950E+02  0.7561462E-02  0.1300616E+00
          2   -1    0    0  501    0  0.00000000000E+00  0.00000000000E+00  0.19150712016E+04  0.19150712016E+04  0.00000000000E+00 0.  1.
         -2   -1    0    0    0  501 -0.00000000000E+00 -0.00000000000E+00 -0.11135308256E+02  0.11135308256E+02  0.00000000000E+00 0. -1.
         25    2    1    2    0    0  0.12334307901E+02 -0.28060079914E+02  0.17467009265E+04  0.17514423293E+04  0.12508638189E+03 0.  0.
          5    1    3    3  502    0  0.13758480222E+01 -0.70888718592E+02  0.65518035805E+03  0.65901887481E+03  0.41800000000E+01 0. -1.
         -5    1    3    3    0  502  0.10958459879E+02  0.42828638678E+02  0.10915205685E+04  0.10924234545E+04  0.41800000000E+01 0. -1.
        -11    1    1    2    0    0 -0.98125524422E+01 -0.17892494311E+02  0.96101718232E+02  0.98244428775E+02  0.00000000000E+00 0.  1.
         11    1    1    2    0    0 -0.25217554591E+01  0.45952574225E+02  0.61133248587E+02  0.76519751773E+02  0.00000000000E+00 0. -1.
</event>
<event>
 7    1  0.2855090E-009  0.8047708E+02  0.7561462E-02  0.1327703E+00
          2   -1    0    0  501    0  0.00000000000E+00  0.00000000000E+00  0.10099309748E+03  0.10099309748E+03  0.00000000000E+00 0. -1.
         -2   -1    0    0    0  501 -0.00000000000E+00 -0.00000000000E+00 -0.12586696440E+03  0.12586696440E+03  0.00000000000E+00 0.  1.
         25    2    1    2    0    0 -0.10991267607E+02 -0.22351141733E+02 -0.40559541990E+00  0.12754504784E+03  0.12508874138E+03 0.  0.
          5    1    3    3  502    0  0.34339901076E+02 -0.49520774677E+02  0.28905699236E+02  0.66966766227E+02  0.41800000000E+01 0. -1.
         -5    1    3    3    0  502 -0.45331168683E+02  0.27169632943E+02 -0.29311294656E+02  0.60578281610E+02  0.41800000000E+01 0. -1.
        -11    1    1    2    0    0 -0.13986447393E+02  0.16953129554E+02 -0.55160147290E+02  0.59377362365E+02  0.00000000000E+00 0.  1.
         11    1    1    2    0    0  0.24977714999E+02  0.53980121795E+01  0.30691875787E+02  0.39937651676E+02  0.00000000000E+00 0. -1.
</event>
<event>
 7    1  0.2855090E-009  0.1372915E+03  0.7561462E-02  0.1217021E+00
          2   -1    0    0  501    0  0.00000000000E+00  0.00000000000E+00  0.56280732633E+03  0.56280732633E+03  0.00000000000E+00 0.  1.
         -2   -1    0    0    0  501 -0.00000000000E+00 -0.00000000000E+00 -0.73834405078E+02  0.73834405078E+02  0.00000000000E+00 0. -1.
         25    2    1    2    0    0  0.16757776958E+02 -0.86142600957E+02  0.23869825078E+02  0.15467064810E+03  0.12510743401E+03 0.  0.
          5    1    3    3  502    0  0.30742864844E+02  0.22679348031E+02 -0.10105742954E+02  0.39737576758E+02  0.41800000000E+01 0.  1.
         -5    1    3    3    0  502 -0.13985087886E+02 -0.10882194899E+03  0.33975568031E+02  0.11493307134E+03  0.41800000000E+01 0.  1.
        -11    1    1    2    0    0  0.37389266534E+02  0.26672987141E+02  0.16343405548E+03  0.16976482553E+03  0.00000000000E+00 0. -1.
         11    1    1    2    0    0 -0.54147043492E+02  0.59469613816E+02  0.30166904069E+03  0.31220625778E+03  0.00000000000E+00 0.  1.
</event>
<event>
 7    1  0.2855090E-009  0.1847984E+03  0.7561462E-02  0.1163238E+00
          2   -1    0    0  501    0  0.00000000000E+00  0.00000000000E+00  0.36498974857E+03  0.36498974857E+03  0.00000000000E+00 0. -1.
         -2   -1    0    0    0  501 -0.00000000000E+00 -0.00000000000E+00 -0.17486936480E+03  0.17486936480E+03  0.00000000000E+00 0.  1.
         25    2    1    2    0    0 -0.20403955514E+02 -0.17810721104E+03 -0.51588627964E+02  0.22460513036E+03  0.12509027948E+03 0.  0.
          5    1    3    3  502    0 -0.92889677413E+01 -0.17797059604E+03 -0.69322234289E+01  0.17839659778E+03  0.41800000000E+01 0. -1.
         -5    1    3    3    0  502 -0.11114987772E+02 -0.13661500022E+00 -0.44656404536E+02  0.46208532577E+02  0.41800000000E+01 0. -1.
        -11    1    1    2    0    0  0.10103836961E+02  0.12174749907E+03  0.86170191409E+02  0.14949863859E+03  0.00000000000E+00 0. -1.
         11    1    1    2    0    0  0.10300118552E+02  0.56359711970E+02  0.15553882033E+03  0.16575534442E+03  0.00000000000E+00 0.  1.
</event>
<event>
 7    1  0.2855090E-009  0.8564475E+02  0.7561462E-02  0.1313755E+00
         -1   -1    0    0    0  501 -0.00000000000E+00  0.00000000000E+00  0.44634976086E+02  0.44634976086E+02  0.00000000000E+00 0.  1.
          1   -1    0    0  501    0  0.00000000000E+00 -0.00000000000E+00 -0.27817146433E+03  0.27817146433E+03  0.00000000000E+00 0. -1.
         25    2    1    2    0    0  0.16250298975E+02 -0.52905984504E+01 -0.16040559632E+03  0.20413066551E+03  0.12508921066E+03 0.  0.
          5    1    3    3  502    0  0.39336326686E+02  0.47785058857E+02 -0.51077698922E+02  0.80356469399E+02  0.41800000000E+01 0. -1.
         -5    1    3    3    0  502 -0.23086027711E+02 -0.53075657307E+02 -0.10932789740E+03  0.12377419611E+03  0.41800000000E+01 0. -1.
        -11    1    1    2    0    0  0.12301183632E+02  0.16475725072E+02 -0.83740626249E+02  0.86227960199E+02  0.00000000000E+00 0. -1.
         11    1    1    2    0    0 -0.28551482607E+02 -0.11185126621E+02  0.10609734327E+02  0.32447814704E+02  0.00000000000E+00 0.  1.
</event>
<event>
 7    1  0.2855090E-009  0.1072608E+03  0.7561462E-02  0.1265728E+00
          1   -1    0    0  501    0  0.00000000000E+00  0.00000000000E+00  0.96761939718E+02  0.96761939718E+02  0.00000000000E+00 0. -1.
         -1   -1    0    0    0  501 -0.00000000000E+00 -0.00000000000E+00 -0.17818833611E+03  0.17818833611E+03  0.00000000000E+00 0.  1.
         25    2    1    2    0    0 -0.11417880676E+02  0.68745995022E+02 -0.20774139067E+02  0.14468526564E+03  0.12508349775E+03 0.  0.
          5    1    3    3  502    0 -0.25451819321E+02 -0.22674430547E+02 -0.37227833490E+02  0.50648878504E+02  0.41800000000E+01 0. -1.
         -5    1    3    3    0  502  0.14033938644E+02  0.91420425569E+02  0.16453694424E+02  0.94036387134E+02  0.41800000000E+01 0. -1.
        -11    1    1    2    0    0 -0.12310389550E+02 -0.61592028774E+02 -0.77902283808E+02  0.10006942351E+03  0.00000000000E+00 0.  1.
         11    1    1    2    0    0  0.23728270226E+02 -0.71539662477E+01  0.17250026485E+02  0.30195586676E+02  0.00000000000E+00 0. -1.
</event>
<event>
 7    1  0.2855090E-009  0.1234342E+03  0.7561462E-02  0.1237537E+00
         -1   -1    0    0    0  501 -0.00000000000E+00  0.00000000000E+00  0.16879365423E+02  0.16879365423E+02  0.00000000000E+00 0.  1.
          1   -1    0    0  501    0  0.00000000000E+00 -0.00000000000E+00 -0.15184797939E+04  0.15184797939E+04  0.00000000000E+00 0. -1.
         25    2    1    2    0    0 -0.83752450595E+02 -0.51253741589E+02 -0.11150116649E+04  0.11262946549E+04  0.12508883875E+03 0.  0.
          5    1    3    3  502    0 -0.55024032428E+02 -0.70846836184E+02 -0.10357976268E+04  0.10396831798E+04  0.41800000000E+01 0. -1.
         -5    1    3    3    0  502 -0.28728418168E+02  0.19593094596E+02 -0.79214038165E+02  0.86611475041E+02  0.41800000000E+01 0. -1.
        -11    1    1    2    0    0  0.17837086126E+02  0.53187507982E+02 -0.96921842588E+02  0.11198623227E+03  0.00000000000E+00 0.  1.
         11    1    1    2    0    0  0.65915364469E+02 -0.19337663935E+01 -0.28966692089E+03  0.29707827215E+03  0.00000000000E+00 0. -1.
</event>
<event>
 7    1  0.2855090E-009  0.1113848E+03  0.7561462E-02  0.1258027E+00
         -1   -1    0    0    0  501 -0.00000000000E+00  0.00000000000E+00  0.36225709978E+02  0.36225709978E+02  0.00000000000E+00 0.  1.
          1   -1    0    0  501    0  0.00000000000E+00 -0.00000000000E+00 -0.45934757266E+03  0.45934757266E+03  0.00000000000E+00 0. -1.
         25    2    1    2    0    0 -0.53222413090E+02  0.77225182178E+01 -0.32218174862E+03  0.34977333087E+03  0.12509213128E+03 0.  0.
          5    1    3    3  502    0  0.24088527579E+02  0.42442529892E+02 -0.88302694158E+02  0.10097754057E+03  0.41800000000E+01 0. -1.
         -5    1    3    3    0  502 -0.77310940669E+02 -0.34720011674E+02 -0.23387905446E+03  0.24879579030E+03  0.41800000000E+01 0. -1.
        -11    1    1    2    0    0  0.22213965857E+02  0.31744726921E+02 -0.84542189566E+02  0.92997686977E+02  0.00000000000E+00 0. -1.
         11    1    1    2    0    0  0.31008447233E+02 -0.39467245139E+02 -0.16397924499E+02  0.52802264787E+02  0.00000000000E+00 0.  1.
</event>
<event>
 7    1  0.3449585E-009  0.7410525E+02  0.7561462E-02  0.1346664E+00
          1   -1    0    0  501    0  0.00000000000E+00  0.00000000000E+00  0.44033879784E+03  0.44033879784E+03  0.00000000000E+00 0. -1.
         -1   -1    0    0    0  501 -0.00000000000E+00 -0.00000000000E+00 -0.32659003664E+02  0.32659003664E+02  0.00000000000E+00 0.  1.
         25    2    1    2    0    0 -0.22688139768E+02  0.40912649656E+02  0.19100338515E+03  0.23306256355E+03  0.12508904350E+03 0.  0.
          5    1    3    3  502    0  0.19174934571E+02  0.17085302305E+02 -0.88187160050E+01  0.27474130061E+02  0.41800000000E+01 0. -1.
         -5    1    3    3    0  502 -0.41863074339E+02  0.23827347351E+02  0.19982210116E+03  0.20558843349E+03  0.41800000000E+01 0. -1.
        -11    1    1    2    0    0  0.34309726162E+02 -0.32943697258E+01  0.21052200945E+02  0.40388183245E+02  0.00000000000E+00 0.  1.
         11    1    1    2    0    0 -0.11621586395E+02 -0.37618279931E+02  0.19562420808E+03  0.19954705470E+03  0.00000000000E+00 0. -1.
</event>
<event>
 7    1  0.3325125E-009  0.1065099E+03  0.7561462E-02  0.1267173E+00
         -2   -1    0    0    0  501 -0.00000000000E+00  0.00000000000E+00  0.13578636320E+02  0.13578636320E+02  0.00000000000E+00 0. -1.
          2   -1    0    0  501    0  0.00000000000E+00 -0.00000000000E+00 -0.11151072370E+04  0.11151072370E+04  0.00000000000E+00 0.  1.
         25    2    1    2    0    0 -0.13161172175E+02 -0.57751280593E+00 -0.87713417470E+03  0.88610452334E+03  0.12507324209E+03 0.  0.
          5    1    3    3  502    0  0.44439854227E+02 -0.32950683289E+02 -0.51386639946E+03  0.51685278084E+03  0.41800000000E+01 0.  1.
         -5    1    3    3    0  502 -0.57601026401E+02  0.32373170483E+02 -0.36326777525E+03  0.36925174250E+03  0.41800000000E+01 0.  1.
        -11    1    1    2    0    0  0.50367750292E+02  0.13154273550E+02 -0.14365485226E+03  0.15279614446E+03  0.00000000000E+00 0.  1.
         11    1    1    2    0    0 -0.37206578117E+02 -0.12576760744E+02 -0.80739573683E+02  0.89785205488E+02  0.00000000000E+00 0. -1.
</event>
<event>
 7    1  0.2855090E-009  0.1079082E+03  0.7561462E-02  0.1264493E+00
          3   -1    0    0  501    0  0.00000000000E+00  0.00000000000E+00  0.12976709533E+03  0.12976709533E+03  0.00000000000E+00 0. -1.
         -3   -1    0    0    0  501 -0.00000000000E+00 -0.00000000000E+00 -0.10041574539E+03  0.10041574539E+03  0.00000000000E+00 0.  1.
         25    2    1    2    0    0 -0.31706859462E+02 -0.17808399914E+02  0.25214251984E+02  0.13269281924E+03  0.12509660959E+03 0.  0.
          5    1    3    3  502    0  0.85227989280E+01  0.49597634673E+02  0.18565461954E+02  0.53802530092E+02  0.41800000000E+01 0. -1.
         -5    1    3    3    0  502 -0.40229658390E+02 -0.67406034587E+02  0.66487900303E+01  0.78890289148E+02  0.41800000000E+01 0. -1.
        -11    1    1    2    0    0  0.37527068251E+02 -0.23968681112E+02  0.24311760667E+02  0.50733029009E+02  0.00000000000E+00 0. -1.
         11    1    1    2    0    0 -0.58202087886E+01  0.41777081026E+02 -0.20174662706E+02  0.46756992468E+02  0.00000000000E+00 0.  1.
</event>
<event>
 7    1  0.2855090E-009  0.1353301E+03  0.7561462E-02  0.1219755E+00
          2   -1    0    0  501    0  0.00000000000E+00  0.00000000000E+00  0.55888400268E+03  0.55888400268E+03  0.00000000000E+00 0. -1.
         -2   -1    0    0    0  501 -0.00000000000E+00 -0.00000000000E+00 -0.41207763261E+02  0.41207763261E+02  0.00000000000E+00 0.  1.
         25    2    1    2    0    0  0.42594553679E+02 -0.96221951062E+02  0.23842445299E+03  0.28907541448E+03  0.12508163576E+03 0.  0.
          5    1    3    3  502    0  0.28554538012E+02 -0.11007226271E+03  0.24306978455E+03  0.26838714056E+03  0.41800000000E+01 0.  1.
         -5    1    3    3    0  502  0.14040015667E+02  0.13850311648E+02 -0.46453315534E+01  0.20688273923E+02  0.41800000000E+01 0.  1.
        -11    1    1    2    0    0 -0.30743985270E+02 -0.80371532978E+01  0.57676711502E+02  0.65851283306E+02  0.00000000000E+00 0.  1.
         11    1    1    2    0    0 -0.11850568408E+02  0.10425910436E+03  0.22157507493E+03  0.24516506815E+03  0.00000000000E+00 0. -1.
</event>
<event>
 7    1  0.2855090E-009  0.2008631E+03  0.7561462E-02  0.1149013E+00
          2   -1    0    0  501    0  0.00000000000E+00  0.00000000000E+00  0.11616679015E+04  0.11616679015E+04  0.00000000000E+00 0. -1.
         -2   -1    0    0    0  501 -0.00000000000E+00 -0.00000000000E+00 -0.42027294093E+02  0.42027294093E+02  0.00000000000E+00 0.  1.
         25    2    1    2    0    0 -0.21633257217E+02  0.18990012873E+03  0.63489952739E+03  0.67473985273E+03  0.12508557976E+03 0.  0.
          5    1    3    3  502    0 -0.10522412829E+02  0.12302867565E+03  0.56069882842E+03  0.57414930532E+03  0.41800000000E+01 0.  1.
         -5    1    3    3    0  502 -0.11110844388E+02  0.66871453081E+02  0.74200698970E+02  0.10059054741E+03  0.41800000000E+01 0.  1.
        -11    1    1    2    0    0  0.50134813711E+02 -0.64665957705E+02  0.21947644193E+03  0.23423299126E+03  0.00000000000E+00 0. -1.
         11    1    1    2    0    0 -0.28501556494E+02 -0.12523417103E+03  0.26526463805E+03  0.29472235157E+03  0.00000000000E+00 0.  1.
</event>
<event>
 7    1  0.2855090E-009  0.9826109E+02  0.7561462E-02  0.1283996E+00
         -3   -1    0    0    0  501 -0.00000000000E+00  0.00000000000E+00  0.36904586845E+03  0.36904586845E+03  0.00000000000E+00 0.  1.
          3   -1    0    0  501    0  0.00000000000E+00 -0.00000000000E+00 -0.35855191747E+02  0.35855191747E+02  0.00000000000E+00 0. -1.
         25    2    1    2    0    0  0.23458728138E+02  0.26572085212E+02  0.14823826488E+03  0.19717543680E+03  0.12508869679E+03 0.  0.
          5    1    3    3  502    0 -0.23118628217E+02  0.47797403856E+02  0.13352271957E+03  0.14375274546E+03  0.41800000000E+01 0. -1.
         -5    1    3    3    0  502  0.46577356355E+02 -0.21225318644E+02  0.14715545312E+02  0.53422691344E+02  0.41800000000E+01 0. -1.
        -11    1    1    2    0    0  0.13024687958E+02 -0.47905241360E+02  0.12386884182E+03  0.13344678572E+03  0.00000000000E+00 0.  1.
         11    1    1    2    0    0 -0.36483416095E+02  0.21333156149E+02  0.61083570001E+02  0.74278837668E+02  0.00000000000E+00 0. -1.
</event>
<event>
 7    1  0.2855090E-009  0.1048393E+03  0.7561462E-02  0.1270437E+00
          1   -1    0    0  501    0  0.00000000000E+00  0.00000000000E+00  0.88711066815E+02  0.88711066815E+02  0.00000000000E+00 0. -1.
         -1   -1    0    0    0  501 -0.00000000000E+00 -0.00000000000E+00 -0.19001934891E+03  0.19001934891E+03  0.00000000000E+00 0.  1.
         25    2    1    2    0    0  0.48122259864E+02 -0.15569133646E+02 -0.11011046500E+03  0.17415386050E+03  0.12508837998E+03 0.  0.
          5    1    3    3  502    0  0.93221885657E+01  0.52381566632E+02 -0.26577673457E+02  0.59620272130E+02  0.41800000000E+01 0. -1.
         -5    1    3    3    0  502  0.38800071298E+02 -0.67950700278E+02 -0.83532791541E+02  0.11453358836E+03  0.41800000000E+01 0. -1.
        -11    1    1    2    0    0 -0.28347794112E+02 -0.21740361007E+02 -0.30437687749E+02  0.46932862295E+02  0.00000000000E+00 0.  1.
         11    1    1    2    0    0 -0.19774465752E+02  0.37309494653E+02  0.39239870649E+02  0.57643692939E+02  0.00000000000E+00 0. -1.
</event>
<event>
 7    1  0.2855090E-009  0.3090011E+03  0.7561462E-02  0.1080826E+00
          2   -1    0    0  501    0  0.00000000000E+00  0.00000000000E+00  0.23995205106E+04  0.23995205106E+04  0.00000000000E+00 0. -1.
         -2   -1    0    0    0  501 -0.00000000000E+00 -0.00000000000E+00 -0.55135574032E+02  0.55135574032E+02  0.00000000000E+00 0.  1.
         25    2    1    2    0    0  0.24020073187E+03 -0.18115711974E+03  0.17651375899E+04  0.17949574696E+04  0.12508922038E+03 0.  0.
          5    1    3    3  502    0  0.16943785198E+03 -0.11015232467E+03  0.82162153697E+03  0.84612182500E+03  0.41800000000E+01 0. -1.
         -5    1    3    3    0  502  0.70762879889E+02 -0.71004795065E+02  0.94351605289E+03  0.94883564464E+03  0.41800000000E+01 0. -1.
        -11    1    1    2    0    0 -0.11229133892E+03  0.14346149082E+03  0.34546289585E+03  0.39055749456E+03  0.00000000000E+00 0. -1.
         11    1    1    2    0    0 -0.12790939295E+03  0.37695628920E+02  0.23378445081E+03  0.26914112039E+03  0.00000000000E+00 0.  1.
</event>
<event>
 7    1  0.2855090E-009  0.2224507E+03  0.7561462E-02  0.1132069E+00
         -2   -1    0    0    0  501 -0.00000000000E+00  0.00000000000E+00  0.79268442772E+02  0.79268442772E+02  0.00000000000E+00 0.  1.
          2   -1    0    0  501    0  0.00000000000E+00 -0.00000000000E+00 -0.70994835254E+03  0.70994835254E+03  0.00000000000E+00 0. -1.
         25    2    1    2    0    0 -0.19124876149E+03  0.87727612938E+02 -0.34639349504E+03  0.42415602441E+03  0.12509059433E+03 0.  0.
          5    1    3    3  502    0 -0.74819498414E+02  0.90173819591E+02 -0.11079563101E+03  0.16131465939E+03  0.41800000000E+01 0. -1.
         -5    1    3    3    0  502 -0.11642926308E+03 -0.24462066528E+01 -0.23559786404E+03  0.26284136502E+03  0.41800000000E+01 0. -1.
        -11    1    1    2    0    0  0.12271008275E+03 -0.47028950691E+02 -0.24063404654E+03  0.27417919499E+03  0.00000000000E+00 0. -1.
         11    1    1    2    0    0  0.68538678741E+02 -0.40698662247E+02 -0.43652368187E+02  0.90881575913E+02  0.00000000000E+00 0.  1.
</event>
<event>
 7    1  0.2855090E-009  0.1085826E+03  0.7561462E-02  0.1263217E+00
          1   -1    0    0  501    0  0.00000000000E+00  0.00000000000E+00  0.11999443375E+03  0.11999443375E+03  0.00000000000E+00 0. -1.
         -1   -1    0    0    0  501 -0.00000000000E+00 -0.00000000000E+00 -0.14706528392E+03  0.14706528392E+03  0.00000000000E+00 0.  1.
         25    2    1    2    0    0  0.17925243250E+02  0.68762628422E+02 -0.43982680676E+02  0.15043394430E+03  0.12508509897E+03 0.  0.
          5    1    3    3  502    0  0.34247241812E+02 -0.12192071301E+02  0.23682832729E+02  0.43587488347E+02  0.41800000000E+01 0. -1.
         -5    1    3    3    0  502 -0.16321998562E+02  0.80954699723E+02 -0.67665513404E+02  0.10684645595E+03  0.41800000000E+01 0. -1.
        -11    1    1    2    0    0 -0.13416896027E+02  0.11392765073E+02 -0.21368443931E+02  0.27684266128E+02  0.00000000000E+00 0.  1.
         11    1    1    2    0    0 -0.45083472236E+01 -0.80155393495E+02  0.38280274430E+02  0.88941507248E+02  0.00000000000E+00 0. -1.
</event>
<event>
 7    1  0.2855090E-009  0.1004027E+03  0.7561462E-02  0.1279451E+00
          1   -1    0    0  501    0  0.00000000000E+00  0.00000000000E+00  0.17294121569E+03  0.17294121569E+03  0.00000000000E+00 0. -1.
         -1   -1    0    0    0  501 -0.00000000000E+00 -0.00000000000E+00 -0.14759818826E+03  0.14759818826E+03  0.00000000000E+00 0.  1.
         25    2    1    2    0    0  0.60114655773E+02  0.95406928695E+01  0.11362625348E+03  0.17961576856E+03  0.12508438022E+03 0.  0.
          5    1    3    3  502    0  0.39869002047E+02  0.65587029371E+02  0.80512008102E+02  0.11131420212E+03  0.41800000000E+01 0.  1.
         -5    1    3    3    0  502  0.20245653726E+02 -0.56046336501E+02  0.33114245381E+02  0.68301566433E+02  0.41800000000E+01 0.  1.
        -11    1    1    2    0    0 -0.31153803130E+02  0.53908934875E+01 -0.10108606340E+03  0.10591512355E+03  0.00000000000E+00 0.  1.
         11    1    1    2    0    0 -0.28960852643E+02 -0.14931586357E+02  0.12802837356E+02  0.35008511841E+02  0.00000000000E+00 0. -1.
</event>
<event>
 7    1  0.2855090E-009  0.1152025E+03  0.7561462E-02  0.1251228E+00
         -2   -1    0    0    0  501 -0.00000000000E+00  0.00000000000E+00  0.10410107106E+02  0.10410107106E+02  0.00000000000E+00 0.  1.
          2   -1    0    0  501    0  0.00000000000E+00 -0.00000000000E+00 -0.14745331229E+04  0.14745331229E+04  0.00000000000E+00 0. -1.
         25    2    1    2    0    0  0.45334557292E+02 -0.45542925808E+01 -0.10586380484E+04  0.10669760579E+04  0.12508967547E+03 0.  0.
          5    1    3    3  502    0  0.43103913635E+02  0.56742028843E+02 -0.60248540546E+03  0.60669905340E+03  0.41800000000E+01 0.  1.
         -5    1    3    3    0  502  0.22306436569E+01 -0.61296321424E+02 -0.45615264291E+03  0.46027700445E+03  0.41800000000E+01 0.  1.
        -11    1    1    2    0    0  0.18335418186E+02 -0.21932045611E+02 -0.72823667990E+02  0.78233552932E+02  0.00000000000E+00 0.  1.
         11    1    1    2    0    0 -0.63669975478E+02  0.26486338192E+02 -0.33266129941E+03  0.33973361920E+03  0.00000000000E+00 0. -1.
</event>
<event>
 7    1  0.2855090E-009  0.1176520E+03  0.7561462E-02  0.1247021E+00
         -1   -1    0    0    0  501 -0.00000000000E+00  0.00000000000E+00  0.31226235143E+02  0.31226235143E+02  0.00000000000E+00 0.  1.
          1   -1    0    0  501    0  0.00000000000E+00 -0.00000000000E+00 -0.48735440741E+03  0.48735440741E+03  0.00000000000E+00 0. -1.
         25    2    1    2    0    0  0.40728578953E+02  0.33437020808E+02 -0.31730883323E+03  0.34512292739E+03  0.12509231734E+03 0.  0.
          5    1    3    3  502    0 -0.41695009709E+02  0.24843557680E+02 -0.16027644187E+03  0.16751622731E+03  0.41800000000E+01 0.  1.
         -5    1    3    3    0  502  0.82423588662E+02  0.85934631281E+01 -0.15703239136E+03  0.17760670008E+03  0.41800000000E+01 0.  1.
        -11    1    1    2    0    0 -0.37355068750E+02  0.25083725469E+02 -0.67794550943E+02  0.81367656856E+02  0.00000000000E+00 0.  1.
         11    1    1    2    0    0 -0.33735102032E+01 -0.58520746277E+02 -0.71024788099E+02  0.92090058315E+02  0.00000000000E+00 0. -1.
</event>
<event>
 7    1  0.2855090E-009  0.1032096E+03  0.7561462E-02  0.1273688E+00
         -2   -1    0    0    0  501 -0.00000000000E+00  0.00000000000E+00  0.11729978393E+03  0.11729978393E+03  0.00000000000E+00 0. -1.
          2   -1    0    0  501    0  0.00000000000E+00 -0.00000000000E+00 -0.11603715415E+03  0.11603715415E+03  0.00000000000E+00 0.  1.
         25    2    1    2    0    0 -0.37409473640E+02  0.19430041264E+02 -0.10236770118E+02  0.13238053240E+03  0.12507125439E+03 0.  0.
          5    1    3    3  502    0  0.38275689025E+02 -0.15775276298E+02 -0.23454385600E+02  0.47764718323E+02  0.41800000000E+01 0.  1.
         -5    1    3    3    0  502 -0.75685162665E+02  0.35205317561E+02  0.13217615482E+02  0.84615814073E+02  0.41800000000E+01 0.  1.
        -11    1    1    2    0    0  0.44931002986E+02 -0.39483936207E+02 -0.19820958221E+02  0.63013067158E+02  0.00000000000E+00 0.  1.
         11    1    1    2    0    0 -0.75215293463E+01  0.20053894944E+02  0.31320358112E+02  0.37943338525E+02  0.00000000000E+00 0. -1.
</event>
<event>
 7    1  0.2855090E-009  0.6819678E+02  0.7561462E-02  0.1366335E+00
          2   -1    0    0  501    0  0.00000000000E+00  0.00000000000E+00  0.15098718076E+03  0.15098718076E+03  0.00000000000E+00 0. -1.
         -2   -1    0    0    0  501 -0.00000000000E+00 -0.00000000000E+00 -0.90031013549E+02  0.90031013549E+02  0.00000000000E+00 0.  1.
         25    2    1    2    0    0  0.10016834740E+02 -0.31992945082E+02 -0.66945423619E+01  0.12967561968E+03  0.12508822459E+03 0.  0.
          5    1    3    3  502    0  0.43044153634E+02 -0.39478496558E+02  0.40674171791E+02  0.71296644405E+02  0.41800000000E+01 0. -1.
         -5    1    3    3    0  502 -0.33027318894E+02  0.74855514763E+01 -0.47368714153E+02  0.58378975280E+02  0.41800000000E+01 0. -1.
        -11    1    1    2    0    0  0.60417422331E+01  0.25809945985E+02 -0.12541560307E+02  0.29324847756E+02  0.00000000000E+00 0.  1.
         11    1    1    2    0    0 -0.16058576973E+02  0.61829990971E+01  0.80192269879E+02  0.82017726868E+02  0.00000000000E+00 0. -1.
</event>
<event>
 7    1  0.2855090E-009  0.1138075E+03  0.7561462E-02  0.1253677E+00
          2   -1    0    0  501    0  0.00000000000E+00  0.00000000000E+00  0.59273059641E+03  0.59273059641E+03  0.00000000000E+00 0.  1.
         -2   -1    0    0    0  501 -0.00000000000E+00 -0.00000000000E+00 -0.24434606619E+02  0.24434606619E+02  0.00000000000E+00 0. -1.
         25    2    1    2    0    0 -0.26114194184E+02 -0.12298664848E+02  0.23111117855E+03  0.26438070690E+03  0.12510624699E+03 0.  0.
          5    1    3    3  502    0  0.47896494987E+02 -0.18669062498E+02  0.12051142150E+03  0.13108426007E+03  0.41800000000E+01 0.  1.
         -5    1    3    3    0  502 -0.74010689170E+02  0.63703976501E+01  0.11059975705E+03  0.13329644683E+03  0.41800000000E+01 0.  1.
        -11    1    1    2    0    0 -0.33927914825E+02 -0.13199667133E+02  0.15669326932E+03  0.16086676247E+03  0.00000000000E+00 0.  1.
         11    1    1    2    0    0  0.60042109009E+02  0.25498331982E+02  0.18049154192E+03  0.19191773366E+03  0.00000000000E+00 0. -1.
</event>
<event>
 7    1  0.2855090E-009  0.1647160E+03  0.7561462E-02  0.1183473E+00
          1   -1    0    0  501    0  0.00000000000E+00  0.00000000000E+00  0.32663435664E+03  0.32663435664E+03  0.00000000000E+00 0. -1.
         -1   -1    0    0    0  501 -0.00000000000E+00 -0.00000000000E+00 -0.87863195290E+02  0.87863195290E+02  0.00000000000E+00 0.  1.
         25    2    1    2    0    0  0.11691651986E+03 -0.37890938079E+02  0.16804878967E+03  0.24288435447E+03  0.12508884094E+03 0.  0.
          5    1    3    3  502    0  0.20710690321E+02  0.43626145405E+02  0.56832387871E+02  0.74696492338E+02  0.41800000000E+01 0.  1.
         -5    1    3    3    0  502  0.96205829542E+02 -0.81517083483E+02  0.11121640180E+03  0.16818786213E+03  0.41800000000E+01 0.  1.
        -11    1    1    2    0    0 -0.78182976376E+02  0.69646294860E+02  0.58957873992E+02  0.12016328511E+03  0.00000000000E+00 0.  1.
         11    1    1    2    0    0 -0.38733543488E+02 -0.31755356781E+02  0.11764497684E+02  0.51449912353E+02  0.00000000000E+00 0. -1.
</event>
<event>
 6    1  0.2855090E-009  0.1108399E+03  0.7561462E-02  0.1259022E+00
          1   -1    0    0  501    0  0.00000000000E+00  0.00000000000E+00  0.64921907683E+03  0.64921907683E+03  0.00000000000E+00 0. -1.
         -1   -1    0    0    0  501 -0.00000000000E+00 -0.00000000000E+00 -0.31287799060E+02  0.31287799060E+02  0.00000000000E+00 0.  1.
          5    1    1    2  502    0  0.92489951696E+01  0.12094282637E+02  0.19853144845E+03  0.19915828882E+03  0.41800000000E+01 0.  1.
         -5    1    1    2    0  502 -0.50698058685E+02  0.64731500039E+02  0.63100645286E+02  0.10372860785E+03  0.41800000000E+01 0.  1.
        -11    1    1    2    0    0  0.36876925825E+02  0.87208363625E+01  0.83749914640E+02  0.91923929677E+02  0.00000000000E+00 0.  1.
         11    1    1    2    0    0  0.45721376904E+01 -0.85546619039E+02  0.27254926940E+03  0.28569604954E+03  0.00000000000E+00 0. -1.
</event>
<event>
 7    1  0.2855090E-009  0.1241234E+03  0.7561462E-02  0.1236446E+00
         -2   -1    0    0    0  501 -0.00000000000E+00  0.00000000000E+00  0.37866035142E+03  0.37866035142E+03  0.00000000000E+00 0.  1.
          2   -1    0    0  501    0  0.00000000000E+00 -0.00000000000E+00 -0.58054545063E+02  0.58054545063E+02  0.00000000000E+00 0. -1.
         25    2    1    2    0    0  0.13664952175E+02  0.10028205998E+03  0.17131895435E+03  0.23503700227E+03  0.12509590659E+03 0.  0.
          5    1    3    3  502    0 -0.16476548479E+02 -0.10947064508E+02  0.94115693514E+02  0.96262926595E+02  0.41800000000E+01 0.  1.
         -5    1    3    3    0  502  0.30141500654E+02  0.11122912449E+03  0.77203260834E+02  0.13877407568E+03  0.41800000000E+01 0.  1.
        -11    1    1    2    0    0 -0.32413332922E+02 -0.57603679287E+02  0.13903857775E+03  0.15394977792E+03  0.00000000000E+00 0.  1.
         11    1    1    2    0    0  0.18748380747E+02 -0.42678380696E+02  0.10248274258E+02  0.47728116291E+02  0.00000000000E+00 0. -1.
</event>
<event>
 7    1  0.2855090E-009  0.1256195E+03  0.7561462E-02  0.1234104E+00
         -1   -1    0    0    0  501 -0.00000000000E+00  0.00000000000E+00  0.95465260809E+02  0.95465260809E+02  0.00000000000E+00 0.  1.
          1   -1    0    0  501    0  0.00000000000E+00 -0.00000000000E+00 -0.19669619186E+03  0.19669619186E+03  0.00000000000E+00 0. -1.
         25    2    1    2    0    0  0.78277903922E+02 -0.17838010603E+02 -0.28275593341E+02  0.15130143375E+03  0.12508792832E+03 0.  0.
          5    1    3    3  502    0 -0.65467077552E+01  0.31562434457E+02  0.23627481388E+02  0.40184287079E+02  0.41800000000E+01 0. -1.
         -5    1    3    3    0  502  0.84824611677E+02 -0.49400445061E+02 -0.51903074729E+02  0.11111714667E+03  0.41800000000E+01 0. -1.
        -11    1    1    2    0    0  0.33353347230E+01 -0.27108840694E+02 -0.17311729016E+02  0.32337434392E+02  0.00000000000E+00 0.  1.
         11    1    1    2    0    0 -0.81613238645E+02  0.44946851298E+02 -0.55643608693E+02  0.10852258453E+03  0.00000000000E+00 0. -1.
</event>
<event>
 7    1  0.2855090E-009  0.1029307E+03  0.7561462E-02  0.1274251E+00
          1   -1    0    0  501    0  0.00000000000E+00  0.00000000000E+00  0.84118674760E+02  0.84118674760E+02  0.00000000000E+00 0. -1.
         -1   -1    0    0    0  501 -0.00000000000E+00 -0.00000000000E+00 -0.15102859768E+03  0.15102859768E+03  0.00000000000E+00 0.  1.
         25    2    1    2    0    0 -0.23780046822E+02  0.23655364933E+01 -0.30337794358E+02  0.13091534495E+03  0.12508940557E+03 0.  0.
          5    1    3    3  502    0  0.31526278071E+02 -0.43394805730E+02 -0.23425914229E+02  0.58679308370E+02  0.41800000000E+01 0. -1.
         -5    1    3    3    0  502 -0.55306324893E+02  0.45760342223E+02 -0.69118801288E+01  0.72236036577E+02  0.41800000000E+01 0. -1.
        -11    1    1    2    0    0  0.70468410271E+01 -0.39131888019E+02 -0.47925066140E+02  0.62271780069E+02  0.00000000000E+00 0.  1.
         11    1    1    2    0    0  0.16733205795E+02  0.36766351526E+02  0.11352937573E+02  0.41960147429E+02  0.00000000000E+00 0. -1.
</event>
<event>
 7    1  0.2855090E-009  0.4411502E+02  0.7561462E-02  0.1479943E+00
          1   -1    0    0  501    0  0.00000000000E+00  0.00000000000E+00  0.14478801749E+03  0.14478801749E+03  0.00000000000E+00 0. -1.
         -1   -1    0    0    0  501 -0.00000000000E+00 -0.00000000000E+00 -0.10101181435E+03  0.10101181435E+03  0.00000000000E+00 0.  1.
         25    2    1    2    0    0  0.49911308426E+01  0.17443588841E+02 -0.25103194876E+02  0.12892336194E+03  0.12514740381E+03 0.  0.
          5    1    3    3  502    0  0.20042360734E+02  0.26692966201E+02  0.45182737301E+02  0.56330833638E+02  0.41800000000E+01 0. -1.
         -5    1    3    3    0  502 -0.15051229892E+02 -0.92493773594E+01 -0.70285932177E+02  0.72592528298E+02  0.41800000000E+01 0. -1.
        -11    1    1    2    0    0  0.13211125327E+02 -0.10783011348E+02  0.88007644547E+02  0.89644590829E+02  0.00000000000E+00 0. -1.
         11    1    1    2    0    0 -0.18202256170E+02 -0.66605774929E+01 -0.19128246533E+02  0.27231879069E+02  0.00000000000E+00 0.  1.
</event>
<event>
 7    1  0.2855090E-009  0.1003703E+03  0.7561462E-02  0.1279519E+00
         -2   -1    0    0    0  501 -0.00000000000E+00  0.00000000000E+00  0.16085180054E+02  0.16085180054E+02  0.00000000000E+00 0.  1.
          2   -1    0    0  501    0  0.00000000000E+00 -0.00000000000E+00 -0.12913443860E+04  0.12913443860E+04  0.00000000000E+00 0. -1.
         25    2    1    2    0    0 -0.68159888677E+02 -0.12058073975E+02 -0.98919430910E+03  0.99947184231E+03  0.12508962721E+03 0.  0.
          5    1    3    3  502    0 -0.76483294930E+02 -0.13682070218E+02 -0.29128373202E+03  0.30149722783E+03  0.41800000000E+01 0. -1.
         -5    1    3    3    0  502  0.83234062535E+01  0.16239962427E+01 -0.69791057708E+03  0.69797461448E+03  0.41800000000E+01 0. -1.
        -11    1    1    2    0    0  0.55914709171E+02  0.49131023412E+02 -0.17268016097E+03  0.18803922505E+03  0.00000000000E+00 0.  1.
         11    1    1    2    0    0  0.12245179506E+02 -0.37072949436E+02 -0.11338473585E+03  0.11991849867E+03  0.00000000000E+00 0. -1.
</event>
<event>
 7    1  0.2855090E-009  0.1376213E+03  0.7561462E-02  0.1216566E+00
          1   -1    0    0  501    0  0.00000000000E+00  0.00000000000E+00  0.29966453019E+03  0.29966453019E+03  0.00000000000E+00 0. -1.
         -1   -1    0    0    0  501 -0.00000000000E+00 -0.00000000000E+00 -0.94619807550E+02  0.94619807550E+02  0.00000000000E+00 0.  1.
         25    2    1    2    0    0  0.44096672749E+02 -0.11161677436E+03  0.16303312810E+03  0.23797443017E+03  0.12509679328E+03 0.  0.
          5    1    3    3  502    0 -0.22730392985E+02 -0.26432482167E+02  0.11355975863E+03  0.11886394768E+03  0.41800000000E+01 0.  1.
         -5    1    3    3    0  502  0.66827065734E+02 -0.85184292196E+02  0.49473369470E+02  0.11911048249E+03  0.41800000000E+01 0.  1.
        -11    1    1    2    0    0  0.12972044119E+02  0.19584282878E+02  0.41881312337E+02  0.48019395952E+02  0.00000000000E+00 0. -1.
         11    1    1    2    0    0 -0.57068716868E+02  0.92032491485E+02  0.13028220655E+00  0.10829051162E+03  0.00000000000E+00 0.  1.
</event>
<event>
 7    1  0.3839598E-009  0.1255354E+03  0.7561462E-02  0.1234235E+00
         -2   -1    0    0    0  501 -0.00000000000E+00  0.00000000000E+00  0.41970381407E+02  0.41970381407E+02  0.00000000000E+00 0. -1.
          2   -1    0    0  501    0  0.00000000000E+00 -0.00000000000E+00 -0.49574271338E+03  0.49574271338E+03  0.00000000000E+00 0.  1.
         25    2    1    2    0    0 -0.55616266918E+02  0.72353966661E+02 -0.29311388113E+03  0.33149731872E+03  0.12508580803E+03 0.  0.
          5    1    3    3  502    0 -0.66444782174E+02  0.19901866827E+02 -0.25829679248E+03  0.26748027738E+03  0.41800000000E+01 0.  1.
         -5    1    3    3    0  502  0.10828515256E+02  0.52452099835E+02 -0.34817088646E+02  0.64017041337E+02  0.41800000000E+01 0.  1.
        -11    1    1    2    0    0  0.30921733902E+02 -0.91520277940E+02 -0.10733731935E+03  0.14440711557E+03  0.00000000000E+00 0. -1.
         11    1    1    2    0    0  0.24694533017E+02  0.19166311279E+02 -0.53321131498E+02  0.61808660503E+02  0.00000000000E+00 0.  1.
</event>
<event>
 7    1  0.2855090E-009  0.1606436E+03  0.7561462E-02  0.1187972E+00
          1   -1    0    0  501    0  0.00000000000E+00  0.00000000000E+00  0.12100073604E+04  0.12100073604E+04  0.00000000000E+00 0. -1.
         -1   -1    0    0    0  501 -0.00000000000E+00 -0.00000000000E+00 -0.25762382693E+02  0.25762382693E+02  0.00000000000E+00 0.  1.
         25    2    1    2    0    0 -0.11703235726E+03 -0.12552277242E+02  0.87232757482E+03  0.88907716062E+03  0.12509463388E+03 0.  0.
          5    1    3    3  502    0  0.26899260945E+02 -0.10013816923E+01  0.14780801512E+03  0.15029722133E+03  0.41800000000E+01 0. -1.
         -5    1    3    3    0  502 -0.14393161821E+03 -0.11550895549E+02  0.72451955970E+03  0.73877993929E+03  0.41800000000E+01 0. -1.
        -11    1    1    2    0    0 -0.59416701015E+01 -0.21243181151E+02  0.67349299082E+02  0.70869628727E+02  0.00000000000E+00 0. -1.
         11    1    1    2    0    0  0.12297402736E+03  0.33795458392E+02  0.24456810375E+03  0.27582295370E+03  0.00000000000E+00 0.  1.
</event>
<event>
 7    1  0.2855090E-009  0.1426371E+03  0.7561462E-02  0.1209824E+00
         -2   -1    0    0    0  501 -0.00000000000E+00  0.00000000000E+00  0.17855410609E+03  0.17855410609E+03  0.00000000000E+00 0.  1.
          2   -1    0    0  501    0  0.00000000000E+00 -0.00000000000E+00 -0.16331633271E+03  0.16331633271E+03  0.00000000000E+00 0. -1.
         25    2    1    2    0    0  0.80407060567E+02  0.95904817968E+02  0.50380909444E+02  0.18398545741E+03  0.12509749399E+03 0.  0.
          5    1    3    3  502    0  0.40373394762E+02 -0.13916387947E+02  0.51476925977E+02  0.67015096554E+02  0.41800000000E+01 0. -1.
         -5    1    3    3    0  502  0.40033665805E+02  0.10982120591E+03 -0.10960165331E+01  0.11697036086E+03  0.41800000000E+01 0. -1.
        -11    1    1    2    0    0 -0.37795533830E+02 -0.51217999429E+02  0.28026123508E+02  0.69550337468E+02  0.00000000000E+00 0.  1.
         11    1    1    2    0    0 -0.42611526737E+02 -0.44686818539E+02 -0.63169259574E+02  0.88334643924E+02  0.00000000000E+00 0. -1.
</event>
<event>
 7    1  0.2855090E-009  0.1171644E+03  0.7561462E-02  0.1247849E+00
          1   -1    0    0  501    0  0.00000000000E+00  0.00000000000E+00  0.22580533996E+03  0.22580533996E+03  0.00000000000E+00 0. -1.
         -1   -1    0    0    0  501 -0.00000000000E+00 -0.00000000000E+00 -0.99307740113E+02  0.99307740113E+02  0.00000000000E+00 0.  1.
         25    2    1    2    0    0  0.18438584313E+02 -0.94477161054E+02  0.28156161851E+02  0.16031462831E+03  0.12506836229E+03 0.  0.
          5    1    3    3  502    0  0.26179767583E+02 -0.45709160575E+02 -0.46714571017E+02  0.70529647216E+02  0.41800000000E+01 0. -1.
         -5    1    3    3    0  502 -0.77411832698E+01 -0.48768000479E+02  0.74870732868E+02  0.89784981090E+02  0.41800000000E+01 0. -1.
        -11    1    1    2    0    0  0.26569531933E+02 -0.77649841197E+00  0.15437496342E+02  0.30738563243E+02  0.00000000000E+00 0. -1.
         11    1    1    2    0    0 -0.45008116246E+02  0.95253659466E+02  0.82903941657E+02  0.13405988853E+03  0.00000000000E+00 0.  1.
</event>
<event>
 7    1  0.2855090E-009  0.1304138E+03  0.7561462E-02  0.1226843E+00
          1   -1    0    0  501    0  0.00000000000E+00  0.00000000000E+00  0.89514814241E+02  0.89514814241E+02  0.00000000000E+00 0. -1.
         -1   -1    0    0    0  501 -0.00000000000E+00 -0.00000000000E+00 -0.28618449158E+03  0.28618449158E+03  0.00000000000E+00 0.  1.
         25    2    1    2    0    0 -0.11648605167E+03  0.15807432198E+02 -0.11741283522E+03  0.20797184807E+03  0.12509052950E+03 0.  0.
          5    1    3    3  502    0 -0.11001243844E+02 -0.12733776894E+01 -0.98698988471E+02  0.99406295485E+02  0.41800000000E+01 0. -1.
         -5    1    3    3    0  502 -0.10548480782E+03  0.17080809887E+02 -0.18713846745E+02  0.10856555259E+03  0.41800000000E+01 0. -1.
        -11    1    1    2    0    0  0.54234565821E+02 -0.47590275280E+02 -0.63410928725E+02  0.96058150684E+02  0.00000000000E+00 0.  1.
         11    1    1    2    0    0  0.62251485847E+02  0.31782843082E+02 -0.15845913403E+02  0.71669307071E+02  0.00000000000E+00 0. -1.
</event>
<event>
 7    1  0.2855090E-009  0.1205778E+03  0.7561462E-02  0.1242147E+00
         -2   -1    0    0    0  501 -0.00000000000E+00  0.00000000000E+00  0.78234497756E+02  0.78234497756E+02  0.00000000000E+00 0.  1.
          2   -1    0    0  501    0  0.00000000000E+00 -0.00000000000E+00 -0.19751104773E+03  0.19751104773E+03  0.00000000000E+00 0. -1.
         25    2    1    2    0    0 -0.56324930783E+02  0.14221298129E+02 -0.47882871949E+02  0.14600192709E+03  0.12509616357E+03 0.  0.
          5    1    3    3  502    0 -0.95741403693E+01  0.64223364521E+02 -0.53148218076E+01  0.65284182196E+02  0.41800000000E+01 0.  1.
         -5    1    3    3    0  502 -0.46750790414E+02 -0.50002066392E+02 -0.42568050141E+02  0.80717744893E+02  0.41800000000E+01 0.  1.
        -11    1    1    2    0    0 -0.12544220947E+02  0.25202969452E+02 -0.26004851868E+02  0.38324919687E+02  0.00000000000E+00 0.  1.
         11    1    1    2    0    0  0.68869151730E+02 -0.39424267580E+02 -0.45388826161E+02  0.91418698714E+02  0.00000000000E+00 0. -1.
</event>
<event>
 7    1  0.2855090E-009  0.6669072E+02  0.7561462E-02  0.1371722E+00
         -2   -1    0    0    0  501 -0.00000000000E+00  0.00000000000E+00  0.63473895949E+02  0.63473895949E+02  0.00000000000E+00 0.  1.
          2   -1    0    0  501    0  0.00000000000E+00 -0.00000000000E+00 -0.21305981008E+03  0.21305981008E+03  0.00000000000E+00 0. -1.
         25    2    1    2    0    0  0.37703486538E+02 -0.57219479716E+01 -0.10799844351E+03  0.16960494367E+03  0.12509148465E+03 0.  0.
          5    1    3    3  502    0  0.52168928766E+01 -0.22446470050E+02  0.23429614010E+02  0.33128223642E+02  0.41800000000E+01 0. -1.
         -5    1    3    3    0  502  0.32486593661E+02  0.16724522079E+02 -0.13142805752E+03  0.13647672003E+03  0.41800000000E+01 0. -1.
        -11    1    1    2    0    0 -0.47758050463E+02 -0.15077291829E+02  0.93961093976E+01  0.50955303794E+02  0.00000000000E+00 0.  1.
         11    1    1    2    0    0  0.10054563925E+02  0.20799239800E+02 -0.50983580012E+02  0.55973458557E+02  0.00000000000E+00 0. -1.
</event>
<event>
 7    1  0.2855090E-009  0.9610883E+02  0.7561462E-02  0.1288698E+00
          2   -1    0    0  501    0  0.00000000000E+00  0.00000000000E+00  0.70996412034E+02  0.70996412034E+02  0.00000000000E+00 0. -1.
         -2   -1    0    0    0  501 -0.00000000000E+00 -0.00000000000E+00 -0.21950322555E+03  0.21950322555E+03  0.00000000000E+00 0.  1.
         25    2    1    2    0    0 -0.50715407843E+02 -0.17576720804E+02 -0.11880713943E+03  0.18067143504E+03  0.12508412110E+03 0.  0.
          5    1    3    3  502    0 -0.37942664536E+02  0.50079074478E+02 -0.34699515707E+02  0.71896371834E+02  0.41800000000E+01 0. -1.
         -5    1    3    3    0  502 -0.12772743307E+02 -0.67655795282E+02 -0.84107623719E+02  0.10877506320E+03  0.41800000000E+01 0. -1.
        -11    1    1    2    0    0  0.40534107784E+02  0.25042713529E+02 -0.60226002750E+02  0.76794028426E+02  0.00000000000E+00 0.  1.
         11    1    1    2    0    0  0.10181300059E+02 -0.74659927250E+01  0.30526328662E+02  0.33034174121E+02  0.00000000000E+00 0. -1.
</event>
<event>
 7    1  0.2855090E-009  0.1006428E+03  0.7561462E-02  0.1278950E+00
          2   -1    0    0  501    0  0.00000000000E+00  0.00000000000E+00  0.44987522570E+02  0.44987522570E+02  0.00000000000E+00 0.  1.
         -2   -1    0    0    0  501 -0.00000000000E+00 -0.00000000000E+00 -0.31750827439E+03  0.31750827439E+03  0.00000000000E+00 0. -1.
         25    2    1    2    0    0  0.18184999666E+02 -0.45514913259E+02 -0.16807177436E+03  0.21517088731E+03  0.12509231738E+03 0.  0.
          5    1    3    3  502    0 -0.49474093227E+02  0.48155643085E+01 -0.64927170779E+02  0.81877258538E+02  0.41800000000E+01 0. -1.
         -5    1    3    3    0  502  0.67659092893E+02 -0.50330477567E+02 -0.10314460358E+03  0.13329362877E+03  0.41800000000E+01 0. -1.
        -11    1    1    2    0    0 -0.16906396665E+02 -0.40551514951E+01 -0.95335500239E+02  0.96907833057E+02  0.00000000000E+00 0. -1.
         11    1    1    2    0    0 -0.12786030013E+01  0.49570064754E+02 -0.91134772225E+01  0.50417076595E+02  0.00000000000E+00 0.  1.
</event>
<event>
 7    1  0.2855090E-009  0.1046608E+03  0.7561462E-02  0.1270789E+00
          1   -1    0    0  501    0  0.00000000000E+00  0.00000000000E+00  0.15886687370E+04  0.15886687370E+04  0.00000000000E+00 0. -1.
         -1   -1    0    0    0  501 -0.00000000000E+00 -0.00000000000E+00 -0.13114736483E+02  0.13114736483E+02  0.00000000000E+00 0.  1.
         25    2    1    2    0    0  0.24041416673E+02 -0.67040886685E+02  0.12109917452E+04  0.12195167454E+04  0.12509042763E+03 0.  0.
          5    1    3    3  502    0  0.34753860808E+02 -0.77624432835E+02  0.11914747301E+04  0.11945136618E+04  0.41800000000E+01 0.  1.
         -5    1    3    3    0  502 -0.10712444135E+02  0.10583546150E+02  0.19517015114E+02  0.25003083558E+02  0.41800000000E+01 0.  1.
        -11    1    1    2    0    0 -0.53473554472E+02  0.30286004598E+02  0.26638329265E+03  0.27338017797E+03  0.00000000000E+00 0. -1.
         11    1    1    2    0    0  0.29432137799E+02  0.36754882087E+02  0.98178962647E+02  0.10888655013E+03  0.00000000000E+00 0.  1.
</event>
<event>
 7    1  0.2855090E-009  0.1871368E+03  0.7561462E-02  0.1161069E+00
         -2   -1    0    0    0  501 -0.00000000000E+00  0.00000000000E+00  0.56869504590E+02  0.56869504590E+02  0.00000000000E+00 0.  1.
          2   -1    0    0  501    0  0.00000000000E+00 -0.00000000000E+00 -0.65803744108E+03  0.65803744108E+03  0.00000000000E+00 0. -1.
         25    2    1    2    0    0 -0.12757568060E+03 -0.90259428934E+02 -0.25084045404E+03  0.32092061522E+03  0.12508712603E+03 0.  0.
          5    1    3    3  502    0 -0.10836893002E+03 -0.19902192208E+01 -0.11865087195E+03  0.16075847655E+03  0.41800000000E+01 0. -1.
         -5    1    3    3    0  502 -0.19206750578E+02 -0.88269209713E+02 -0.13218958210E+03  0.16016213868E+03  0.41800000000E+01 0. -1.
        -11    1    1    2    0    0  0.88476018028E+02  0.10154134347E+03 -0.22511626113E+03  0.26232800313E+03  0.00000000000E+00 0.  1.
         11    1    1    2    0    0  0.39099662575E+02 -0.11281914536E+02 -0.12521122131E+03  0.13165832732E+03  0.00000000000E+00 0. -1.
</event>
<event>
 7    1  0.2855090E-009  0.2252088E+03  0.7561462E-02  0.1130058E+00
         -2   -1    0    0    0  501 -0.00000000000E+00  0.00000000000E+00  0.12216674342E+03  0.12216674342E+03  0.00000000000E+00 0.  1.
          2   -1    0    0  501    0  0.00000000000E+00 -0.00000000000E+00 -0.45467128882E+03  0.45467128882E+03  0.00000000000E+00 0. -1.
         25    2    1    2    0    0  0.19992722481E+03  0.18349866041E+01 -0.24946294249E+03  0.34329799109E+03  0.12508992211E+03 0.  0.
          5    1    3    3  502    0  0.18009617354E+03 -0.42579159584E+02 -0.17841201154E+03  0.25709129666E+03  0.41800000000E+01 0. -1.
         -5    1    3    3    0  502  0.19831051273E+02  0.44414146188E+02 -0.71050930945E+02  0.86206694429E+02  0.41800000000E+01 0. -1.
        -11    1    1    2    0    0 -0.15866805008E+03  0.33501849525E+02 -0.48899329594E+02  0.16937847701E+03  0.00000000000E+00 0.  1.
         11    1    1    2    0    0 -0.41259174731E+02 -0.35336836129E+02 -0.34142273307E+02  0.64161564146E+02  0.00000000000E+00 0. -1.
</event>
<event>
 7    1  0.2855090E-009  0.1161677E+03  0.7561462E-02  0.1249556E+00
          1   -1    0    0  501    0  0.00000000000E+00  0.00000000000E+00  0.13150572902E+04  0.13150572902E+04  0.00000000000E+00 0. -1.
         -1   -1    0    0    0  501 -0.00000000000E+00 -0.00000000000E+00 -0.13804222522E+02  0.13804222522E+02  0.00000000000E+00 0.  1.
         25    2    1    2    0    0  0.56279387249E+02  0.55631050452E+02  0.70093781843E+03  0.71639653169E+03  0.12509189468E+03 0.  0.
          5    1    3    3  502    0  0.21457076315E+01  0.56943806413E+02  0.11981678313E+03  0.13274311684E+03  0.41800000000E+01 0.  1.
         -5    1    3    3    0  502  0.54133679618E+02 -0.13127559604E+01  0.58112103530E+03  0.58365341485E+03  0.41800000000E+01 0.  1.
        -11    1    1    2    0    0 -0.38897291372E+01 -0.67136599311E+02  0.30607690787E+03  0.31337761007E+03  0.00000000000E+00 0. -1.
         11    1    1    2    0    0 -0.52389658112E+02  0.11505548858E+02  0.29423834139E+03  0.29908737097E+03  0.00000000000E+00 0.  1.
</event>
<event>
 7    1  0.2855090E-009  0.1511059E+03  0.7561462E-02  0.1199121E+00
          2   -1    0    0  501    0  0.00000000000E+00  0.00000000000E+00  0.23164659956E+03  0.23164659956E+03  0.00000000000E+00 0. -1.
         -2   -1    0    0    0  501 -0.00000000000E+00 -0.00000000000E+00 -0.12085554292E+03  0.12085554292E+03  0.00000000000E+00 0.  1.
         25    2    1    2    0    0 -0.11256671203E+03  0.35288736367E+02  0.10993803779E+03  0.20408472708E+03  0.12509054362E+03 0.  0.
          5    1    3    3  502    0 -0.33636419691E+02 -0.38181731408E+02  0.74859607891E+02  0.90612839248E+02  0.41800000000E+01 0.  1.
         -5    1    3    3    0  502 -0.78930292340E+02  0.73470467775E+02  0.35078429902E+02  0.11347188783E+03  0.41800000000E+01 0.  1.
        -11    1    1    2    0    0  0.49685004342E+02 -0.58012019782E+02 -0.18928500173E+02  0.78691055492E+02  0.00000000000E+00 0. -1.
         11    1    1    2    0    0  0.62881707688E+02  0.22723283415E+02  0.19781519014E+02  0.69726359904E+02  0.00000000000E+00 0.  1.
</event>
<event>
 7    1  0.2855090E-009  0.1077175E+03  0.7561462E-02  0.1264856E+00
          3   -1    0    0  501    0  0.00000000000E+00  0.00000000000E+00  0.72053647142E+02  0.72053647142E+02  0.00000000000E+00 0. -1.
         -3   -1    0    0    0  501 -0.00000000000E+00 -0.00000000000E+00 -0.18876205568E+03  0.18876205568E+03  0.00000000000E+00 0.  1.
         25    2    1    2    0    0 -0.28026763043E+02  0.32938803432E+02 -0.58422029004E+02  0.14467469240E+03  0.12508864429E+03 0.  0.
          5    1    3    3  502    0 -0.68813403625E+02  0.16930440289E+02  0.67000219660E+00  0.70991870167E+02  0.41800000000E+01 0. -1.
         -5    1    3    3    0  502  0.40786640582E+02  0.16008363143E+02 -0.59092031201E+02  0.73682822231E+02  0.41800000000E+01 0. -1.
        -11    1    1    2    0    0 -0.92641654046E+01 -0.55884253300E+02 -0.31604104539E+02  0.64866739946E+02  0.00000000000E+00 0. -1.
         11    1    1    2    0    0  0.37290928448E+02  0.22945449868E+02 -0.26682274992E+02  0.51274270477E+02  0.00000000000E+00 0.  1.
</event>
<event>
 7    1  0.2855090E-009  0.3923814E+03  0.7561462E-02  0.1046450E+00
          2   -1    0    0  501    0  0.00000000000E+00  0.00000000000E+00  0.20087748873E+04  0.20087748873E+04  0.00000000000E+00 0.  1.
         -2   -1    0    0    0  501 -0.00000000000E+00 -0.00000000000E+00 -0.80507396737E+02  0.80507396737E+02  0.00000000000E+00 0. -1.
         25    2    1    2    0    0  0.33086818751E+03  0.19400079158E+03  0.11030427801E+04  0.11745046696E+04  0.12509108446E+03 0.  0.
          5    1    3    3  502    0  0.18944398946E+03  0.16291012695E+03  0.80899087968E+03  0.84670682672E+03  0.41800000000E+01 0. -1.
         -5    1    3    3    0  502  0.14142419806E+03  0.31090664628E+02  0.29405190045E+03  0.32779784286E+03  0.41800000000E+01 0. -1.
        -11    1    1    2    0    0 -0.13595745737E+03 -0.12058999265E+03  0.31472957731E+03  0.36342961269E+03  0.00000000000E+00 0. -1.
         11    1    1    2    0    0 -0.19491073014E+03 -0.73410798933E+02  0.51049513311E+03  0.55134800177E+03  0.00000000000E+00 0.  1.
</event>
<event>
 7    1  0.2855090E-009  0.8969796E+02  0.7561462E-02  0.1303585E+00
         -2   -1    0    0    0  501 -0.00000000000E+00  0.00000000000E+00  0.23160785030E+02  0.23160785030E+02  0.00000000000E+00 0.  1.
          2   -1    0    0  501    0  0.00000000000E+00 -0.00000000000E+00 -0.52055418365E+03  0.52055418365E+03  0.00000000000E+00 0. -1.
         25    2    1    2    0    0 -0.67038640087E+00 -0.62789374911E+01 -0.33294068769E+03  0.35572128521E+03  0.12509299246E+03 0.  0.
          5    1    3    3  502    0  0.54143717771E+02  0.37936808280E+01 -0.24897170569E+03  0.25485352032E+03  0.41800000000E+01 0. -1.
         -5    1    3    3    0  502 -0.54814104172E+02 -0.10072618319E+02 -0.83968982000E+02  0.10086776489E+03  0.41800000000E+01 0. -1.
        -11    1    1    2    0    0 -0.22476441982E+02  0.28963062966E+02 -0.23925224215E+02  0.43777457833E+02  0.00000000000E+00 0.  1.
         11    1    1    2    0    0  0.23146828383E+02 -0.22684125475E+02 -0.14052748672E+03  0.14421622563E+03  0.00000000000E+00 0. -1.
</event>
<event>
 7    1  0.2855090E-009  0.1047174E+03  0.7561462E-02  0.1270677E+00
         -1   -1    0    0    0  501 -0.00000000000E+00  0.00000000000E+00  0.11533948490E+04  0.11533948490E+04  0.00000000000E+00 0.  1.
          1   -1    0    0  501    0  0.00000000000E+00 -0.00000000000E+00 -0.13623000876E+02  0.13623000876E+02  0.00000000000E+00 0. -1.
         25    2    1    2    0    0  0.24052103926E+02  0.45867184503E+01  0.90301488787E+03  0.91196635383E+03  0.12508877289E+03 0.  0.
          5    1    3    3  502    0 -0.38223207337E+02 -0.25910318781E+02  0.19000968573E+03  0.19558504869E+03  0.41800000000E+01 0. -1.
         -5    1    3    3    0  502  0.62275311263E+02  0.30497037231E+02  0.71300520214E+03  0.71638130514E+03  0.41800000000E+01 0. -1.
        -11    1    1    2    0    0 -0.22482886889E+02  0.41653590468E+02  0.14035724358E+03  0.14812379156E+03  0.00000000000E+00 0. -1.
         11    1    1    2    0    0 -0.15692170365E+01 -0.46240308919E+02  0.96399716627E+02  0.10692770444E+03  0.00000000000E+00 0.  1.
</event>
<event>
 7    1  0.2855090E-009  0.1071259E+03  0.7561462E-02  0.1265987E+00
         -2   -1    0    0    0  501 -0.00000000000E+00  0.00000000000E+00  0.21438966480E+02  0.21438966480E+02  0.00000000000E+00 0.  1.
          2   -1    0    0  501    0  0.00000000000E+00 -0.00000000000E+00 -0.80794855944E+03  0.80794855944E+03  0.00000000000E+00 0. -1.
         25    2    1    2    0    0 -0.67410682883E+02  0.24513127672E+02 -0.51435351283E+03  0.53418334818E+03  0.12508884727E+03 0.  0.
          5    1    3    3  502    0  0.13839946577E+02  0.99937159361E+01 -0.51462757726E+01  0.18313247494E+02  0.41800000000E+01 0. -1.
         -5    1    3    3    0  502 -0.81250629460E+02  0.14519411736E+02 -0.50920723706E+03  0.51587010068E+03  0.41800000000E+01 0. -1.
        -11    1    1    2    0    0 -0.16745347070E+02  0.13673205009E+02 -0.60730584454E+02  0.64463688010E+02  0.00000000000E+00 0.  1.
         11    1    1    2    0    0  0.84156029953E+02 -0.38186332681E+02 -0.21142549567E+03  0.23074048973E+03  0.00000000000E+00 0. -1.
</event>
<event>
 7    1  0.2855090E-009  0.1045546E+03  0.7561462E-02  0.1271000E+00
          2   -1    0    0  501    0  0.00000000000E+00  0.00000000000E+00  0.41975462993E+03  0.41975462993E+03  0.00000000000E+00 0. -1.
         -2   -1    0    0    0  501 -0.00000000000E+00 -0.00000000000E+00 -0.31345643729E+02  0.31345643729E+02  0.00000000000E+00 0.  1.
         25    2    1    2    0    0  0.26435467557E+02 -0.28721887111E+02  0.20824608815E+03  0.24605250933E+03  0.12510644817E+03 0.  0.
          5    1    3    3  502    0 -0.30948799456E+02 -0.42689297395E+02  0.16348767721E+03  0.17183101379E+03  0.41800000000E+01 0.  1.
         -5    1    3    3    0  502  0.57384267012E+02  0.13967410285E+02  0.44758410936E+02  0.74221495540E+02  0.41800000000E+01 0.  1.
        -11    1    1    2    0    0 -0.54128095024E+02  0.39796854376E+02  0.11132561106E+03  0.13002704321E+03  0.00000000000E+00 0.  1.
         11    1    1    2    0    0  0.27692627467E+02 -0.11074967265E+02  0.68837286995E+02  0.75020721116E+02  0.00000000000E+00 0. -1.
</event>
<event>
 7    1  0.2855090E-009  0.9121019E+02  0.7561462E-02  0.1299947E+00
          2   -1    0    0  501    0  0.00000000000E+00  0.00000000000E+00  0.15888548314E+03  0.15888548314E+03  0.00000000000E+00 0. -1.
         -2   -1    0    0    0  501 -0.00000000000E+00 -0.00000000000E+00 -0.76975908250E+02  0.76975908250E+02  0.00000000000E+00 0.  1.
         25    2    1    2    0    0  0.11070588977E+02  0.40879513828E+01  0.20358627357E+02  0.12725627975E+03  0.12506165576E+03 0.  0.
          5    1    3    3  502    0  0.60372603776E+02 -0.14239230773E+02  0.36482425653E+02  0.72083609518E+02  0.41800000000E+01 0.  1.
         -5    1    3    3    0  502 -0.49302014798E+02  0.18327182156E+02 -0.16123798296E+02  0.55172670231E+02  0.41800000000E+01 0.  1.
        -11    1    1    2    0    0 -0.22825192065E+02  0.26347880416E+02  0.67000209836E+02  0.75526341850E+02  0.00000000000E+00 0. -1.
         11    1    1    2    0    0  0.11754603088E+02 -0.30435831799E+02 -0.54492623044E+01  0.33078769788E+02  0.00000000000E+00 0.  1.
</event>
<event>
 7    1  0.2855090E-009  0.6892642E+02  0.7561462E-02  0.1363782E+00
         -1   -1    0    0    0  501 -0.00000000000E+00  0.00000000000E+00  0.44635483441E+02  0.44635483441E+02  0.00000000000E+00 0.  1.
          1   -1    0    0  501    0  0.00000000000E+00 -0.00000000000E+00 -0.32542557102E+03  0.32542557102E+03  0.00000000000E+00 0. -1.
         25    2    1    2    0    0  0.29839854735E+02 -0.24773113118E+02 -0.20421703813E+03  0.24260361356E+03  0.12509112912E+03 0.  0.
          5    1    3    3  502    0  0.18743188442E+02  0.13432625834E+02 -0.20111949159E+03  0.20248028261E+03  0.41800000000E+01 0.  1.
         -5    1    3    3    0  502  0.11096666293E+02 -0.38205738952E+02 -0.30975465406E+01  0.40123330946E+02  0.41800000000E+01 0.  1.
        -11    1    1    2    0    0 -0.28438336979E+02 -0.16658748293E+02  0.74269546069E+01  0.33784797759E+02  0.00000000000E+00 0.  1.
         11    1    1    2    0    0 -0.14015177560E+01  0.41431861411E+02 -0.84000004053E+02  0.93672643140E+02  0.00000000000E+00 0. -1.
</event>
<event>
 7    1  0.2855090E-009  0.8892559E+02  0.7561462E-02  0.1305475E+00
          1   -1    0    0  501    0  0.00000000000E+00  0.00000000000E+00  0.25046847270E+03  0.25046847270E+03  0.00000000000E+00 0. -1.
         -1   -1    0    0    0  501 -0.00000000000E+00 -0.00000000000E+00 -0.52311270390E+02  0.52311270390E+02  0.00000000000E+00 0.  1.
         25    2    1    2    0    0 -0.15734551374E+02 -0.14919489564E+02  0.15062769496E+03  0.19699072426E+03  0.12508587322E+03 0.  0.
          5    1    3    3  502    0 -0.27035821023E+02 -0.49552426218E+02  0.14999121326E+03  0.16031598491E+03  0.41800000000E+01 0.  1.
         -5    1    3    3    0  502  0.11301269649E+02  0.34632936654E+02  0.63648169638E+00  0.36674739344E+02  0.41800000000E+01 0.  1.
        -11    1    1    2    0    0 -0.13230612563E+02 -0.29053304463E+02  0.42127801360E+02  0.52857310341E+02  0.00000000000E+00 0. -1.
         11    1    1    2    0    0  0.28965163938E+02  0.43972794027E+02  0.54017059924E+01  0.52931708494E+02  0.00000000000E+00 0.  1.
</event>
<event>
 7    1  0.2855090E-009  0.1141456E+03  0.7561462E-02  0.1253080E+00
         -4   -1    0    0    0  501 -0.00000000000E+00  0.00000000000E+00  0.17865447155E+03  0.17865447155E+03  0.00000000000E+00 0.  1.
          4   -1    0    0  501    0  0.00000000000E+00 -0.00000000000E+00 -0.90108311224E+02  0.90108311224E+02  0.00000000000E+00 0. -1.
         25    2    1    2    0    0  0.52704781098E+02  0.37550447683E+02  0.51978095906E+02  0.15012201500E+03  0.12508823631E+03 0.  0.
          5    1    3    3  502    0  0.52054290157E+02 -0.21324600721E+02 -0.17400758067E+02  0.59030894463E+02  0.41800000000E+01 0.  1.
         -5    1    3    3    0  502  0.65049094011E+00  0.58875048404E+02  0.69378853973E+02  0.91091120542E+02  0.41800000000E+01 0.  1.
        -11    1    1    2    0    0 -0.60557513916E+02 -0.62305241116E+02  0.28754046478E+02  0.91520220449E+02  0.00000000000E+00 0. -1.
         11    1    1    2    0    0  0.78527328183E+01  0.24754793433E+02  0.78140179435E+01  0.27120547322E+02  0.00000000000E+00 0.  1.
</event>
<event>
 7    1  0.2855090E-009  0.1959566E+03  0.7561462E-02  0.1153196E+00
          1   -1    0    0  501    0  0.00000000000E+00  0.00000000000E+00  0.13849387508E+03  0.13849387508E+03  0.00000000000E+00 0. -1.
         -1   -1    0    0    0  501 -0.00000000000E+00 -0.00000000000E+00 -0.34649544779E+03  0.34649544779E+03  0.00000000000E+00 0.  1.
         25    2    1    2    0    0 -0.36531849337E+02 -0.16782373386E+03 -0.19837430737E+03  0.29068433441E+03  0.12508251191E+03 0.  0.
          5    1    3    3  502    0 -0.67961382710E+02 -0.62705046885E+02 -0.13568594902E+03  0.16425231081E+03  0.41800000000E+01 0.  1.
         -5    1    3    3    0  502  0.31429533373E+02 -0.10511868698E+03 -0.62688358347E+02  0.12643202360E+03  0.41800000000E+01 0.  1.
        -11    1    1    2    0    0  0.57255098011E+02  0.74520413353E+02 -0.25605402256E+02  0.97401616409E+02  0.00000000000E+00 0.  1.
         11    1    1    2    0    0 -0.20723248674E+02  0.93303320512E+02  0.15978136909E+02  0.96903372043E+02  0.00000000000E+00 0. -1.
</event>
<event>
 7    1  0.2855090E-009  0.1072487E+03  0.7561462E-02  0.1265751E+00
          1   -1    0    0  501    0  0.00000000000E+00  0.00000000000E+00  0.72911358698E+03  0.72911358698E+03  0.00000000000E+00 0. -1.
         -1   -1    0    0    0  501 -0.00000000000E+00 -0.00000000000E+00 -0.17350772370E+02  0.17350772370E+02  0.00000000000E+00 0.  1.
         25    2    1    2    0    0  0.23313397976E+02  0.22118859804E+02  0.41731275649E+03  0.43684011873E+03  0.12508634665E+03 0.  0.
          5    1    3    3  502    0  0.11587465922E+02 -0.47254787108E+02  0.93933136958E+02  0.10586874369E+03  0.41800000000E+01 0. -1.
         -5    1    3    3    0  502  0.11725932054E+02  0.69373646911E+02  0.32337961953E+03  0.33097137504E+03  0.41800000000E+01 0. -1.
        -11    1    1    2    0    0  0.21481350375E+02 -0.41222258373E+02  0.12713541529E+03  0.13536667544E+03  0.00000000000E+00 0. -1.
         11    1    1    2    0    0 -0.44794748351E+02  0.19103398570E+02  0.16731464283E+03  0.17425756518E+03  0.00000000000E+00 0.  1.
</event>
<event>
 7    1  0.2855090E-009  0.2025329E+03  0.7561462E-02  0.1147619E+00
          2   -1    0    0  501    0  0.00000000000E+00  0.00000000000E+00  0.17316895255E+04  0.17316895255E+04  0.00000000000E+00 0. -1.
         -2   -1    0    0    0  501 -0.00000000000E+00 -0.00000000000E+00 -0.25980459880E+02  0.25980459880E+02  0.00000000000E+00 0.  1.
         25    2    1    2    0    0  0.21276315600E+02  0.17025854004E+03  0.11510271895E+04  0.11704494590E+04  0.12509073941E+03 0.  0.
          5    1    3    3  502    0 -0.11392351874E+02 -0.17714745230E+02  0.12256333490E+03  0.12443006607E+03  0.41800000000E+01 0.  1.
         -5    1    3    3    0  502  0.32668667474E+02  0.18797328527E+03  0.10284638546E+04  0.10460193930E+04  0.41800000000E+01 0.  1.
        -11    1    1    2    0    0  0.32695424200E+02 -0.92453712861E+02  0.28363840126E+03  0.30011234972E+03  0.00000000000E+00 0.  1.
         11    1    1    2    0    0 -0.53971739800E+02 -0.77804827184E+02  0.27104347485E+03  0.28710817663E+03  0.00000000000E+00 0. -1.
</event>
<event>
 7    1  0.2855090E-009  0.1287379E+03  0.7561462E-02  0.1229341E+00
         -2   -1    0    0    0  501 -0.00000000000E+00  0.00000000000E+00  0.83232679527E+02  0.83232679527E+02  0.00000000000E+00 0.  1.
          2   -1    0    0  501    0  0.00000000000E+00 -0.00000000000E+00 -0.28952422845E+03  0.28952422845E+03  0.00000000000E+00 0. -1.
         25    2    1    2    0    0  0.46017880863E+01 -0.89274257885E+02 -0.18896405757E+03  0.24361060616E+03  0.12509053843E+03 0.  0.
          5    1    3    3  502    0  0.63063106520E+01 -0.11838281945E+03 -0.12056316483E+03  0.16913666252E+03  0.41800000000E+01 0.  1.
         -5    1    3    3    0  502 -0.17045225657E+01  0.29108561565E+02 -0.68400892737E+02  0.74473943636E+02  0.41800000000E+01 0.  1.
        -11    1    1    2    0    0  0.29015094777E+02  0.33967486766E+02 -0.40601571212E+02  0.60366824225E+02  0.00000000000E+00 0. -1.
         11    1    1    2    0    0 -0.33616882864E+02  0.55306771118E+02  0.23274079858E+02  0.68779477595E+02  0.00000000000E+00 0.  1.
</event>
<event>
 7    1  0.2855090E-009  0.1139883E+03  0.7561462E-02  0.1253357E+00
         -1   -1    0    0    0  501 -0.00000000000E+00  0.00000000000E+00  0.18340183696E+03  0.18340183696E+03  0.00000000000E+00 0.  1.
          1   -1    0    0  501    0  0.00000000000E+00 -0.00000000000E+00 -0.93851557430E+02  0.93851557430E+02  0.00000000000E+00 0. -1.
         25    2    1    2    0    0 -0.20025945321E+02 -0.69608884514E+02  0.57677276394E+02  0.15562960217E+03  0.12508984599E+03 0.  0.
          5    1    3    3  502    0  0.13307180128E+02  0.24649712715E+02 -0.14911144411E+02  0.32007874149E+02  0.41800000000E+01 0.  1.
         -5    1    3    3    0  502 -0.33333125449E+02 -0.94258597230E+02  0.72588420804E+02  0.12362172802E+03  0.41800000000E+01 0. -1.
        -11    1    1    2    0    0 -0.13713463669E+02 -0.73493200029E+01 -0.18091862060E+02  0.23861832769E+02  0.00000000000E+00 0. -1.
         11    1    1    2    0    0  0.33739408990E+02  0.76958204517E+02  0.49964865194E+02  0.97761959449E+02  0.00000000000E+00 0.  1.
</event>
<event>
 7    1  0.2855090E-009  0.1281274E+03  0.7561462E-02  0.1230261E+00
         -2   -1    0    0    0  501 -0.00000000000E+00  0.00000000000E+00  0.12173145737E+03  0.12173145737E+03  0.00000000000E+00 0.  1.
          2   -1    0    0  501    0  0.00000000000E+00 -0.00000000000E+00 -0.22885575079E+03  0.22885575079E+03  0.00000000000E+00 0. -1.
         25    2    1    2    0    0  0.82498580702E+02  0.75003405934E+02  0.29100609429E+01  0.16759324070E+03  0.12508996424E+03 0.  0.
          5    1    3    3  502    0  0.42659959918E+01  0.77618377364E+01 -0.50438755220E+02  0.51380787022E+02  0.41800000000E+01 0. -1.
         -5    1    3    3    0  502  0.78232584711E+02  0.67241568197E+02  0.53348816163E+02  0.11621245368E+03  0.41800000000E+01 0. -1.
        -11    1    1    2    0    0  0.29197772249E+01 -0.55530946258E+02 -0.25233457956E+02  0.61065034937E+02  0.00000000000E+00 0.  1.
         11    1    1    2    0    0 -0.85418357927E+02 -0.19472459675E+02 -0.84800896407E+02  0.12192893253E+03  0.00000000000E+00 0. -1.
</event>
<event>
 7    1  0.2855090E-009  0.1147327E+03  0.7561462E-02  0.1252048E+00
          1   -1    0    0  501    0  0.00000000000E+00  0.00000000000E+00  0.50724920601E+03  0.50724920601E+03  0.00000000000E+00 0. -1.
         -1   -1    0    0    0  501 -0.00000000000E+00 -0.00000000000E+00 -0.28542435717E+02  0.28542435717E+02  0.00000000000E+00 0.  1.
         25    2    1    2    0    0  0.48070358012E+01 -0.51565255475E+02  0.26304971828E+03  0.29584816912E+03  0.12509557034E+03 0.  0.
          5    1    3    3  502    0  0.41175171113E+02 -0.78507860034E+02  0.19175335789E+03  0.21129529447E+03  0.41800000000E+01 0.  1.
         -5    1    3    3    0  502 -0.36368135312E+02  0.26942604559E+02  0.71296360394E+02  0.84552874652E+02  0.41800000000E+01 0.  1.
        -11    1    1    2    0    0  0.37578257584E+02  0.27016178630E+02  0.15618194034E+03  0.16289505161E+03  0.00000000000E+00 0. -1.
         11    1    1    2    0    0 -0.42385293385E+02  0.24549076845E+02  0.59475111664E+02  0.77048420988E+02  0.00000000000E+00 0.  1.
</event>
<event>
 7    1  0.2855090E-009  0.1110318E+03  0.7561462E-02  0.1258671E+00
          2   -1    0    0  501    0  0.00000000000E+00  0.00000000000E+00  0.10193365968E+03  0.10193365968E+03  0.00000000000E+00 0.  1.
         -2   -1    0    0    0  501 -0.00000000000E+00 -0.00000000000E+00 -0.16517567952E+03  0.16517567952E+03  0.00000000000E+00 0. -1.
         25    2    1    2    0    0  0.41558067735E+02  0.48228684856E+02 -0.65055785581E+02  0.15470289270E+03  0.12509057013E+03 0.  0.
          5    1    3    3  502    0 -0.28421607457E+02  0.20383666388E+02  0.20409846486E+02  0.40710144430E+02  0.41800000000E+01 0. -1.
         -5    1    3    3    0  502  0.69979675192E+02  0.27845018468E+02 -0.85465632067E+02  0.11399274827E+03  0.41800000000E+01 0. -1.
        -11    1    1    2    0    0 -0.40983340614E+02 -0.74553802093E+02  0.77050143003E+01  0.85424064875E+02  0.00000000000E+00 0.  1.
         11    1    1    2    0    0 -0.57472712082E+00  0.26325117237E+02 -0.58912485528E+01  0.26982381628E+02  0.00000000000E+00 0. -1.
</event>
<event>
 7    1  0.2855090E-009  0.1265276E+03  0.7561462E-02  0.1232701E+00
          2   -1    0    0  501    0  0.00000000000E+00  0.00000000000E+00  0.20653162952E+03  0.20653162952E+03  0.00000000000E+00 0. -1.
         -2   -1    0    0    0  501 -0.00000000000E+00 -0.00000000000E+00 -0.91238415097E+02  0.91238415097E+02  0.00000000000E+00 0.  1.
         25    2    1    2    0    0  0.40275669502E+02 -0.66194791276E+02  0.95423571658E+02  0.17539833505E+03  0.12512009417E+03 0.  0.
          5    1    3    3  502    0  0.61239730049E+02 -0.84323666422E+02  0.10276879086E+03  0.14642295595E+03  0.41800000000E+01 0.  1.
         -5    1    3    3    0  502 -0.20964060547E+02  0.18128875145E+02 -0.73452192018E+01  0.28975379097E+02  0.41800000000E+01 0.  1.
        -11    1    1    2    0    0  0.16045213609E+02  0.62232166196E+02  0.94561242649E+01  0.64959292448E+02  0.00000000000E+00 0.  1.
         11    1    1    2    0    0 -0.56320883111E+02  0.39626250799E+01  0.10413518499E+02  0.57412417119E+02  0.00000000000E+00 0. -1.
</event>
<event>
 7    1  0.2855090E-009  0.9916411E+02  0.7561462E-02  0.1282064E+00
         -4   -1    0    0    0  501 -0.00000000000E+00  0.00000000000E+00  0.59555331114E+03  0.59555331114E+03  0.00000000000E+00 0.  1.
          4   -1    0    0  501    0  0.00000000000E+00 -0.00000000000E+00 -0.20775129535E+02  0.20775129535E+02  0.00000000000E+00 0. -1.
         25    2    1    2    0    0  0.69987509481E+00  0.24647698393E+02  0.30667706375E+03  0.33212304030E+03  0.12508754378E+03 0.  0.
          5    1    3    3  502    0  0.20985133041E+02 -0.35651687666E+02  0.22342837334E+03  0.22726444741E+03  0.41800000000E+01 0. -1.
         -5    1    3    3    0  502 -0.20285257947E+02  0.60299386059E+02  0.83248690409E+02  0.10485859289E+03  0.41800000000E+01 0. -1.
        -11    1    1    2    0    0 -0.42458094167E+02  0.35465140600E+01  0.14675535508E+03  0.15281492652E+03  0.00000000000E+00 0.  1.
         11    1    1    2    0    0  0.41758219072E+02 -0.28194212453E+02  0.12134576277E+03  0.13139047385E+03  0.00000000000E+00 0. -1.
</event>
<event>
 7    1  0.2855090E-009  0.9356955E+02  0.7561462E-02  0.1294431E+00
         -2   -1    0    0    0  501 -0.00000000000E+00  0.00000000000E+00  0.80957249415E+02  0.80957249415E+02  0.00000000000E+00 0.  1.
          2   -1    0    0  501    0  0.00000000000E+00 -0.00000000000E+00 -0.17995318035E+03  0.17995318035E+03  0.00000000000E+00 0. -1.
         25    2    1    2    0    0  0.10234446999E+02  0.20314214188E+02 -0.10771829263E+03  0.16662438128E+03  0.12507214984E+03 0.  0.
          5    1    3    3  502    0  0.38226759616E+02  0.61018819793E+02 -0.86693262550E+02  0.11277311599E+03  0.41800000000E+01 0. -1.
         -5    1    3    3    0  502 -0.27992312618E+02 -0.40704605605E+02 -0.21025030085E+02  0.53851265289E+02  0.41800000000E+01 0. -1.
        -11    1    1    2    0    0  0.10612008779E+02 -0.37152978280E+02  0.38279038166E+02  0.54389735137E+02  0.00000000000E+00 0.  1.
         11    1    1    2    0    0 -0.20846455778E+02  0.16838764092E+02 -0.29556676463E+02  0.39896313341E+02  0.00000000000E+00 0. -1.
</event>
<event>
 7    1  0.2855090E-009  0.1255045E+03  0.7561462E-02  0.1234283E+00
         -2   -1    0    0    0  501 -0.00000000000E+00  0.00000000000E+00  0.36751325697E+03  0.36751325697E+03  0.00000000000E+00 0.  1.
          2   -1    0    0  501    0  0.00000000000E+00 -0.00000000000E+00 -0.71756934484E+02  0.71756934484E+02  0.00000000000E+00 0. -1.
         25    2    1    2    0    0 -0.94228162036E+02 -0.21979974569E+02  0.61149896102E+02  0.16955525167E+03  0.12509039840E+03 0.  0.
          5    1    3    3  502    0 -0.44882509588E+02 -0.70222145588E+02  0.55441810494E+02  0.10018411126E+03  0.41800000000E+01 0.  1.
         -5    1    3    3    0  502 -0.49345652448E+02  0.48242171019E+02  0.57080856087E+01  0.69371140408E+02  0.41800000000E+01 0.  1.
        -11    1    1    2    0    0  0.70729427830E+02  0.24365624391E+02  0.23444905814E+03  0.24609489323E+03  0.00000000000E+00 0.  1.
         11    1    1    2    0    0  0.23498734206E+02 -0.23856498217E+01  0.15736824347E+00  0.23620046552E+02  0.00000000000E+00 0. -1.
</event>
<event>
 7    1  0.2855090E-009  0.1019092E+03  0.7561462E-02  0.1276332E+00
          2   -1    0    0  501    0  0.00000000000E+00  0.00000000000E+00  0.25105238850E+04  0.25105238850E+04  0.00000000000E+00 0. -1.
         -2   -1    0    0    0  501 -0.00000000000E+00 -0.00000000000E+00 -0.14514240315E+02  0.14514240315E+02  0.00000000000E+00 0.  1.
         25    2    1    2    0    0  0.14464382893E+02  0.58708220840E+02  0.22709535197E+04  0.22752002928E+04  0.12510239730E+03 0.  0.
          5    1    3    3  502    0  0.10139899273E+02  0.97834878651E+02  0.17313181236E+04  0.17341148747E+04  0.41800000000E+01 0.  1.
         -5    1    3    3    0  502  0.43244836203E+01 -0.39126657810E+02  0.53963539613E+03  0.54108541808E+03  0.41800000000E+01 0.  1.
        -11    1    1    2    0    0 -0.17131964106E+02 -0.17499282523E+02  0.38258102362E+01  0.24786405688E+02  0.00000000000E+00 0.  1.
         11    1    1    2    0    0  0.26675812129E+01 -0.41208938317E+02  0.22123031473E+03  0.22505142688E+03  0.00000000000E+00 0. -1.
</event>
<event>
 7    1  0.2855090E-009  0.1285972E+03  0.7561462E-02  0.1229552E+00
          2   -1    0    0  501    0  0.00000000000E+00  0.00000000000E+00  0.72168723950E+03  0.72168723950E+03  0.00000000000E+00 0. -1.
         -2   -1    0    0    0  501 -0.00000000000E+00 -0.00000000000E+00 -0.27956447401E+02  0.27956447401E+02  0.00000000000E+00 0.  1.
         25    2    1    2    0    0 -0.21364531045E+02 -0.81207514901E+02  0.27528884765E+03  0.31381921990E+03  0.12508976566E+03 0.  0.
          5    1    3    3  502    0  0.48708250074E+02 -0.39677320790E+02  0.16532716739E+03  0.17691050870E+03  0.41800000000E+01 0. -1.
         -5    1    3    3    0  502 -0.70072781120E+02 -0.41530194110E+02  0.10996168026E+03  0.13690871120E+03  0.41800000000E+01 0. -1.
        -11    1    1    2    0    0 -0.22370930442E+02  0.23473778058E+01  0.32747823964E+02  0.39728940155E+02  0.00000000000E+00 0.  1.
         11    1    1    2    0    0  0.43735461488E+02  0.78860137095E+02  0.38569412048E+03  0.39609552685E+03  0.00000000000E+00 0. -1.
</event>
<event>
 7    1  0.2855090E-009  0.1120479E+03  0.7561462E-02  0.1256824E+00
          2   -1    0    0  501    0  0.00000000000E+00  0.00000000000E+00  0.50615052576E+03  0.50615052576E+03  0.00000000000E+00 0. -1.
         -2   -1    0    0    0  501 -0.00000000000E+00 -0.00000000000E+00 -0.29360446203E+02  0.29360446203E+02  0.00000000000E+00 0.  1.
         25    2    1    2    0    0 -0.49078575568E+02  0.23025819972E+02  0.24055149321E+03  0.27650088791E+03  0.12509526437E+03 0.  0.
          5    1    3    3  502    0 -0.77527815940E+02  0.50158379281E+02  0.19744445091E+03  0.21800965312E+03  0.41800000000E+01 0. -1.
         -5    1    3    3    0  502  0.28449240373E+02 -0.27132559309E+02  0.43107042295E+02  0.58491234795E+02  0.41800000000E+01 0. -1.
        -11    1    1    2    0    0  0.68046483851E+02 -0.92219684327E+01  0.22002939255E+03  0.23049577491E+03  0.00000000000E+00 0. -1.
         11    1    1    2    0    0 -0.18967908284E+02 -0.13803851539E+02  0.16209193801E+02  0.28514309138E+02  0.00000000000E+00 0.  1.
</event>
<event>
 7    1  0.2855090E-009  0.1192267E+03  0.7561462E-02  0.1244378E+00
         -4   -1    0    0    0  501 -0.00000000000E+00  0.00000000000E+00  0.17024035484E+03  0.17024035484E+03  0.00000000000E+00 0.  1.
          4   -1    0    0  501    0  0.00000000000E+00 -0.00000000000E+00 -0.10414064859E+03  0.10414064859E+03  0.00000000000E+00 0. -1.
         25    2    1    2    0    0 -0.53734999437E+02  0.40156479363E+02  0.77608738272E+02  0.16176713122E+03  0.12508195509E+03 0.  0.
          5    1    3    3  502    0 -0.64011793461E+02 -0.23380138287E+02  0.68347916281E+02  0.96607715159E+02  0.41800000000E+01 0.  1.
         -5    1    3    3    0  502  0.10276794023E+02  0.63536617649E+02  0.92608219910E+01  0.65159416063E+02  0.41800000000E+01 0.  1.
        -11    1    1    2    0    0  0.55706903914E+02  0.90468273689E+01  0.12538798698E+02  0.57812850664E+02  0.00000000000E+00 0. -1.
         11    1    1    2    0    0 -0.19719044768E+01 -0.49203306731E+02 -0.24047830716E+02  0.54801021548E+02  0.00000000000E+00 0.  1.
</event>
<event>
 7    1  0.2855090E-009  0.2019405E+03  0.7561462E-02  0.1148112E+00
          4   -1    0    0  501    0  0.00000000000E+00  0.00000000000E+00  0.20958068192E+03  0.20958068192E+03  0.00000000000E+00 0. -1.
         -4   -1    0    0    0  501 -0.00000000000E+00 -0.00000000000E+00 -0.20754067327E+03  0.20754067327E+03  0.00000000000E+00 0.  1.
         25    2    1    2    0    0  0.23088198343E+02  0.17205507880E+03  0.38951328093E+02  0.21748486401E+03  0.12508575086E+03 0.  0.
          5    1    3    3  502    0 -0.47077779208E+02  0.88448410654E+02  0.40736050406E+02  0.10824202901E+03  0.41800000000E+01 0.  1.
         -5    1    3    3    0  502  0.70165977551E+02  0.83606668146E+02 -0.17847223130E+01  0.10924283500E+03  0.41800000000E+01 0.  1.
        -11    1    1    2    0    0  0.28098213356E+02 -0.21589165012E+02 -0.17503547948E+02  0.39521839917E+02  0.00000000000E+00 0.  1.
         11    1    1    2    0    0 -0.51186411699E+02 -0.15046591379E+03 -0.19407771501E+02  0.16011465126E+03  0.00000000000E+00 0. -1.
</event>
<event>
 7    1  0.2855090E-009  0.1411407E+03  0.7561462E-02  0.1211802E+00
         -1   -1    0    0    0  501 -0.00000000000E+00  0.00000000000E+00  0.46202429099E+02  0.46202429099E+02  0.00000000000E+00 0.  1.
          1   -1    0    0  501    0  0.00000000000E+00 -0.00000000000E+00 -0.76287000772E+03  0.76287000772E+03  0.00000000000E+00 0. -1.
         25    2    1    2    0    0  0.76598450416E+02 -0.70827093804E+02 -0.61419048689E+03  0.63542189427E+03  0.12508888719E+03 0.  0.
          5    1    3    3  502    0 -0.48911017133E+01  0.19665075396E+02 -0.26071058215E+03  0.26153033880E+03  0.41800000000E+01 0.  1.
         -5    1    3    3    0  502  0.81489552129E+02 -0.90492169199E+02 -0.35347990474E+03  0.37389155547E+03  0.41800000000E+01 0.  1.
        -11    1    1    2    0    0  0.21892470889E+02  0.14884356147E+02 -0.14180634281E+02  0.30031895180E+02  0.00000000000E+00 0.  1.
         11    1    1    2    0    0 -0.98490921304E+02  0.55942737657E+02 -0.88296457444E+02  0.14361864737E+03  0.00000000000E+00 0. -1.
</event>
<event>
 7    1  0.2855090E-009  0.8637664E+02  0.7561462E-02  0.1311871E+00
          2   -1    0    0  501    0  0.00000000000E+00  0.00000000000E+00  0.16765235780E+03  0.16765235780E+03  0.00000000000E+00 0. -1.
         -2   -1    0    0    0  501 -0.00000000000E+00 -0.00000000000E+00 -0.75373027612E+02  0.75373027612E+02  0.00000000000E+00 0.  1.
         25    2    1    2    0    0 -0.77520280881E+01  0.30044656244E+02  0.38740130794E+02  0.13457473390E+03  0.12508711349E+03 0.  0.
          5    1    3    3  502    0  0.46893156161E+02  0.50169113319E+02  0.31758519276E+02  0.75775879886E+02  0.41800000000E+01 0.  1.
         -5    1    3    3    0  502 -0.54645184249E+02 -0.20124457075E+02  0.69816115184E+01  0.58798854015E+02  0.41800000000E+01 0.  1.
        -11    1    1    2    0    0  0.19970541434E+02 -0.25821382447E+02 -0.16953049055E+02  0.36782770272E+02  0.00000000000E+00 0.  1.
         11    1    1    2    0    0 -0.12218513346E+02 -0.42232737971E+01  0.70492248446E+02  0.71667881236E+02  0.00000000000E+00 0. -1.
</event>
<event>
 7    1  0.2855090E-009  0.1020270E+03  0.7561462E-02  0.1276090E+00
         -3   -1    0    0    0  501 -0.00000000000E+00  0.00000000000E+00  0.66596510197E+02  0.66596510197E+02  0.00000000000E+00 0.  1.
          3   -1    0    0  501    0  0.00000000000E+00 -0.00000000000E+00 -0.26882248549E+03  0.26882248549E+03  0.00000000000E+00 0. -1.
         25    2    1    2    0    0 -0.62511895028E+02 -0.17707890648E+01 -0.54092835182E+02  0.14996535907E+03  0.12511075649E+03 0.  0.
          5    1    3    3  502    0 -0.24465472998E+02  0.38160061157E+02 -0.77518884944E+02  0.89896604827E+02  0.41800000000E+01 0.  1.
         -5    1    3    3    0  502 -0.38046422030E+02 -0.39930850221E+02  0.23426049761E+02  0.60068754242E+02  0.41800000000E+01 0.  1.
        -11    1    1    2    0    0 -0.70713693487E+01  0.27983463757E+02 -0.13977196547E+02  0.32069308250E+02  0.00000000000E+00 0.  1.
         11    1    1    2    0    0  0.69583264377E+02 -0.26212674692E+02 -0.13415594356E+03  0.15338432837E+03  0.00000000000E+00 0. -1.
</event>
<event>
 7    1  0.2855090E-009  0.9408104E+02  0.7561462E-02  0.1293259E+00
         -2   -1    0    0    0  501 -0.00000000000E+00  0.00000000000E+00  0.44787921243E+02  0.44787921243E+02  0.00000000000E+00 0. -1.
          2   -1    0    0  501    0  0.00000000000E+00 -0.00000000000E+00 -0.27930454260E+03  0.27930454260E+03  0.00000000000E+00 0.  1.
         25    2    1    2    0    0 -0.73895025831E+01  0.83699220427E+01 -0.13978142769E+03  0.18792045984E+03  0.12510232354E+03 0.  0.
          5    1    3    3  502    0 -0.47198277641E+02  0.48576362386E+02 -0.64206148763E+02  0.93419710628E+02  0.41800000000E+01 0.  1.
         -5    1    3    3    0  502  0.39808775058E+02 -0.40206440343E+02 -0.75575278932E+02  0.94500749215E+02  0.41800000000E+01 0.  1.
        -11    1    1    2    0    0 -0.25166721811E+02  0.89272088323E+01 -0.95637034932E+02  0.99295022004E+02  0.00000000000E+00 0.  1.
         11    1    1    2    0    0  0.32556224394E+02 -0.17297130875E+02  0.90184127144E+00  0.36876981994E+02  0.00000000000E+00 0. -1.
</event>
<event>
 7    1  0.2855090E-009  0.1090830E+03  0.7561462E-02  0.1262278E+00
         -1   -1    0    0    0  501 -0.00000000000E+00  0.00000000000E+00  0.75725732963E+02  0.75725732963E+02  0.00000000000E+00 0.  1.
          1   -1    0    0  501    0  0.00000000000E+00 -0.00000000000E+00 -0.21073822818E+03  0.21073822818E+03  0.00000000000E+00 0. -1.
         25    2    1    2    0    0 -0.19100882626E+02 -0.53987662019E+02 -0.44390056052E+02  0.14456083558E+03  0.12509135358E+03 0.  0.
          5    1    3    3  502    0 -0.70075885166E+02 -0.41620284751E+02 -0.42245956393E+02  0.91897067505E+02  0.41800000000E+01 0. -1.
         -5    1    3    3    0  502  0.50975002540E+02 -0.12367377268E+02 -0.21440996586E+01  0.52663768074E+02  0.41800000000E+01 0. -1.
        -11    1    1    2    0    0  0.33228826168E+02  0.59995278122E+02 -0.22661451048E+02  0.72229700602E+02  0.00000000000E+00 0.  1.
         11    1    1    2    0    0 -0.14127943542E+02 -0.60076161029E+01 -0.67960988118E+02  0.69673424962E+02  0.00000000000E+00 0. -1.
</event>
<event>
 7    1  0.2855090E-009  0.1119493E+03  0.7561462E-02  0.1257002E+00
         -2   -1    0    0    0  501 -0.00000000000E+00  0.00000000000E+00  0.42439004115E+02  0.42439004115E+02  0.00000000000E+00 0.  1.
          2   -1    0    0  501    0  0.00000000000E+00 -0.00000000000E+00 -0.31911156508E+03  0.31911156508E+03  0.00000000000E+00 0. -1.
         25    2    1    2    0    0 -0.19132489442E+02 -0.34185061147E+02 -0.13134590428E+03  0.18556353253E+03  0.12508959779E+03 0.  0.
          5    1    3    3  502    0  0.41228549996E+02 -0.50330855281E+02 -0.87496018674E+02  0.10911468284E+03  0.41800000000E+01 0.  1.
         -5    1    3    3    0  502 -0.60361039438E+02  0.16145794134E+02 -0.43849885609E+02  0.76448849685E+02  0.41800000000E+01 0.  1.
        -11    1    1    2    0    0 -0.35007317121E+02  0.78573489544E+01 -0.34020960359E+02  0.49443664189E+02  0.00000000000E+00 0.  1.
         11    1    1    2    0    0  0.54139806563E+02  0.26327712192E+02 -0.11130569632E+03  0.12654337247E+03  0.00000000000E+00 0. -1.
</event>
<event>
 7    1  0.2855090E-009  0.1002646E+03  0.7561462E-02  0.1279740E+00
          2   -1    0    0  501    0  0.00000000000E+00  0.00000000000E+00  0.25134921651E+03  0.25134921651E+03  0.00000000000E+00 0.  1.
         -2   -1    0    0    0  501 -0.00000000000E+00 -0.00000000000E+00 -0.59064943599E+02  0.59064943599E+02  0.00000000000E+00 0. -1.
         25    2    1    2    0    0  0.14588736931E+02  0.15953682197E+02  0.17090788555E+03  0.21289513921E+03  0.12508990261E+03 0.  0.
          5    1    3    3  502    0  0.62326283362E+01  0.65364445113E+02  0.13776352571E+03  0.15266832598E+03  0.41800000000E+01 0.  1.
         -5    1    3    3    0  502  0.83561085951E+01 -0.49410762916E+02  0.33144359838E+02  0.60226813230E+02  0.41800000000E+01 0.  1.
        -11    1    1    2    0    0  0.33857415929E+02 -0.11677197456E+02  0.31668159390E+02  0.47807466707E+02  0.00000000000E+00 0.  1.
         11    1    1    2    0    0 -0.48446152860E+02 -0.42764847408E+01 -0.10291772029E+02  0.49711554192E+02  0.00000000000E+00 0. -1.
</event>
<event>
 6    1  0.2855090E-009  0.1528027E+03  0.7561462E-02  0.1197071E+00
         -1   -1    0    0    0  501 -0.00000000000E+00  0.00000000000E+00  0.82474504006E+02  0.82474504006E+02  0.00000000000E+00 0.  1.
          1   -1    0    0  501    0  0.00000000000E+00 -0.00000000000E+00 -0.33859719005E+03  0.33859719005E+03  0.00000000000E+00 0. -1.
          5    1    1    2  502    0  0.66909905923E+02 -0.12767090078E+03 -0.12000364069E+03  0.18760367959E+03  0.41800000000E+01 0. -1.
         -5    1    1    2    0  502 -0.10958164094E+02  0.16024082387E+02  0.83154636822E+01  0.21528397825E+02  0.41800000000E+01 0. -1.
        -11    1    1    2    0    0 -0.46064177966E+02  0.12004065345E+03 -0.15022544282E+03  0.19773555736E+03  0.00000000000E+00 0. -1.
         11    1    1    2    0    0 -0.98875638629E+01 -0.83938350555E+01  0.57909337819E+01  0.14204059284E+02  0.00000000000E+00 0.  1.
</event>
<event>
 7    1  0.2855090E-009  0.1188369E+03  0.7561462E-02  0.1245028E+00
          1   -1    0    0  501    0  0.00000000000E+00  0.00000000000E+00  0.75784328520E+03  0.75784328520E+03  0.00000000000E+00 0. -1.
         -1   -1    0    0    0  501 -0.00000000000E+00 -0.00000000000E+00 -0.22869622758E+02  0.22869622758E+02  0.00000000000E+00 0.  1.
         25    2    1    2    0    0  0.34614514926E+02  0.44813716590E+02  0.54867248344E+03  0.56559233419E+03  0.12508701200E+03 0.  0.
          5    1    3    3  502    0  0.14606653839E+01  0.84773907409E+02  0.35863810833E+03  0.36854784502E+03  0.41800000000E+01 0. -1.
         -5    1    3    3    0  502  0.33153849542E+02 -0.39960190819E+02  0.19003437511E+03  0.19704448917E+03  0.41800000000E+01 0. -1.
        -11    1    1    2    0    0  0.18547994393E+01 -0.60832716490E+02  0.14728091690E+03  0.15936037198E+03  0.00000000000E+00 0. -1.
         11    1    1    2    0    0 -0.36469314365E+02  0.16018999900E+02  0.39020262098E+02  0.55760201777E+02  0.00000000000E+00 0.  1.
</event>
<event>
 7    1  0.2855090E-009  0.1549617E+03  0.7561462E-02  0.1194505E+00
          1   -1    0    0  501    0  0.00000000000E+00  0.00000000000E+00  0.76993971351E+02  0.76993971351E+02  0.00000000000E+00 0. -1.
         -1   -1    0    0    0  501 -0.00000000000E+00 -0.00000000000E+00 -0.44092475138E+03  0.44092475138E+03  0.00000000000E+00 0.  1.
         25    2    1    2    0    0  0.11751487393E+03  0.49396080281E+02 -0.85383807575E+02  0.19795708235E+03  0.12508754341E+03 0.  0.
          5    1    3    3  502    0  0.25656261167E+02  0.61420570234E+02 -0.81264540810E+02  0.10512910243E+03  0.41800000000E+01 0.  1.
         -5    1    3    3    0  502  0.91858612765E+02 -0.12024489953E+02 -0.41192667659E+01  0.92827979922E+02  0.41800000000E+01 0.  1.
        -11    1    1    2    0    0 -0.97292965990E+02 -0.19048125964E+00 -0.22167621896E+03  0.24208738829E+03  0.00000000000E+00 0.  1.
         11    1    1    2    0    0 -0.20221907941E+02 -0.49205599021E+02 -0.56870753487E+02  0.77874252086E+02  0.00000000000E+00 0. -1.
</event>
<event>
 7    1  0.2855090E-009  0.4675260E+03  0.7561462E-02  0.1022621E+00
          2   -1    0    0  501    0  0.00000000000E+00  0.00000000000E+00  0.34073631410E+03  0.34073631410E+03  0.00000000000E+00 0. -1.
         -2   -1    0    0    0  501 -0.00000000000E+00 -0.00000000000E+00 -0.67685598801E+03  0.67685598801E+03  0.00000000000E+00 0.  1.
         25    2    1    2    0    0 -0.35972479089E+03  0.29580985556E+03 -0.12531446756E+03  0.49825405229E+03  0.12509192223E+03 0.  0.
          5    1    3    3  502    0 -0.20390294301E+03  0.13754322457E+03 -0.59245379506E+01  0.24606324663E+03  0.41800000000E+01 0.  1.
         -5    1    3    3    0  502 -0.15582184789E+03  0.15826663099E+03 -0.11938992961E+03  0.25219080566E+03  0.41800000000E+01 0.  1.
        -11    1    1    2    0    0  0.30803003243E+02 -0.38525754300E+02  0.44572776824E+01  0.49527023710E+02  0.00000000000E+00 0. -1.
         11    1    1    2    0    0  0.32892178765E+03 -0.25728410126E+03 -0.21526248403E+03  0.46981122612E+03  0.00000000000E+00 0.  1.
</event>
<event>
 6    1  0.2855090E-009  0.1294648E+03  0.7561462E-02  0.1228252E+00
         -2   -1    0    0    0  501 -0.00000000000E+00  0.00000000000E+00  0.25551690722E+02  0.25551690722E+02  0.00000000000E+00 0.  1.
          2   -1    0    0  501    0  0.00000000000E+00 -0.00000000000E+00 -0.10767999657E+04  0.10767999657E+04  0.00000000000E+00 0. -1.
          5    1    1    2  502    0  0.10906430456E+01 -0.87039027212E+02 -0.65565872406E+03  0.66142483821E+03  0.41800000000E+01 0. -1.
         -5    1    1    2    0  502  0.53948886908E+02  0.14679210374E+02 -0.19241015828E+03  0.20041233252E+03  0.41800000000E+01 0. -1.
        -11    1    1    2    0    0  0.16546075905E+02  0.24654647227E+02 -0.14276159795E+02  0.32945910160E+02  0.00000000000E+00 0.  1.
         11    1    1    2    0    0 -0.71585605859E+02  0.47705169610E+02 -0.18890323287E+03  0.20756857556E+03  0.00000000000E+00 0. -1.
</event>
<event>
 7    1  0.2855090E-009  0.9692579E+02  0.7561462E-02  0.1286897E+00
          2   -1    0    0  501    0  0.00000000000E+00  0.00000000000E+00  0.29257038829E+03  0.29257038829E+03  0.00000000000E+00 0. -1.
         -2   -1    0    0    0  501 -0.00000000000E+00 -0.00000000000E+00 -0.46806959966E+02  0.46806959966E+02  0.00000000000E+00 0.  1.
         25    2    1    2    0    0  0.41188779728E+01 -0.31410973654E+02  0.99425502668E+02  0.16290051121E+03  0.12509009373E+03 0.  0.
          5    1    3    3  502    0 -0.36806370989E+02 -0.43214801062E+02  0.25306047717E+01  0.56974593783E+02  0.41800000000E+01 0.  1.
         -5    1    3    3    0  502  0.40925248961E+02  0.11803827408E+02  0.96894897897E+02  0.10592591743E+03  0.41800000000E+01 0.  1.
        -11    1    1    2    0    0  0.31174582735E+02 -0.15991337208E+02  0.30577081397E+02  0.46503068513E+02  0.00000000000E+00 0.  1.
         11    1    1    2    0    0 -0.35293460708E+02  0.47402310862E+02  0.11576084426E+03  0.12997376854E+03  0.00000000000E+00 0. -1.
</event>
<event>
 7    1  0.2855090E-009  0.1190043E+03  0.7561462E-02  0.1244749E+00
         -2   -1    0    0    0  501 -0.00000000000E+00  0.00000000000E+00  0.24132734294E+02  0.24132734294E+02  0.00000000000E+00 0.  1.
          2   -1    0    0  501    0  0.00000000000E+00 -0.00000000000E+00 -0.12604334965E+04  0.12604334965E+04  0.00000000000E+00 0. -1.
         25    2    1    2    0    0 -0.16720614362E+02 -0.91743080558E+02 -0.10259431843E+04  0.10377387700E+04  0.12508383424E+03 0.  0.
          5    1    3    3  502    0  0.19830357505E+02 -0.20169738167E+02 -0.74363582975E+03  0.74418531369E+03  0.41800000000E+01 0. -1.
         -5    1    3    3    0  502 -0.36550971867E+02 -0.71573342391E+02 -0.28230735455E+03  0.29355345632E+03  0.41800000000E+01 0. -1.
        -11    1    1    2    0    0  0.15125640453E+02 -0.15517013890E+02 -0.30613793954E+02  0.37506894026E+02  0.00000000000E+00 0. -1.
         11    1    1    2    0    0  0.15949739087E+01  0.10726009445E+03 -0.17974378400E+03  0.20932056681E+03  0.00000000000E+00 0.  1.
</event>
<event>
 7    1  0.2855090E-009  0.1015834E+03  0.7561462E-02  0.1277001E+00
          2   -1    0    0  501    0  0.00000000000E+00  0.00000000000E+00  0.10110110205E+04  0.10110110205E+04  0.00000000000E+00 0.  1.
         -2   -1    0    0    0  501 -0.00000000000E+00 -0.00000000000E+00 -0.17004935539E+02  0.17004935539E+02  0.00000000000E+00 0. -1.
         25    2    1    2    0    0  0.19732132483E+02 -0.70671860193E+02  0.58602328107E+03  0.60370051887E+03  0.12508861520E+03 0.  0.
          5    1    3    3  502    0 -0.15744126154E+02 -0.50878143559E+02  0.81011737779E+02  0.97040388799E+02  0.41800000000E+01 0.  1.
         -5    1    3    3    0  502  0.35476258637E+02 -0.19793716634E+02  0.50501154329E+03  0.50666013007E+03  0.41800000000E+01 0.  1.
        -11    1    1    2    0    0  0.13423113761E+02  0.74345276746E+02  0.34356296403E+03  0.35177110514E+03  0.00000000000E+00 0. -1.
         11    1    1    2    0    0 -0.33155246244E+02 -0.36734165528E+01  0.64419839885E+02  0.72544332057E+02  0.00000000000E+00 0.  1.
</event>
<event>
 7    1  0.3715383E-009  0.9075389E+02  0.7561462E-02  0.1301036E+00
          1   -1    0    0  501    0  0.00000000000E+00  0.00000000000E+00  0.52758259710E+03  0.52758259710E+03  0.00000000000E+00 0. -1.
         -1   -1    0    0    0  501 -0.00000000000E+00 -0.00000000000E+00 -0.36474262053E+02  0.36474262053E+02  0.00000000000E+00 0.  1.
         25    2    1    2    0    0 -0.58112258141E+02  0.58272198378E+02  0.31503731082E+03  0.34881026202E+03  0.12508960001E+03 0.  0.
          5    1    3    3  502    0 -0.39249139650E+02  0.15382082592E+02  0.14744143278E+02  0.44854939406E+02  0.41800000000E+01 0.  1.
         -5    1    3    3    0  502 -0.18863118492E+02  0.42890115786E+02  0.30029316754E+03  0.30395532261E+03  0.41800000000E+01 0.  1.
        -11    1    1    2    0    0  0.12589112164E+02 -0.41861641124E+02  0.13687978637E+02  0.45806587974E+02  0.00000000000E+00 0.  1.
         11    1    1    2    0    0  0.45523145978E+02 -0.16410557254E+02  0.16238304558E+03  0.16944000915E+03  0.00000000000E+00 0. -1.
</event>
<event>
 7    1  0.2855090E-009  0.1454937E+03  0.7561462E-02  0.1206122E+00
          1   -1    0    0  501    0  0.00000000000E+00  0.00000000000E+00  0.30145801706E+03  0.30145801706E+03  0.00000000000E+00 0. -1.
         -1   -1    0    0    0  501 -0.00000000000E+00 -0.00000000000E+00 -0.10885020464E+03  0.10885020464E+03  0.00000000000E+00 0.  1.
         25    2    1    2    0    0  0.90361606427E+02  0.80156914835E+02  0.18794400841E+03  0.25604854914E+03  0.12509020069E+03 0.  0.
          5    1    3    3  502    0  0.95532319664E+02  0.24582112521E+02  0.57868087031E+02  0.11444165436E+03  0.41800000000E+01 0.  1.
         -5    1    3    3    0  502 -0.51707132371E+01  0.55574802314E+02  0.13007592138E+03  0.14160689478E+03  0.41800000000E+01 0.  1.
        -11    1    1    2    0    0 -0.19817074901E+02  0.96833516555E+01 -0.27820936577E+02  0.35503355742E+02  0.00000000000E+00 0.  1.
         11    1    1    2    0    0 -0.70544531526E+02 -0.89840266491E+02  0.32484740587E+02  0.11875631681E+03  0.00000000000E+00 0. -1.
</event>
<event>
 7    1  0.3060275E-009  0.9672584E+02  0.7561462E-02  0.1287336E+00
          1   -1    0    0  501    0  0.00000000000E+00  0.00000000000E+00  0.12383484052E+03  0.12383484052E+03  0.00000000000E+00 0. -1.
         -1   -1    0    0    0  501 -0.00000000000E+00 -0.00000000000E+00 -0.10640814955E+03  0.10640814955E+03  0.00000000000E+00 0.  1.
         25    2    1    2    0    0  0.18436323180E+02  0.15594134077E+02  0.38444417541E+02  0.13307259288E+03  0.12508903511E+03 0.  0.
          5    1    3    3  502    0  0.58632334625E+02  0.21691974020E+01 -0.18776023268E+02  0.61745182247E+02  0.41800000000E+01 0. -1.
         -5    1    3    3    0  502 -0.40196011445E+02  0.13424936675E+02  0.57220440809E+02  0.71327410630E+02  0.41800000000E+01 0. -1.
        -11    1    1    2    0    0 -0.38691300825E+02 -0.43079411671E+02 -0.24453390913E+02  0.62855555018E+02  0.00000000000E+00 0. -1.
         11    1    1    2    0    0  0.20254977645E+02  0.27485277594E+02  0.34356643446E+01  0.34314842172E+02  0.00000000000E+00 0.  1.
</event>
<event>
 7    1  0.2855090E-009  0.1887345E+03  0.7561462E-02  0.1159608E+00
         -1   -1    0    0    0  501 -0.00000000000E+00  0.00000000000E+00  0.32699375746E+02  0.32699375746E+02  0.00000000000E+00 0.  1.
          1   -1    0    0  501    0  0.00000000000E+00 -0.00000000000E+00 -0.14043109137E+04  0.14043109137E+04  0.00000000000E+00 0. -1.
         25    2    1    2    0    0  0.16715506311E+03  0.77780360809E+02 -0.75962558400E+03  0.79162448022E+03  0.12509072773E+03 0.  0.
          5    1    3    3  502    0  0.99115207086E+02  0.16224769049E+02 -0.59210414750E+03  0.60057627434E+03  0.41800000000E+01 0.  1.
         -5    1    3    3    0  502  0.68039856027E+02  0.61555591759E+02 -0.16752143650E+03  0.19104820588E+03  0.41800000000E+01 0.  1.
        -11    1    1    2    0    0 -0.71595882258E+02 -0.42353490539E+02 -0.14283220304E+03  0.16529012899E+03  0.00000000000E+00 0.  1.
         11    1    1    2    0    0 -0.95559180855E+02 -0.35426870270E+02 -0.46915375092E+03  0.48009568024E+03  0.00000000000E+00 0. -1.
</event>
<event>
 7    1  0.2855090E-009  0.1372710E+03  0.7561462E-02  0.1217049E+00
          1   -1    0    0  501    0  0.00000000000E+00  0.00000000000E+00  0.29485226960E+03  0.29485226960E+03  0.00000000000E+00 0. -1.
         -1   -1    0    0    0  501 -0.00000000000E+00 -0.00000000000E+00 -0.71583787544E+02  0.71583787544E+02  0.00000000000E+00 0.  1.
         25    2    1    2    0    0  0.32439121971E+02  0.83113703105E+02  0.13025688196E+03  0.20143489277E+03  0.12509586903E+03 0.  0.
          5    1    3    3  502    0  0.47454523131E+01  0.10848635760E+03  0.12078325792E+03  0.16247423456E+03  0.41800000000E+01 0. -1.
         -5    1    3    3    0  502  0.27693669658E+02 -0.25372654494E+02  0.94736240329E+01  0.38960658201E+02  0.41800000000E+01 0. -1.
        -11    1    1    2    0    0 -0.21034904054E+02 -0.10301622153E+03  0.50376888764E+02  0.11658747792E+03  0.00000000000E+00 0.  1.
         11    1    1    2    0    0 -0.11404217917E+02  0.19902518421E+02  0.42634711332E+02  0.48413686455E+02  0.00000000000E+00 0. -1.
</event>
<event>
 7    1  0.2855090E-009  0.1685000E+03  0.7561462E-02  0.1179421E+00
          2   -1    0    0  501    0  0.00000000000E+00  0.00000000000E+00  0.84600409156E+03  0.84600409156E+03  0.00000000000E+00 0. -1.
         -2   -1    0    0    0  501 -0.00000000000E+00 -0.00000000000E+00 -0.38411396121E+02  0.38411396121E+02  0.00000000000E+00 0.  1.
         25    2    1    2    0    0 -0.18133264546E+02  0.14482383350E+03  0.42373169231E+03  0.46529664684E+03  0.12509861893E+03 0.  0.
          5    1    3    3  502    0  0.37204768979E+02  0.78996884405E+02  0.11306022516E+03  0.14291532281E+03  0.41800000000E+01 0. -1.
         -5    1    3    3    0  502 -0.55338033526E+02  0.65826949097E+02  0.31067146715E+03  0.32238132403E+03  0.41800000000E+01 0. -1.
        -11    1    1    2    0    0  0.46162899894E+02 -0.10582272060E+03  0.22122760198E+03  0.24954180692E+03  0.00000000000E+00 0.  1.
         11    1    1    2    0    0 -0.28029635348E+02 -0.39001112903E+02  0.16263340114E+03  0.16957703392E+03  0.00000000000E+00 0. -1.
</event>
<event>
 7    1  0.2855090E-009  0.9336164E+02  0.7561462E-02  0.1294909E+00
         -1   -1    0    0    0  501 -0.00000000000E+00  0.00000000000E+00  0.33690263547E+03  0.33690263547E+03  0.00000000000E+00 0.  1.
          1   -1    0    0  501    0  0.00000000000E+00 -0.00000000000E+00 -0.38281085212E+02  0.38281085212E+02  0.00000000000E+00 0. -1.
         25    2    1    2    0    0  0.48864891475E+01 -0.12449975296E+02  0.22687048146E+03  0.25941142477E+03  0.12508074305E+03 0.  0.
          5    1    3    3  502    0  0.60854825136E+02  0.11911136132E+02  0.88764026183E+02  0.10835916966E+03  0.41800000000E+01 0. -1.
         -5    1    3    3    0  502 -0.55968335988E+02 -0.24361111428E+02  0.13810645528E+03  0.15105225511E+03  0.41800000000E+01 0. -1.
        -11    1    1    2    0    0 -0.33371651650E+02  0.98038589156E+01  0.78950396230E+02  0.86272520818E+02  0.00000000000E+00 0.  1.
         11    1    1    2    0    0  0.28485162502E+02  0.26461163799E+01 -0.71993274379E+01  0.29499775088E+02  0.00000000000E+00 0. -1.
</event>
<event>
 7    1  0.2855090E-009  0.9705403E+02  0.7561462E-02  0.1286616E+00
         -3   -1    0    0    0  501 -0.00000000000E+00  0.00000000000E+00  0.42445286123E+03  0.42445286123E+03  0.00000000000E+00 0.  1.
          3   -1    0    0  501    0  0.00000000000E+00 -0.00000000000E+00 -0.41178678614E+02  0.41178678614E+02  0.00000000000E+00 0. -1.
         25    2    1    2    0    0  0.75099513602E+02 -0.13196100793E+02  0.15353218097E+03  0.21220952236E+03  0.12508667703E+03 0.  0.
          5    1    3    3  502    0  0.27933329100E+02  0.15260690061E+02  0.15364724227E+03  0.15696530506E+03  0.41800000000E+01 0. -1.
         -5    1    3    3    0  502  0.47166184502E+02 -0.28456790854E+02 -0.11506130606E+00  0.55244217302E+02  0.41800000000E+01 0. -1.
        -11    1    1    2    0    0 -0.53249930015E+02  0.43943451392E+02  0.14096977341E+03  0.15696833751E+03  0.00000000000E+00 0.  1.
         11    1    1    2    0    0 -0.21849583586E+02 -0.30747350599E+02  0.88772228239E+02  0.96453679963E+02  0.00000000000E+00 0. -1.
</event>
<event>
 7    1  0.2855090E-009  0.1160153E+03  0.7561462E-02  0.1249819E+00
         -2   -1    0    0    0  501 -0.00000000000E+00  0.00000000000E+00  0.20696888328E+03  0.20696888328E+03  0.00000000000E+00 0.  1.
          2   -1    0    0  501    0  0.00000000000E+00 -0.00000000000E+00 -0.11283511549E+03  0.11283511549E+03  0.00000000000E+00 0. -1.
         25    2    1    2    0    0 -0.85078279380E+02  0.90452984759E+01  0.11918965468E+03  0.19280591643E+03  0.12509123302E+03 0.  0.
          5    1    3    3  502    0 -0.82140833813E+02  0.54511545351E+02  0.10680340800E+03  0.14540655253E+03  0.41800000000E+01 0. -1.
         -5    1    3    3    0  502 -0.29374455664E+01 -0.45466246875E+02  0.12386246678E+02  0.47399363900E+02  0.41800000000E+01 0. -1.
        -11    1    1    2    0    0  0.13437836404E+02  0.54734496305E+01 -0.48190598561E+02  0.50327605623E+02  0.00000000000E+00 0. -1.
         11    1    1    2    0    0  0.71640442975E+02 -0.14518748106E+02  0.23134711671E+02  0.76670476719E+02  0.00000000000E+00 0.  1.
</event>
<event>
 7    1  0.2855090E-009  0.1595548E+03  0.7561462E-02  0.1189200E+00
          1   -1    0    0  501    0  0.00000000000E+00  0.00000000000E+00  0.87218110176E+03  0.87218110176E+03  0.00000000000E+00 0. -1.
         -1   -1    0    0    0  501 -0.00000000000E+00 -0.00000000000E+00 -0.32604699265E+02  0.32604699265E+02  0.00000000000E+00 0.  1.
         25    2    1    2    0    0 -0.10854202531E+03  0.69185746638E+02  0.46917774203E+03  0.50233816229E+03  0.12509131416E+03 0.  0.
          5    1    3    3  502    0  0.16333253086E+02  0.44214957484E+02  0.81299267597E+02  0.94067959122E+02  0.41800000000E+01 0. -1.
         -5    1    3    3    0  502 -0.12487527839E+03  0.24970789155E+02  0.38787847443E+03  0.40827020316E+03  0.41800000000E+01 0. -1.
        -11    1    1    2    0    0  0.80709923657E+02 -0.13106325640E+02  0.28539292938E+03  0.29687538073E+03  0.00000000000E+00 0. -1.
         11    1    1    2    0    0  0.27832101650E+02 -0.56079420998E+02  0.85005731087E+02  0.10557225800E+03  0.00000000000E+00 0.  1.
</event>
<event>
 7    1  0.2855090E-009  0.1082828E+03  0.7561462E-02  0.1263783E+00
         -2   -1    0    0    0  501 -0.00000000000E+00  0.00000000000E+00  0.21919119363E+02  0.21919119363E+02  0.00000000000E+00 0.  1.
          2   -1    0    0  501    0  0.00000000000E+00 -0.00000000000E+00 -0.64259333597E+03  0.64259333597E+03  0.00000000000E+00 0. -1.
         25    2    1    2    0    0  0.47327692663E+01 -0.17139077767E+02 -0.22687249192E+03  0.25968184264E+03  0.12508950681E+03 0.  0.
          5    1    3    3  502    0  0.63329926489E+02 -0.14278390600E+02 -0.93373553560E+02  0.11380090040E+03  0.41800000000E+01 0. -1.
         -5    1    3    3    0  502 -0.58597157222E+02 -0.28606871675E+01 -0.13349893836E+03  0.14588094224E+03  0.41800000000E+01 0. -1.
        -11    1    1    2    0    0  0.19622482693E+02 -0.32180031264E+02 -0.19214108047E+03  0.19580293932E+03  0.00000000000E+00 0. -1.
         11    1    1    2    0    0 -0.24355251959E+02  0.49319109031E+02 -0.20166064421E+03  0.20902767337E+03  0.00000000000E+00 0.  1.
</event>
<event>
 7    1  0.2855090E-009  0.9353878E+02  0.7561462E-02  0.1294501E+00
          1   -1    0    0  501    0  0.00000000000E+00  0.00000000000E+00  0.56058774280E+03  0.56058774280E+03  0.00000000000E+00 0. -1.
         -1   -1    0    0    0  501 -0.00000000000E+00 -0.00000000000E+00 -0.28252131829E+02  0.28252131829E+02  0.00000000000E+00 0.  1.
         25    2    1    2    0    0 -0.38674679553E+02 -0.44608781362E+02  0.36505080680E+03  0.39037869600E+03  0.12509100901E+03 0.  0.
          5    1    3    3  502    0 -0.60156303574E+02 -0.20782357400E+02  0.34802312767E+03  0.35381952607E+03  0.41800000000E+01 0.  1.
         -5    1    3    3    0  502  0.21481624022E+02 -0.23826423962E+02  0.17027679130E+02  0.36559169930E+02  0.41800000000E+01 0.  1.
        -11    1    1    2    0    0 -0.10310697289E+02  0.40493789829E+02  0.26843613714E+02  0.49665250332E+02  0.00000000000E+00 0.  1.
         11    1    1    2    0    0  0.48985376841E+02  0.41149915327E+01  0.14044119046E+03  0.14879592830E+03  0.00000000000E+00 0. -1.
</event>
<event>
 7    1  0.2855090E-009  0.1151563E+03  0.7561462E-02  0.1251309E+00
         -2   -1    0    0    0  501 -0.00000000000E+00  0.00000000000E+00  0.42323505376E+02  0.42323505376E+02  0.00000000000E+00 0.  1.
          2   -1    0    0  501    0  0.00000000000E+00 -0.00000000000E+00 -0.39181629695E+03  0.39181629695E+03  0.00000000000E+00 0. -1.
         25    2    1    2    0    0  0.50404770215E+02  0.31994471421E+02 -0.13266172229E+03  0.19186068822E+03  0.12508838499E+03 0.  0.
          5    1    3    3  502    0 -0.10750735834E+02 -0.39376515868E+02 -0.21812783290E+02  0.46468895379E+02  0.41800000000E+01 0.  1.
         -5    1    3    3    0  502  0.61155506049E+02  0.71370987289E+02 -0.11084893900E+03  0.14539179284E+03  0.41800000000E+01 0.  1.
        -11    1    1    2    0    0 -0.24506276799E+02 -0.55219476262E+02 -0.18678793853E+03  0.19631475274E+03  0.00000000000E+00 0. -1.
         11    1    1    2    0    0 -0.25898493415E+02  0.23225004841E+02 -0.30043130752E+02  0.45964361373E+02  0.00000000000E+00 0.  1.
</event>
<event>
 7    1  0.2855090E-009  0.7864403E+02  0.7561462E-02  0.1332944E+00
         -3   -1    0    0    0  501 -0.00000000000E+00  0.00000000000E+00  0.94042581144E+02  0.94042581144E+02  0.00000000000E+00 0.  1.
          3   -1    0    0  501    0  0.00000000000E+00 -0.00000000000E+00 -0.15883257548E+03  0.15883257548E+03  0.00000000000E+00 0. -1.
         25    2    1    2    0    0  0.32819372311E+02 -0.18863190681E+02  0.55704414629E+01  0.13080831480E+03  0.12508738642E+03 0.  0.
          5    1    3    3  502    0  0.88906318063E+00 -0.28865756862E+02  0.60034478455E+02  0.66750530754E+02  0.41800000000E+01 0. -1.
         -5    1    3    3    0  502  0.31930309130E+02  0.10002566180E+02 -0.54464036993E+02  0.64057784046E+02  0.41800000000E+01 0. -1.
        -11    1    1    2    0    0 -0.33437952940E+02  0.51685656588E+02 -0.63671747005E+02  0.88564073757E+02  0.00000000000E+00 0. -1.
         11    1    1    2    0    0  0.61858062985E+00 -0.32822465906E+02 -0.66886887888E+01  0.33502768063E+02  0.00000000000E+00 0.  1.
</event>
<event>
 7    1  0.2855090E-009  0.1312507E+03  0.7561462E-02  0.1225612E+00
         -4   -1    0    0    0  501 -0.00000000000E+00  0.00000000000E+00  0.53293593069E+02  0.53293593069E+02  0.00000000000E+00 0.  1.
          4   -1    0    0  501    0  0.00000000000E+00 -0.00000000000E+00 -0.57863289998E+03  0.57863289998E+03  0.00000000000E+00 0. -1.
         25    2    1    2    0    0 -0.10828563579E+03  0.42786281560E+02 -0.41427730966E+03  0.44813994118E+03  0.12508905937E+03 0.  0.
          5    1    3    3  502    0 -0.98194017253E+02  0.36175970612E+02 -0.14664166683E+03  0.18019993542E+03  0.41800000000E+01 0.  1.
         -5    1    3    3    0  502 -0.10091618540E+02  0.66103109486E+01 -0.26763564283E+03  0.26794000576E+03  0.41800000000E+01 0.  1.
        -11    1    1    2    0    0  0.61095874525E+02  0.21928172111E+02 -0.37093430850E+02  0.74762779699E+02  0.00000000000E+00 0.  1.
         11    1    1    2    0    0  0.47189761268E+02 -0.64714453671E+02 -0.73968566397E+02  0.10902377217E+03  0.00000000000E+00 0. -1.
</event>
<event>
 7    1  0.2855090E-009  0.1467956E+03  0.7561462E-02  0.1204467E+00
          1   -1    0    0  501    0  0.00000000000E+00  0.00000000000E+00  0.21787488774E+03  0.21787488774E+03  0.00000000000E+00 0. -1.
         -1   -1    0    0    0  501 -0.00000000000E+00 -0.00000000000E+00 -0.14402959106E+03  0.14402959106E+03  0.00000000000E+00 0.  1.
         25    2    1    2    0    0  0.64903671238E+02  0.11991889723E+03  0.74278135157E+02  0.19939157694E+03  0.12508689436E+03 0.  0.
          5    1    3    3  502    0  0.18340622960E+02  0.15146825113E+02  0.80942804938E+02  0.84469016999E+02  0.41800000000E+01 0.  1.
         -5    1    3    3    0  502  0.46563048278E+02  0.10477207211E+03 -0.66646697808E+01  0.11492255994E+03  0.41800000000E+01 0.  1.
        -11    1    1    2    0    0  0.32429947662E+01 -0.70394962890E+02  0.24585344749E+02  0.74635159220E+02  0.00000000000E+00 0. -1.
         11    1    1    2    0    0 -0.68146666004E+02 -0.49523934335E+02 -0.25018183225E+02  0.87877742639E+02  0.00000000000E+00 0.  1.
</event>
<event>
 7    1  0.2855090E-009  0.1353605E+03  0.7561462E-02  0.1219712E+00
         -2   -1    0    0    0  501 -0.00000000000E+00  0.00000000000E+00  0.20948736550E+02  0.20948736550E+02  0.00000000000E+00 0.  1.
          2   -1    0    0  501    0  0.00000000000E+00 -0.00000000000E+00 -0.14801725275E+04  0.14801725275E+04  0.00000000000E+00 0. -1.
         25    2    1    2    0    0 -0.76313601355E+02 -0.76125637071E+02 -0.87857315911E+03  0.89395589017E+03  0.12508980493E+03 0.  0.
          5    1    3    3  502    0 -0.29677995453E+02 -0.34942871872E+01 -0.63124316734E+03  0.63196392474E+03  0.41800000000E+01 0.  1.
         -5    1    3    3    0  502 -0.46635605902E+02 -0.72631349884E+02 -0.24732999177E+03  0.26199196544E+03  0.41800000000E+01 0.  1.
        -11    1    1    2    0    0  0.12414780867E+02  0.88227535222E+02 -0.47360286677E+03  0.48191067654E+03  0.00000000000E+00 0. -1.
         11    1    1    2    0    0  0.63898820488E+02 -0.12101898151E+02 -0.10704776511E+03  0.12525469737E+03  0.00000000000E+00 0.  1.
</event>
<event>
 6    1  0.2855090E-009  0.1920776E+03  0.7561462E-02  0.1156601E+00
          1   -1    0    0  501    0  0.00000000000E+00  0.00000000000E+00  0.81881993007E+03  0.81881993007E+03  0.00000000000E+00 0. -1.
         -1   -1    0    0    0  501 -0.00000000000E+00 -0.00000000000E+00 -0.54011317242E+02  0.54011317242E+02  0.00000000000E+00 0.  1.
          5    1    1    2  502    0 -0.68307823209E+02  0.80622572388E+02  0.27291782036E+03  0.29269022355E+03  0.41800000000E+01 0. -1.
         -5    1    1    2    0  502  0.56119184108E+02  0.79506383586E+02  0.29142369595E+03  0.30727165638E+03  0.41800000000E+01 0. -1.
        -11    1    1    2    0    0  0.47999064882E+02 -0.10187027340E+03  0.15146340679E+03  0.18873957303E+03  0.00000000000E+00 0. -1.
         11    1    1    2    0    0 -0.35810425781E+02 -0.58258682575E+02  0.49003689726E+02  0.84129794347E+02  0.00000000000E+00 0.  1.
</event>
<event>
 7    1  0.2855090E-009  0.1077327E+03  0.7561462E-02  0.1264827E+00
         -1   -1    0    0    0  501 -0.00000000000E+00  0.00000000000E+00  0.89277296241E+02  0.89277296241E+02  0.00000000000E+00 0.  1.
          1   -1    0    0  501    0  0.00000000000E+00 -0.00000000000E+00 -0.30079001336E+03  0.30079001336E+03  0.00000000000E+00 0. -1.
         25    2    1    2    0    0 -0.28498026126E+02 -0.35959215124E+02 -0.24967521494E+03  0.28300192555E+03  0.12508866561E+03 0.  0.
          5    1    3    3  502    0 -0.13539419368E+02  0.46777857502E+02 -0.84735949776E+02  0.97821967951E+02  0.41800000000E+01 0.  1.
         -5    1    3    3    0  502 -0.14958606758E+02 -0.82737072626E+02 -0.16493926517E+03  0.18517995760E+03  0.41800000000E+01 0.  1.
        -11    1    1    2    0    0 -0.61889837047E+01  0.45905842939E+02  0.50877967529E+02  0.68805650314E+02  0.00000000000E+00 0.  1.
         11    1    1    2    0    0  0.34687009831E+02 -0.99466278149E+01 -0.12715469708E+02  0.38259733739E+02  0.00000000000E+00 0. -1.
</event>
<event>
 7    1  0.2855090E-009  0.1086933E+03  0.7561462E-02  0.1263009E+00
          2   -1    0    0  501    0  0.00000000000E+00  0.00000000000E+00  0.10895719446E+04  0.10895719446E+04  0.00000000000E+00 0. -1.
         -2   -1    0    0    0  501 -0.00000000000E+00 -0.00000000000E+00 -0.12720358836E+02  0.12720358836E+02  0.00000000000E+00 0.  1.
         25    2    1    2    0    0 -0.30587301924E+02  0.31797135482E+02  0.78504210897E+03  0.79616787617E+03  0.12508210630E+03 0.  0.
          5    1    3    3  502    0 -0.46875408216E+02  0.72636504080E+02  0.58008515913E+03  0.58650629141E+03  0.41800000000E+01 0.  1.
         -5    1    3    3    0  502  0.16288106292E+02 -0.40839368598E+02  0.20495694984E+03  0.20966158476E+03  0.41800000000E+01 0.  1.
        -11    1    1    2    0    0 -0.97691761263E+01 -0.43554516632E+02  0.96224161503E+02  0.10607319161E+03  0.00000000000E+00 0.  1.
         11    1    1    2    0    0  0.40356478050E+02  0.11757381150E+02  0.19558531527E+03  0.20005123564E+03  0.00000000000E+00 0. -1.
</event>
<event>
 7    1  0.2855090E-009  0.1072416E+03  0.7561462E-02  0.1265765E+00
         -4   -1    0    0    0  501 -0.00000000000E+00  0.00000000000E+00  0.40098529223E+03  0.40098529223E+03  0.00000000000E+00 0. -1.
          4   -1    0    0  501    0  0.00000000000E+00 -0.00000000000E+00 -0.53857744890E+02  0.53857744890E+02  0.00000000000E+00 0.  1.
         25    2    1    2    0    0  0.36747902813E+02 -0.71786191927E+02  0.99366539167E+02  0.17895855930E+03  0.12509512832E+03 0.  0.
          5    1    3    3  502    0 -0.43535426133E+01 -0.41436852506E+02  0.11737796449E+03  0.12462353320E+03  0.41800000000E+01 0.  1.
         -5    1    3    3    0  502  0.41101445427E+02 -0.30349339421E+02 -0.18011425323E+02  0.54335026103E+02  0.41800000000E+01 0.  1.
        -11    1    1    2    0    0 -0.35028849051E+02 -0.12387676214E+02  0.74447215614E+02  0.83203742107E+02  0.00000000000E+00 0. -1.
         11    1    1    2    0    0 -0.17190537620E+01  0.84173868141E+02  0.17331379256E+03  0.19268073571E+03  0.00000000000E+00 0.  1.
</event>
<event>
 7    1  0.2855090E-009  0.1180518E+03  0.7561462E-02  0.1246346E+00
         -2   -1    0    0    0  501 -0.00000000000E+00  0.00000000000E+00  0.19398804590E+03  0.19398804590E+03  0.00000000000E+00 0. -1.
          2   -1    0    0  501    0  0.00000000000E+00 -0.00000000000E+00 -0.12071846037E+03  0.12071846037E+03  0.00000000000E+00 0.  1.
         25    2    1    2    0    0 -0.85895765847E+02 -0.64958462011E+02  0.53055203050E+02  0.17338661221E+03  0.12510147219E+03 0.  0.
          5    1    3    3  502    0 -0.75522637925E+02 -0.14987336371E+02 -0.24097797338E+02  0.80786541745E+02  0.41800000000E+01 0. -1.
         -5    1    3    3    0  502 -0.10373127923E+02 -0.49971125639E+02  0.77153000388E+02  0.92600070461E+02  0.41800000000E+01 0. -1.
        -11    1    1    2    0    0  0.31564797546E+02  0.26628565210E+02 -0.35588395705E+02  0.54515601786E+02  0.00000000000E+00 0.  1.
         11    1    1    2    0    0  0.54330968301E+02  0.38329896800E+02  0.55802778180E+02  0.86804292278E+02  0.00000000000E+00 0. -1.
</event>
<event>
 7    1  0.2855090E-009  0.1411426E+03  0.7561462E-02  0.1211800E+00
          2   -1    0    0  501    0  0.00000000000E+00  0.00000000000E+00  0.36271650279E+03  0.36271650279E+03  0.00000000000E+00 0.  1.
         -2   -1    0    0    0  501 -0.00000000000E+00 -0.00000000000E+00 -0.61993491097E+02  0.61993491097E+02  0.00000000000E+00 0. -1.
         25    2    1    2    0    0  0.87070628526E+02 -0.49237305486E+02  0.12858082408E+03  0.20539234657E+03  0.12508949239E+03 0.  0.
          5    1    3    3  502    0 -0.22142766951E+02 -0.26989026663E+02  0.72447787860E+02  0.80528653622E+02  0.41800000000E+01 0.  1.
         -5    1    3    3    0  502  0.10921339548E+03 -0.22248278823E+02  0.56133036221E+02  0.12486369295E+03  0.41800000000E+01 0.  1.
        -11    1    1    2    0    0 -0.11037626434E+02  0.58012507010E+02  0.67757515702E+02  0.89879703499E+02  0.00000000000E+00 0.  1.
         11    1    1    2    0    0 -0.76033002093E+02 -0.87752015247E+01  0.10438467191E+03  0.12943794382E+03  0.00000000000E+00 0. -1.
</event>
<event>
 7    1  0.2855090E-009  0.2820100E+03  0.7561462E-02  0.1094596E+00
         -1   -1    0    0    0  501 -0.00000000000E+00  0.00000000000E+00  0.35206838400E+03  0.35206838400E+03  0.00000000000E+00 0.  1.
          1   -1    0    0  501    0  0.00000000000E+00 -0.00000000000E+00 -0.25653135170E+03  0.25653135170E+03  0.00000000000E+00 0. -1.
         25    2    1    2    0    0  0.12801031954E+03 -0.23983183522E+03  0.11454044568E+03  0.32042687775E+03  0.12509164318E+03 0.  0.
          5    1    3    3  502    0  0.59671629957E+02 -0.17451674533E+03  0.18184123977E+02  0.18537781039E+03  0.41800000000E+01 0.  1.
         -5    1    3    3    0  502  0.68338689582E+02 -0.65315089895E+02  0.96356321702E+02  0.13504906736E+03  0.41800000000E+01 0.  1.
        -11    1    1    2    0    0 -0.13468470385E+03  0.18052771201E+03 -0.30829533188E+02  0.22733386103E+03  0.00000000000E+00 0.  1.
         11    1    1    2    0    0  0.66743843131E+01  0.59304123218E+02  0.11826119808E+02  0.60838996921E+02  0.00000000000E+00 0. -1.
</event>
<event>
 7    1  0.2855090E-009  0.1721366E+03  0.7561462E-02  0.1175638E+00
         -2   -1    0    0    0  501 -0.00000000000E+00  0.00000000000E+00  0.65064688563E+03  0.65064688563E+03  0.00000000000E+00 0.  1.
          2   -1    0    0  501    0  0.00000000000E+00 -0.00000000000E+00 -0.55161339325E+02  0.55161339325E+02  0.00000000000E+00 0. -1.
         25    2    1    2    0    0  0.13572532494E+03  0.38704575237E+02  0.19467613522E+03  0.27104461119E+03  0.12508787174E+03 0.  0.
          5    1    3    3  502    0  0.23296457435E+02 -0.40429776293E+02  0.26650563224E+02  0.53898206466E+02  0.41800000000E+01 0.  1.
         -5    1    3    3    0  502  0.11242886750E+03  0.79134351530E+02  0.16802557199E+03  0.21714640472E+03  0.41800000000E+01 0.  1.
        -11    1    1    2    0    0 -0.10524762351E+03 -0.61424582896E+02  0.35443948068E+03  0.37480313112E+03  0.00000000000E+00 0.  1.
         11    1    1    2    0    0 -0.30477701427E+02  0.22720007659E+02  0.46369930409E+02  0.59960482640E+02  0.00000000000E+00 0. -1.
</event>
<event>
 7    1  0.2855090E-009  0.1032352E+03  0.7561462E-02  0.1273636E+00
          1   -1    0    0  501    0  0.00000000000E+00  0.00000000000E+00  0.55003930287E+03  0.55003930287E+03  0.00000000000E+00 0. -1.
         -1   -1    0    0    0  501 -0.00000000000E+00 -0.00000000000E+00 -0.22680805352E+02  0.22680805352E+02  0.00000000000E+00 0.  1.
         25    2    1    2    0    0 -0.88357240347E+01  0.27851465027E+02  0.31797143841E+03  0.34293856868E+03  0.12508897682E+03 0.  0.
          5    1    3    3  502    0 -0.53915136642E+02  0.48763621938E+02  0.23611005088E+03  0.24708330844E+03  0.41800000000E+01 0. -1.
         -5    1    3    3    0  502  0.45079412607E+02 -0.20912156911E+02  0.81861387530E+02  0.95855260242E+02  0.41800000000E+01 0. -1.
        -11    1    1    2    0    0  0.26059168848E+02 -0.49608124227E+02  0.18337953287E+03  0.19175009608E+03  0.00000000000E+00 0. -1.
         11    1    1    2    0    0 -0.17223444814E+02  0.21756659200E+02  0.26007526238E+02  0.38031443462E+02  0.00000000000E+00 0.  1.
</event>
<event>
 7    1  0.2855090E-009  0.1754980E+03  0.7561462E-02  0.1172233E+00
          1   -1    0    0  501    0  0.00000000000E+00  0.00000000000E+00  0.55900599740E+03  0.55900599740E+03  0.00000000000E+00 0. -1.
         -1   -1    0    0    0  501 -0.00000000000E+00 -0.00000000000E+00 -0.81328794432E+02  0.81328794432E+02  0.00000000000E+00 0.  1.
         25    2    1    2    0    0 -0.13178275183E+03  0.98139765011E+02  0.12617359390E+03  0.24200160319E+03  0.12508754132E+03 0.  0.
          5    1    3    3  502    0 -0.41269785023E+02  0.22988115909E+02  0.11422321216E+03  0.12367725427E+03  0.41800000000E+01 0. -1.
         -5    1    3    3    0  502 -0.90512966812E+02  0.75151649101E+02  0.11950381744E+02  0.11832434892E+03  0.41800000000E+01 0. -1.
        -11    1    1    2    0    0  0.11467350149E+03 -0.34203352738E+02  0.20110083181E+03  0.23401159338E+03  0.00000000000E+00 0.  1.
         11    1    1    2    0    0  0.17109250347E+02 -0.63936412273E+02  0.15040277726E+03  0.16432159526E+03  0.00000000000E+00 0. -1.
</event>
<event>
 7    1  0.2855090E-009  0.1129025E+03  0.7561462E-02  0.1255287E+00
         -1   -1    0    0    0  501 -0.00000000000E+00  0.00000000000E+00  0.66680486874E+02  0.66680486874E+02  0.00000000000E+00 0.  1.
          1   -1    0    0  501    0  0.00000000000E+00 -0.00000000000E+00 -0.22237327725E+03  0.22237327725E+03  0.00000000000E+00 0. -1.
         25    2    1    2    0    0 -0.15354448237E+02 -0.49113810773E+02 -0.60842588601E+02  0.14833751911E+03  0.12511703920E+03 0.  0.
          5    1    3    3  502    0 -0.11986613200E+02 -0.89249455653E+02 -0.59126846695E+02  0.10780816588E+03  0.41800000000E+01 0. -1.
         -5    1    3    3    0  502 -0.33678350375E+01  0.40135644880E+02 -0.17157419058E+01  0.40529353228E+02  0.41800000000E+01 0. -1.
        -11    1    1    2    0    0 -0.30314245626E+02  0.33284416204E+01 -0.59880088901E+02  0.67198638813E+02  0.00000000000E+00 0. -1.
         11    1    1    2    0    0  0.45668693864E+02  0.45785369153E+02 -0.34970112877E+02  0.73517606206E+02  0.00000000000E+00 0.  1.
</event>
<event>
 7    1  0.2855090E-009  0.1432262E+03  0.7561462E-02  0.1209053E+00
         -2   -1    0    0    0  501 -0.00000000000E+00  0.00000000000E+00  0.36991736430E+03  0.36991736430E+03  0.00000000000E+00 0.  1.
          2   -1    0    0  501    0  0.00000000000E+00 -0.00000000000E+00 -0.88280530265E+02  0.88280530265E+02  0.00000000000E+00 0. -1.
         25    2    1    2    0    0 -0.10501099970E+02  0.11393843655E+03  0.38153959468E+02  0.17377232125E+03  0.12509538196E+03 0.  0.
          5    1    3    3  502    0  0.37423540736E+02  0.71397550185E+02  0.65522501874E+02  0.10396538956E+03  0.41800000000E+01 0.  1.
         -5    1    3    3    0  502 -0.47924640706E+02  0.42540886367E+02 -0.27368542406E+02  0.69806931698E+02  0.41800000000E+01 0.  1.
        -11    1    1    2    0    0  0.44807408924E+02 -0.40245211353E+02  0.14309926348E+03  0.15525714199E+03  0.00000000000E+00 0.  1.
         11    1    1    2    0    0 -0.34306308954E+02 -0.73693225199E+02  0.10038361109E+03  0.12916843132E+03  0.00000000000E+00 0. -1.
</event>
<event>
 7    1  0.2855090E-009  0.9599768E+02  0.7561462E-02  0.1288945E+00
         -2   -1    0    0    0  501 -0.00000000000E+00  0.00000000000E+00  0.14664508344E+03  0.14664508344E+03  0.00000000000E+00 0.  1.
          2   -1    0    0  501    0  0.00000000000E+00 -0.00000000000E+00 -0.12494897976E+03  0.12494897976E+03  0.00000000000E+00 0. -1.
         25    2    1    2    0    0 -0.48099467325E+02 -0.60309301327E+01  0.75553320101E+02  0.15396973017E+03  0.12509373587E+03 0.  0.
          5    1    3    3  502    0 -0.49270820635E+02  0.39560952215E+02  0.86190019002E+02  0.10695267403E+03  0.41800000000E+01 0. -1.
         -5    1    3    3    0  502  0.11713533098E+01 -0.45591882348E+02 -0.10636698900E+02  0.47017056140E+02  0.41800000000E+01 0. -1.
        -11    1    1    2    0    0  0.14570427934E+02  0.35410962666E+02  0.10157920914E+02  0.39615868088E+02  0.00000000000E+00 0.  1.
         11    1    1    2    0    0  0.33529039391E+02 -0.29380032533E+02 -0.64015137341E+02  0.78008464944E+02  0.00000000000E+00 0. -1.
</event>
<event>
 7    1  0.2855090E-009  0.1259863E+03  0.7561462E-02  0.1233536E+00
         -2   -1    0    0    0  501 -0.00000000000E+00  0.00000000000E+00  0.62145324742E+02  0.62145324742E+02  0.00000000000E+00 0.  1.
          2   -1    0    0  501    0  0.00000000000E+00 -0.00000000000E+00 -0.30839579251E+03  0.30839579251E+03  0.00000000000E+00 0. -1.
         25    2    1    2    0    0  0.17365947080E+02  0.80497413906E+02 -0.10274964509E+03  0.18162314178E+03  0.12509223117E+03 0.  0.
          5    1    3    3  502    0 -0.29923447510E+02  0.88646182957E+02 -0.93953448819E+02  0.13265851427E+03  0.41800000000E+01 0. -1.
         -5    1    3    3    0  502  0.47289394590E+02 -0.81487690509E+01 -0.87961962751E+01  0.48964627504E+02  0.41800000000E+01 0. -1.
        -11    1    1    2    0    0  0.88406240527E+01 -0.83324451101E+02 -0.13881786099E+03  0.16214659822E+03  0.00000000000E+00 0. -1.
         11    1    1    2    0    0 -0.26206571133E+02  0.28270371946E+01 -0.46829616797E+01  0.26771377252E+02  0.00000000000E+00 0.  1.
</event>
<event>
 7    1  0.2855090E-009  0.1085142E+03  0.7561462E-02  0.1263346E+00
         -4   -1    0    0    0  501 -0.00000000000E+00  0.00000000000E+00  0.46726041145E+02  0.46726041145E+02  0.00000000000E+00 0. -1.
          4   -1    0    0  501    0  0.00000000000E+00 -0.00000000000E+00 -0.32544933989E+03  0.32544933989E+03  0.00000000000E+00 0.  1.
         25    2    1    2    0    0 -0.19882317820E+02  0.52277546182E+02 -0.13726801304E+03  0.19395241798E+03  0.12508710821E+03 0.  0.
          5    1    3    3  502    0 -0.17362228933E+01  0.92260565479E+02 -0.84635330526E+02  0.12528223332E+03  0.41800000000E+01 0.  1.
         -5    1    3    3    0  502 -0.18146094927E+02 -0.39983019297E+02 -0.52632682514E+02  0.68670184664E+02  0.41800000000E+01 0.  1.
        -11    1    1    2    0    0  0.26845815252E+02 -0.62591419033E+02 -0.14888961593E+03  0.16372691063E+03  0.00000000000E+00 0.  1.
         11    1    1    2    0    0 -0.69634974317E+01  0.10313872850E+02  0.74343302306E+01  0.14496052415E+02  0.00000000000E+00 0. -1.
</event>
<event>
 7    1  0.2855090E-009  0.1583327E+03  0.7561462E-02  0.1190592E+00
         -1   -1    0    0    0  501 -0.00000000000E+00  0.00000000000E+00  0.31566869149E+03  0.31566869149E+03  0.00000000000E+00 0.  1.
          1   -1    0    0  501    0  0.00000000000E+00 -0.00000000000E+00 -0.11863370531E+03  0.11863370531E+03  0.00000000000E+00 0. -1.
         25    2    1    2    0    0  0.13381136490E+03 -0.54629707595E+02  0.25764128066E+02  0.19287630335E+03  0.12509033444E+03 0.  0.
          5    1    3    3  502    0  0.90191546502E+02 -0.48158364452E+02 -0.43068449723E+02  0.11102300162E+03  0.41800000000E+01 0. -1.
         -5    1    3    3    0  502  0.43619818395E+02 -0.64713431430E+01  0.68832577789E+02  0.81853301729E+02  0.41800000000E+01 0. -1.
        -11    1    1    2    0    0 -0.59685833048E+02  0.72385228632E+02  0.90093088901E+02  0.13007222862E+03  0.00000000000E+00 0. -1.
         11    1    1    2    0    0 -0.74125531849E+02 -0.17755521037E+02  0.81177769216E+02  0.11135386484E+03  0.00000000000E+00 0.  1.
</event>
<event>
 7    1  0.2855090E-009  0.1305461E+03  0.7561462E-02  0.1226648E+00
          1   -1    0    0  501    0  0.00000000000E+00  0.00000000000E+00  0.11971024256E+03  0.11971024256E+03  0.00000000000E+00 0.  1.
         -1   -1    0    0    0  501 -0.00000000000E+00 -0.00000000000E+00 -0.21754148098E+03  0.21754148098E+03  0.00000000000E+00 0. -1.
         25    2    1    2    0    0 -0.28583564356E+02 -0.11567409966E+03 -0.59556917681E+02  0.18273195759E+03  0.12508566823E+03 0.  0.
          5    1    3    3  502    0  0.26242973497E+02 -0.40635211051E+02  0.27092796178E+02  0.55600414027E+02  0.41800000000E+01 0. -1.
         -5    1    3    3    0  502 -0.54826537853E+02 -0.75038888610E+02 -0.86649713859E+02  0.12713154356E+03  0.41800000000E+01 0. -1.
        -11    1    1    2    0    0  0.25785692225E+02  0.88118063215E+02  0.16365668061E+02  0.93260549427E+02  0.00000000000E+00 0.  1.
         11    1    1    2    0    0  0.27978721307E+01  0.27556036447E+02 -0.54639988804E+02  0.61259216528E+02  0.00000000000E+00 0. -1.
</event>
<event>
 7    1  0.2855090E-009  0.1172752E+03  0.7561462E-02  0.1247661E+00
         -2   -1    0    0    0  501 -0.00000000000E+00  0.00000000000E+00  0.22471686149E+03  0.22471686149E+03  0.00000000000E+00 0.  1.
          2   -1    0    0  501    0  0.00000000000E+00 -0.00000000000E+00 -0.24344559847E+03  0.24344559847E+03  0.00000000000E+00 0. -1.
         25    2    1    2    0    0  0.23208172098E+02 -0.10023837495E+03 -0.18982380298E+03  0.24953442488E+03  0.12509197398E+03 0.  0.
          5    1    3    3  502    0  0.41152444016E+02 -0.24187779219E+02 -0.42114400556E+01  0.48101776884E+02  0.41800000000E+01 0. -1.
         -5    1    3    3    0  502 -0.17944271918E+02 -0.76050595735E+02 -0.18561236293E+03  0.20143264800E+03  0.41800000000E+01 0. -1.
        -11    1    1    2    0    0 -0.24682762840E+02  0.33413733228E+02  0.13785488450E+03  0.14397807309E+03  0.00000000000E+00 0.  1.
         11    1    1    2    0    0  0.14745907424E+01  0.66824641726E+02  0.33240181498E+02  0.74649961994E+02  0.00000000000E+00 0. -1.
</event>
<event>
 7    1  0.2855090E-009  0.1096415E+03  0.7561462E-02  0.1261235E+00
          2   -1    0    0  501    0  0.00000000000E+00  0.00000000000E+00  0.13954625327E+03  0.13954625327E+03  0.00000000000E+00 0. -1.
         -2   -1    0    0    0  501 -0.00000000000E+00 -0.00000000000E+00 -0.13811248073E+03  0.13811248073E+03  0.00000000000E+00 0.  1.
         25    2    1    2    0    0 -0.47608256365E+02 -0.50214475074E+02  0.49740950649E+02  0.15135783081E+03  0.12508793385E+03 0.  0.
          5    1    3    3  502    0  0.30640628671E+02  0.81453034257E+01 -0.13777814210E+02  0.34820893981E+02  0.41800000000E+01 0. -1.
         -5    1    3    3    0  502 -0.78248885035E+02 -0.58359778500E+02  0.63518764859E+02  0.11653693683E+03  0.41800000000E+01 0. -1.
        -11    1    1    2    0    0  0.34916682760E+02  0.62718256723E+02  0.31448573933E+01  0.71851545490E+02  0.00000000000E+00 0. -1.
         11    1    1    2    0    0  0.12691573604E+02 -0.12503781649E+02 -0.51452035502E+02  0.54449357695E+02  0.00000000000E+00 0.  1.
</event>
<event>
 7    1  0.2855090E-009  0.1438802E+03  0.7561462E-02  0.1208201E+00
         -1   -1    0    0    0  501 -0.00000000000E+00  0.00000000000E+00  0.11930613604E+04  0.11930613604E+04  0.00000000000E+00 0. -1.
          1   -1    0    0  501    0  0.00000000000E+00 -0.00000000000E+00 -0.25836663146E+02  0.25836663146E+02  0.00000000000E+00 0.  1.
         25    2    1    2    0    0 -0.12102075116E+03  0.57476608745E+02  0.49981644375E+03  0.53237195524E+03  0.12511530091E+03 0.  0.
          5    1    3    3  502    0 -0.91023842358E+02  0.34536067756E+02  0.14010986122E+03  0.17066436496E+03  0.41800000000E+01 0. -1.
         -5    1    3    3    0  502 -0.29996908798E+02  0.22940540989E+02  0.35970658253E+03  0.36170759029E+03  0.41800000000E+01 0. -1.
        -11    1    1    2    0    0  0.98918348975E+02 -0.93467872519E+01  0.53062572205E+03  0.53984799629E+03  0.00000000000E+00 0. -1.
         11    1    1    2    0    0  0.22102402180E+02 -0.48129821493E+02  0.13678253145E+03  0.14667807201E+03  0.00000000000E+00 0.  1.
</event>
<event>
 7    1  0.2855090E-009  0.1309817E+03  0.7561462E-02  0.1226006E+00
         -2   -1    0    0    0  501 -0.00000000000E+00  0.00000000000E+00  0.54311962915E+02  0.54311962915E+02  0.00000000000E+00 0.  1.
          2   -1    0    0  501    0  0.00000000000E+00 -0.00000000000E+00 -0.96873726753E+03  0.96873726753E+03  0.00000000000E+00 0. -1.
         25    2    1    2    0    0  0.88916373585E+02 -0.43756745817E+02 -0.86402077171E+03  0.87863617380E+03  0.12509539421E+03 0.  0.
          5    1    3    3  502    0  0.67580893344E+02  0.35564663709E+02 -0.37089006978E+03  0.37869372679E+03  0.41800000000E+01 0. -1.
         -5    1    3    3    0  502  0.21335480241E+02 -0.79321409526E+02 -0.49313070194E+03  0.49994244701E+03  0.41800000000E+01 0. -1.
        -11    1    1    2    0    0 -0.62311127065E+02  0.15066467411E+02 -0.74637407013E+02  0.98389112822E+02  0.00000000000E+00 0. -1.
         11    1    1    2    0    0 -0.26605246520E+02  0.28690278407E+02  0.24232874113E+02  0.46023943825E+02  0.00000000000E+00 0.  1.
</event>
<event>
 7    1  0.2855090E-009  0.6804912E+02  0.7561462E-02  0.1366856E+00
         -3   -1    0    0    0  501 -0.00000000000E+00  0.00000000000E+00  0.73591218880E+03  0.73591218880E+03  0.00000000000E+00 0.  1.
          3   -1    0    0  501    0  0.00000000000E+00 -0.00000000000E+00 -0.18864259451E+02  0.18864259451E+02  0.00000000000E+00 0. -1.
         25    2    1    2    0    0 -0.14419449813E+02  0.21700897107E+02  0.55096423226E+03  0.56558669986E+03  0.12509148798E+03 0.  0.
          5    1    3    3  502    0  0.34194402396E+01 -0.92825039596E+01  0.51357247154E+03  0.51368474123E+03  0.41800000000E+01 0.  1.
         -5    1    3    3    0  502 -0.17838890052E+02  0.30983401066E+02  0.37391760719E+02  0.51901958630E+02  0.41800000000E+01 0.  1.
        -11    1    1    2    0    0  0.27587275217E+02 -0.50585589888E+02  0.91487213007E+02  0.10811970127E+03  0.00000000000E+00 0. -1.
         11    1    1    2    0    0 -0.13167825404E+02  0.28884692781E+02  0.74596484078E+02  0.81070047118E+02  0.00000000000E+00 0.  1.
</event>
<event>
 7    1  0.2855090E-009  0.1210738E+03  0.7561462E-02  0.1241336E+00
          2   -1    0    0  501    0  0.00000000000E+00  0.00000000000E+00  0.10927196532E+03  0.10927196532E+03  0.00000000000E+00 0.  1.
         -2   -1    0    0    0  501 -0.00000000000E+00 -0.00000000000E+00 -0.20461096921E+03  0.20461096921E+03  0.00000000000E+00 0. -1.
         25    2    1    2    0    0 -0.14503790295E+02  0.96491714162E+02 -0.21283187499E+02  0.16006720297E+03  0.12509006581E+03 0.  0.
          5    1    3    3  502    0 -0.28358771425E+02  0.33365640135E+02  0.48082146571E+02  0.65167868442E+02  0.41800000000E+01 0. -1.
         -5    1    3    3    0  502  0.13854981130E+02  0.63126074027E+02 -0.69365334070E+02  0.94899334533E+02  0.41800000000E+01 0. -1.
        -11    1    1    2    0    0  0.52951039439E+02 -0.47626279621E+02 -0.50588721192E+02  0.87357276744E+02  0.00000000000E+00 0.  1.
         11    1    1    2    0    0 -0.38447249143E+02 -0.48865434541E+02 -0.23467095197E+02  0.66458454816E+02  0.00000000000E+00 0. -1.
</event>
<event>
 7    1  0.2855090E-009  0.8637637E+02  0.7561462E-02  0.1311872E+00
          2   -1    0    0  501    0  0.00000000000E+00  0.00000000000E+00  0.59821288862E+03  0.59821288862E+03  0.00000000000E+00 0. -1.
         -2   -1    0    0    0  501 -0.00000000000E+00 -0.00000000000E+00 -0.21132328004E+02  0.21132328004E+02  0.00000000000E+00 0.  1.
         25    2    1    2    0    0 -0.33251277816E+02  0.13087999469E+02  0.33108622460E+03  0.35572792585E+03  0.12508927174E+03 0.  0.
          5    1    3    3  502    0 -0.57117307885E+02  0.34404551754E+02  0.31014038856E+03  0.31725477625E+03  0.41800000000E+01 0. -1.
         -5    1    3    3    0  502  0.23866030070E+02 -0.21316552284E+02  0.20945836044E+02  0.38473149600E+02  0.41800000000E+01 0. -1.
        -11    1    1    2    0    0  0.49305934152E+02  0.49143071231E+01  0.22852328741E+03  0.23383352720E+03  0.00000000000E+00 0. -1.
         11    1    1    2    0    0 -0.16054656337E+02 -0.18002306592E+02  0.17471048607E+02  0.29783763566E+02  0.00000000000E+00 0.  1.
</event>
<event>
 7    1  0.2855090E-009  0.1229655E+03  0.7561462E-02  0.1238284E+00
          2   -1    0    0  501    0  0.00000000000E+00  0.00000000000E+00  0.32425773965E+03  0.32425773965E+03  0.00000000000E+00 0. -1.
         -2   -1    0    0    0  501 -0.00000000000E+00 -0.00000000000E+00 -0.50928707131E+02  0.50928707131E+02  0.00000000000E+00 0.  1.
         25    2    1    2    0    0  0.16039366321E+02  0.60642599607E+02  0.10676738254E+03  0.17602425167E+03  0.12510186666E+03 0.  0.
          5    1    3    3  502    0 -0.40525206640E+01  0.97301103502E+02  0.81019271982E+02  0.12674984220E+03  0.41800000000E+01 0.  1.
         -5    1    3    3    0  502  0.20091886985E+02 -0.36658503895E+02  0.25748110561E+02  0.49274409463E+02  0.41800000000E+01 0.  1.
        -11    1    1    2    0    0 -0.19731256757E+02  0.18599590558E+02  0.63956585585E+02  0.69467345579E+02  0.00000000000E+00 0.  1.
         11    1    1    2    0    0  0.36918904358E+01 -0.79242190165E+02  0.10260506440E+03  0.12969484954E+03  0.00000000000E+00 0. -1.
</event>
<event>
 7    1  0.2855090E-009  0.3272063E+03  0.7561462E-02  0.1072380E+00
          1   -1    0    0  501    0  0.00000000000E+00  0.00000000000E+00  0.12158925425E+04  0.12158925425E+04  0.00000000000E+00 0. -1.
         -1   -1    0    0    0  501 -0.00000000000E+00 -0.00000000000E+00 -0.96088368589E+02  0.96088368589E+02  0.00000000000E+00 0.  1.
         25    2    1    2    0    0  0.24402348185E+03  0.19550643279E+03  0.72941216874E+03  0.80340415489E+03  0.12508356899E+03 0.  0.
          5    1    3    3  502    0  0.25120745653E+03  0.15849687636E+03  0.67020714781E+03  0.73309040329E+03  0.41800000000E+01 0.  1.
         -5    1    3    3    0  502 -0.71839746830E+01  0.37009556433E+02  0.59205020930E+02  0.70313751592E+02  0.41800000000E+01 0.  1.
        -11    1    1    2    0    0 -0.15893527854E+03 -0.85893742064E+02  0.27000506547E+03  0.32487057895E+03  0.00000000000E+00 0.  1.
         11    1    1    2    0    0 -0.85088203310E+02 -0.10961269073E+03  0.12038693973E+03  0.18370617727E+03  0.00000000000E+00 0. -1.
</event>
<event>
 7    1  0.2855090E-009  0.1206355E+03  0.7561462E-02  0.1242052E+00
         -4   -1    0    0    0  501 -0.00000000000E+00  0.00000000000E+00  0.10824430749E+03  0.10824430749E+03  0.00000000000E+00 0.  1.
          4   -1    0    0  501    0  0.00000000000E+00 -0.00000000000E+00 -0.25667121066E+03  0.25667121066E+03  0.00000000000E+00 0. -1.
         25    2    1    2    0    0  0.17362733670E+01  0.11913331892E+03 -0.31133175972E+02  0.17553608689E+03  0.12509148985E+03 0.  0.
          5    1    3    3  502    0 -0.78793611898E+01  0.87011086492E+02  0.40458342316E+02  0.96370967455E+02  0.41800000000E+01 0.  1.
         -5    1    3    3    0  502  0.96156345568E+01  0.32122232426E+02 -0.71591518288E+02  0.79165119433E+02  0.41800000000E+01 0.  1.
        -11    1    1    2    0    0  0.62247853222E+01 -0.65129295868E+02 -0.63500614074E+01  0.65733525788E+02  0.00000000000E+00 0.  1.
         11    1    1    2    0    0 -0.79610586893E+01 -0.54004023049E+02 -0.11094366579E+03  0.12364590547E+03  0.00000000000E+00 0. -1.
</event>
<event>
 7    1  0.2855090E-009  0.9722917E+02  0.7561462E-02  0.1286233E+00
         -1   -1    0    0    0  501 -0.00000000000E+00  0.00000000000E+00  0.58831252375E+02  0.58831252375E+02  0.00000000000E+00 0.  1.
          1   -1    0    0  501    0  0.00000000000E+00 -0.00000000000E+00 -0.40468090551E+03  0.40468090551E+03  0.00000000000E+00 0. -1.
         25    2    1    2    0    0 -0.72714502451E+01  0.82091432839E+02 -0.29334318387E+03  0.32937797484E+03  0.12509096472E+03 0.  0.
          5    1    3    3  502    0 -0.66218010813E+01  0.52754589366E+02 -0.29491260307E+03  0.29969619751E+03  0.41800000000E+01 0.  1.
         -5    1    3    3    0  502 -0.64964916383E+00  0.29336843473E+02  0.15694192076E+01  0.29681777333E+02  0.41800000000E+01 0.  1.
        -11    1    1    2    0    0 -0.21250368070E+02 -0.80125976652E+02 -0.10838960408E+02  0.83601634794E+02  0.00000000000E+00 0.  1.
         11    1    1    2    0    0  0.28521818315E+02 -0.19654561872E+01 -0.41667508865E+02  0.50532548254E+02  0.00000000000E+00 0. -1.
</event>
<event>
 7    1  0.2855090E-009  0.1554746E+03  0.7561462E-02  0.1193903E+00
         -1   -1    0    0    0  501 -0.00000000000E+00  0.00000000000E+00  0.37901271849E+02  0.37901271849E+02  0.00000000000E+00 0.  1.
          1   -1    0    0  501    0  0.00000000000E+00 -0.00000000000E+00 -0.79603850778E+03  0.79603850778E+03  0.00000000000E+00 0. -1.
         25    2    1    2    0    0  0.10246692451E+03 -0.64584384026E+02 -0.53907125614E+03  0.56649576484E+03  0.12509603955E+03 0.  0.
          5    1    3    3  502    0 -0.75464989175E+01  0.18544202284E+02 -0.19087283728E+03  0.19196549038E+03  0.41800000000E+01 0. -1.
         -5    1    3    3    0  502  0.11001342343E+03 -0.83128586309E+02 -0.34819841886E+03  0.37453027447E+03  0.41800000000E+01 0. -1.
        -11    1    1    2    0    0 -0.46061759023E+02  0.81535854531E+02 -0.12034028429E+03  0.15248463936E+03  0.00000000000E+00 0.  1.
         11    1    1    2    0    0 -0.56405165485E+02 -0.16951470506E+02 -0.98725695500E+02  0.11495937542E+03  0.00000000000E+00 0. -1.
</event>
<event>
 7    1  0.2855090E-009  0.2005750E+03  0.7561462E-02  0.1149255E+00
          1   -1    0    0  501    0  0.00000000000E+00  0.00000000000E+00  0.11613140425E+03  0.11613140425E+03  0.00000000000E+00 0. -1.
         -1   -1    0    0    0  501 -0.00000000000E+00 -0.00000000000E+00 -0.44265183646E+03  0.44265183646E+03  0.00000000000E+00 0.  1.
         25    2    1    2    0    0 -0.18089550405E+03 -0.78503394280E+02 -0.20269706615E+03  0.30921736131E+03  0.12507321699E+03 0.  0.
          5    1    3    3  502    0 -0.83498612551E+02 -0.42170202275E+02 -0.15300616548E+02  0.94878477668E+02  0.41800000000E+01 0.  1.
         -5    1    3    3    0  502 -0.97396891500E+02 -0.36333192005E+02 -0.18739644960E+03  0.21433888364E+03  0.41800000000E+01 0.  1.
        -11    1    1    2    0    0  0.13571808128E+03  0.81311271276E+02 -0.12882407622E+03  0.20402588816E+03  0.00000000000E+00 0.  1.
         11    1    1    2    0    0  0.45177422770E+02 -0.28078769966E+01  0.50007101614E+01  0.45539991255E+02  0.00000000000E+00 0. -1.
</event>
<event>
 7    1  0.2855090E-009  0.1124926E+03  0.7561462E-02  0.1256022E+00
          2   -1    0    0  501    0  0.00000000000E+00  0.00000000000E+00  0.46499070479E+03  0.46499070479E+03  0.00000000000E+00 0. -1.
         -2   -1    0    0    0  501 -0.00000000000E+00 -0.00000000000E+00 -0.17736509849E+03  0.17736509849E+03  0.00000000000E+00 0.  1.
         25    2    1    2    0    0 -0.86013170694E+02 -0.24674315370E+01  0.42763717034E+03  0.45378990739E+03  0.12508947534E+03 0.  0.
          5    1    3    3  502    0 -0.85170047024E+02 -0.15125693827E+02  0.13214036727E+03  0.15799136871E+03  0.41800000000E+01 0. -1.
         -5    1    3    3    0  502 -0.84312366983E+00  0.12658262290E+02  0.29549680308E+03  0.29579853869E+03  0.41800000000E+01 0. -1.
        -11    1    1    2    0    0  0.51820773331E+02  0.46259639541E+02 -0.64305360296E+02  0.94660055788E+02  0.00000000000E+00 0.  1.
         11    1    1    2    0    0  0.34192397363E+02 -0.43792208004E+02 -0.75706203746E+02  0.93905840100E+02  0.00000000000E+00 0. -1.
</event>
<event>
 7    1  0.2855090E-009  0.1023623E+03  0.7561462E-02  0.1275405E+00
         -1   -1    0    0    0  501 -0.00000000000E+00  0.00000000000E+00  0.16230373676E+03  0.16230373676E+03  0.00000000000E+00 0.  1.
          1   -1    0    0  501    0  0.00000000000E+00 -0.00000000000E+00 -0.11013697070E+03  0.11013697070E+03  0.00000000000E+00 0. -1.
         25    2    1    2    0    0  0.55113334900E+02  0.35866608805E+02 -0.13468874974E+02  0.14196310679E+03  0.12509284466E+03 0.  0.
          5    1    3    3  502    0  0.36264609351E+02  0.70800187550E+02 -0.44646554615E+02  0.91315801960E+02  0.41800000000E+01 0. -1.
         -5    1    3    3    0  502  0.18848725550E+02 -0.34933578745E+02  0.31177679641E+02  0.50647304831E+02  0.41800000000E+01 0. -1.
        -11    1    1    2    0    0 -0.50498459477E+02 -0.15437552315E+01 -0.60322090282E+01  0.50880891654E+02  0.00000000000E+00 0. -1.
         11    1    1    2    0    0 -0.46148754238E+01 -0.34322853574E+02  0.71667850069E+02  0.79596709016E+02  0.00000000000E+00 0.  1.
</event>
<event>
 7    1  0.2855090E-009  0.1912218E+03  0.7561462E-02  0.1157364E+00
          1   -1    0    0  501    0  0.00000000000E+00  0.00000000000E+00  0.62416270986E+03  0.62416270986E+03  0.00000000000E+00 0. -1.
         -1   -1    0    0    0  501 -0.00000000000E+00 -0.00000000000E+00 -0.72832773023E+02  0.72832773023E+02  0.00000000000E+00 0.  1.
         25    2    1    2    0    0  0.17587335303E+03 -0.25086147154E+02  0.21517242281E+03  0.30578992674E+03  0.12509019415E+03 0.  0.
          5    1    3    3  502    0  0.18014850262E+02 -0.20191029837E+02 -0.11328684807E+02  0.29631470015E+02  0.41800000000E+01 0. -1.
         -5    1    3    3    0  502  0.15785850277E+03 -0.48951173174E+01  0.22650110761E+03  0.27615845672E+03  0.41800000000E+01 0. -1.
        -11    1    1    2    0    0  0.97579419378E+01  0.25009877271E+01  0.58815885225E+01  0.11664709770E+02  0.00000000000E+00 0.  1.
         11    1    1    2    0    0 -0.18563129497E+03  0.22585159427E+02  0.33027592551E+03  0.37954084638E+03  0.00000000000E+00 0. -1.
</event>
<event>
 7    1  0.2855090E-009  0.1094634E+03  0.7561462E-02  0.1261567E+00
         -2   -1    0    0    0  501 -0.00000000000E+00  0.00000000000E+00  0.38462699584E+02  0.38462699584E+02  0.00000000000E+00 0.  1.
          2   -1    0    0  501    0  0.00000000000E+00 -0.00000000000E+00 -0.50030510105E+03  0.50030510105E+03  0.00000000000E+00 0. -1.
         25    2    1    2    0    0 -0.46926890754E+02 -0.65847171588E+02 -0.30067126174E+03  0.33554501926E+03  0.12509703926E+03 0.  0.
          5    1    3    3  502    0 -0.75989125895E+02 -0.22109578096E+02 -0.97450426056E+02  0.12560747843E+03  0.41800000000E+01 0. -1.
         -5    1    3    3    0  502  0.29062235142E+02 -0.43737593493E+02 -0.20322083568E+03  0.20993754083E+03  0.41800000000E+01 0. -1.
        -11    1    1    2    0    0  0.17807845418E+02  0.51586823743E+02 -0.19601084629E+02  0.57987259471E+02  0.00000000000E+00 0.  1.
         11    1    1    2    0    0  0.29119045336E+02  0.14260347846E+02 -0.14157005510E+03  0.14523552191E+03  0.00000000000E+00 0. -1.
</event>
<event>
 7    1  0.2939914E-009  0.1694212E+03  0.7561462E-02  0.1178453E+00
          1   -1    0    0  501    0  0.00000000000E+00  0.00000000000E+00  0.16367866027E+03  0.16367866027E+03  0.00000000000E+00 0. -1.
         -1   -1    0    0    0  501 -0.00000000000E+00 -0.00000000000E+00 -0.20017823156E+03  0.20017823156E+03  0.00000000000E+00 0.  1.
         25    2    1    2    0    0  0.14355631678E+03  0.11273718643E+01 -0.19069385273E+01  0.19042399267E+03  0.12509186030E+03 0.  0.
          5    1    3    3  502    0  0.36890735173E+02  0.43546071700E+02  0.38147261613E+02  0.68774069755E+02  0.41800000000E+01 0.  1.
         -5    1    3    3    0  502  0.10666558161E+03 -0.42418699835E+02 -0.40054200140E+02  0.12164992291E+03  0.41800000000E+01 0.  1.
        -11    1    1    2    0    0 -0.11908070617E+03 -0.35767665114E+02 -0.40144274087E+02  0.13065643188E+03  0.00000000000E+00 0.  1.
         11    1    1    2    0    0 -0.24475610611E+02  0.34640293249E+02  0.55516413229E+01  0.42776467275E+02  0.00000000000E+00 0. -1.
</event>
<event>
 7    1  0.2855090E-009  0.2981306E+03  0.7561462E-02  0.1086179E+00
         -2   -1    0    0    0  501 -0.00000000000E+00  0.00000000000E+00  0.10659708143E+03  0.10659708143E+03  0.00000000000E+00 0.  1.
          2   -1    0    0  501    0  0.00000000000E+00 -0.00000000000E+00 -0.89645709041E+03  0.89645709041E+03  0.00000000000E+00 0. -1.
         25    2    1    2    0    0  0.28288373537E+03 -0.61594364661E+02 -0.39373060174E+03  0.50446616227E+03  0.12508096832E+03 0.  0.
          5    1    3    3  502    0  0.27764854568E+03 -0.36344792435E+02 -0.31486724315E+03  0.42138878968E+03  0.41800000000E+01 0. -1.
         -5    1    3    3    0  502  0.52351896834E+01 -0.25249572226E+02 -0.78863358589E+02  0.83077372591E+02  0.41800000000E+01 0. -1.
        -11    1    1    2    0    0 -0.14322955025E+03  0.21821367593E+02 -0.26925933967E+03  0.30576374564E+03  0.00000000000E+00 0.  1.
         11    1    1    2    0    0 -0.13965418511E+03  0.39772997068E+02 -0.12687006758E+03  0.19282426393E+03  0.00000000000E+00 0. -1.
</event>
<event>
 7    1  0.2855090E-009  0.2506840E+03  0.7561462E-02  0.1112873E+00
          1   -1    0    0  501    0  0.00000000000E+00  0.00000000000E+00  0.16132032683E+03  0.16132032683E+03  0.00000000000E+00 0. -1.
         -1   -1    0    0    0  501 -0.00000000000E+00 -0.00000000000E+00 -0.42483988949E+03  0.42483988949E+03  0.00000000000E+00 0.  1.
         25    2    1    2    0    0  0.20933645164E+03  0.10802631336E+03 -0.10136368715E+03  0.28533158616E+03  0.12509229643E+03 0.  0.
          5    1    3    3  502    0  0.11569829774E+02  0.51896219626E+02 -0.50643678575E+02  0.73548168924E+02  0.41800000000E+01 0. -1.
         -5    1    3    3    0  502  0.19776662187E+03  0.56130093734E+02 -0.50720008573E+02  0.21178341724E+03  0.41800000000E+01 0. -1.
        -11    1    1    2    0    0 -0.13889724871E+03 -0.40128369288E+02 -0.52358609231E+02  0.15376656230E+03  0.00000000000E+00 0.  1.
         11    1    1    2    0    0 -0.70439202939E+02 -0.67897944073E+02 -0.10979726629E+03  0.14706206786E+03  0.00000000000E+00 0. -1.
</event>
<event>
 7    1  0.2855090E-009  0.1902775E+03  0.7561462E-02  0.1158211E+00
          2   -1    0    0  501    0  0.00000000000E+00  0.00000000000E+00  0.77975866141E+02  0.77975866141E+02  0.00000000000E+00 0. -1.
         -2   -1    0    0    0  501 -0.00000000000E+00 -0.00000000000E+00 -0.82422380620E+03  0.82422380620E+03  0.00000000000E+00 0.  1.
         25    2    1    2    0    0 -0.88675524112E+02 -0.13441458411E+03 -0.67433442083E+03  0.70448858837E+03  0.12508649416E+03 0.  0.
          5    1    3    3  502    0 -0.51637168698E+02 -0.15349764052E+03 -0.53121949639E+03  0.55537334162E+03  0.41800000000E+01 0.  1.
         -5    1    3    3    0  502 -0.37038355414E+02  0.19083056415E+02 -0.14311492445E+03  0.14911524675E+03  0.41800000000E+01 0.  1.
        -11    1    1    2    0    0  0.79287906648E+01  0.77458258719E+02 -0.43041661570E+01  0.77981878738E+02  0.00000000000E+00 0.  1.
         11    1    1    2    0    0  0.80746733447E+02  0.56956325388E+02 -0.67609353067E+02  0.11972920523E+03  0.00000000000E+00 0. -1.
</event>
<event>
 7    1  0.2855090E-009  0.1334038E+03  0.7561462E-02  0.1222491E+00
         -3   -1    0    0    0  501 -0.00000000000E+00  0.00000000000E+00  0.76486491106E+02  0.76486491106E+02  0.00000000000E+00 0.  1.
          3   -1    0    0  501    0  0.00000000000E+00 -0.00000000000E+00 -0.30710260289E+03  0.30710260289E+03  0.00000000000E+00 0. -1.
         25    2    1    2    0    0 -0.76427598960E+02 -0.68050615804E+02 -0.16805445595E+03  0.23315659705E+03  0.12509050480E+03 0.  0.
          5    1    3    3  502    0 -0.79563410629E+01 -0.73766466087E+02 -0.14063293124E+03  0.15905938712E+03  0.41800000000E+01 0.  1.
         -5    1    3    3    0  502 -0.68471257897E+02  0.57158502827E+01 -0.27421524711E+02  0.74097209934E+02  0.41800000000E+01 0.  1.
        -11    1    1    2    0    0  0.39777666860E+01  0.48438764561E+02  0.57530237906E+01  0.48941126088E+02  0.00000000000E+00 0.  1.
         11    1    1    2    0    0  0.72449832274E+02  0.19611851243E+02 -0.68314679625E+02  0.10149137085E+03  0.00000000000E+00 0. -1.
</event>
<event>
 7    1  0.2855090E-009  0.1874709E+03  0.7561462E-02  0.1160762E+00
          1   -1    0    0  501    0  0.00000000000E+00  0.00000000000E+00  0.74606988338E+03  0.74606988338E+03  0.00000000000E+00 0. -1.
         -1   -1    0    0    0  501 -0.00000000000E+00 -0.00000000000E+00 -0.54776971513E+02  0.54776971513E+02  0.00000000000E+00 0.  1.
         25    2    1    2    0    0 -0.60339679631E+02  0.14641482881E+03  0.23511034138E+03  0.30982234194E+03  0.12503932144E+03 0.  0.
          5    1    3    3  502    0 -0.73243188341E+02  0.15886847260E+03  0.17713926064E+03  0.24899708087E+03  0.41800000000E+01 0.  1.
         -5    1    3    3    0  502  0.12903508710E+02 -0.12453643792E+02  0.57971080747E+02  0.60825261066E+02  0.41800000000E+01 0.  1.
        -11    1    1    2    0    0 -0.17061204613E+02 -0.72618694197E+02  0.17846732763E+03  0.19342995239E+03  0.00000000000E+00 0.  1.
         11    1    1    2    0    0  0.77400884244E+02 -0.73796134609E+02  0.27771524286E+03  0.29759456057E+03  0.00000000000E+00 0. -1.
</event>
<event>
 7    1  0.2855090E-009  0.1956463E+03  0.7561462E-02  0.1153465E+00
          2   -1    0    0  501    0  0.00000000000E+00  0.00000000000E+00  0.28057758461E+02  0.28057758461E+02  0.00000000000E+00 0. -1.
         -2   -1    0    0    0  501 -0.00000000000E+00 -0.00000000000E+00 -0.14266049696E+04  0.14266049696E+04  0.00000000000E+00 0.  1.
         25    2    1    2    0    0  0.23923025580E+02  0.16390249427E+03 -0.89065805066E+03  0.91452525144E+03  0.12509329937E+03 0.  0.
          5    1    3    3  502    0  0.27459356547E+02  0.18428850925E+03 -0.80788704266E+03  0.82910506994E+03  0.41800000000E+01 0.  1.
         -5    1    3    3    0  502 -0.35363309672E+01 -0.20386014975E+02 -0.82771007998E+02  0.85420181505E+02  0.41800000000E+01 0.  1.
        -11    1    1    2    0    0 -0.52564519924E+02 -0.85749965732E+02 -0.27341291195E+03  0.29132577263E+03  0.00000000000E+00 0.  1.
         11    1    1    2    0    0  0.28641494344E+02 -0.78152528542E+02 -0.23447624857E+03  0.24881170402E+03  0.00000000000E+00 0. -1.
</event>
<event>
 7    1  0.2855090E-009  0.1615110E+03  0.7561462E-02  0.1187001E+00
          1   -1    0    0  501    0  0.00000000000E+00  0.00000000000E+00  0.11262636535E+03  0.11262636535E+03  0.00000000000E+00 0. -1.
         -1   -1    0    0    0  501 -0.00000000000E+00 -0.00000000000E+00 -0.25398892964E+03  0.25398892964E+03  0.00000000000E+00 0.  1.
         25    2    1    2    0    0  0.31583707970E+02  0.11369356992E+03 -0.29379085667E+02  0.17445509734E+03  0.12509073451E+03 0.  0.
          5    1    3    3  502    0  0.76441007793E+02  0.90304053973E+02 -0.34823449565E+02  0.12340257240E+03  0.41800000000E+01 0.  1.
         -5    1    3    3    0  502 -0.44857299822E+02  0.23389515949E+02  0.54443638985E+01  0.51052524932E+02  0.41800000000E+01 0.  1.
        -11    1    1    2    0    0 -0.20207784436E+02 -0.13133588623E+03 -0.84101765615E+02  0.15725958331E+03  0.00000000000E+00 0.  1.
         11    1    1    2    0    0 -0.11375923534E+02  0.17642316309E+02 -0.27881713005E+02  0.34900614337E+02  0.00000000000E+00 0. -1.
</event>
<event>
 7    1  0.2855090E-009  0.1332397E+03  0.7561462E-02  0.1222726E+00
          1   -1    0    0  501    0  0.00000000000E+00  0.00000000000E+00  0.10544841048E+03  0.10544841048E+03  0.00000000000E+00 0. -1.
         -1   -1    0    0    0  501 -0.00000000000E+00 -0.00000000000E+00 -0.34218034001E+03  0.34218034001E+03  0.00000000000E+00 0.  1.
         25    2    1    2    0    0 -0.11008429426E+03  0.24676216087E+02 -0.25299436892E+03  0.30394104988E+03  0.12508614475E+03 0.  0.
          5    1    3    3  502    0  0.13961332820E+02  0.16646254041E+02 -0.10861466596E+00  0.22124664627E+02  0.41800000000E+01 0. -1.
         -5    1    3    3    0  502 -0.12404562708E+03  0.80299620457E+01 -0.25288575426E+03  0.28181638525E+03  0.41800000000E+01 0. -1.
        -11    1    1    2    0    0  0.86089868346E+02 -0.36163627079E+02  0.45742577400E+02  0.10397911686E+03  0.00000000000E+00 0. -1.
         11    1    1    2    0    0  0.23994425918E+02  0.11487410992E+02 -0.29480138016E+02  0.39708583755E+02  0.00000000000E+00 0.  1.
</event>
<event>
 7    1  0.2855090E-009  0.9821500E+02  0.7561462E-02  0.1284095E+00
         -1   -1    0    0    0  501 -0.00000000000E+00  0.00000000000E+00  0.18948540336E+03  0.18948540336E+03  0.00000000000E+00 0.  1.
          1   -1    0    0  501    0  0.00000000000E+00 -0.00000000000E+00 -0.91583813778E+02  0.91583813778E+02  0.00000000000E+00 0. -1.
         25    2    1    2    0    0  0.42511840172E+02  0.60526230914E+02  0.52533652586E+02  0.15454071599E+03  0.12510942035E+03 0.  0.
          5    1    3    3  502    0 -0.47994021548E+01  0.84750884284E+01  0.78673801753E+02  0.79384512766E+02  0.41800000000E+01 0. -1.
         -5    1    3    3    0  502  0.47311242327E+02  0.52051142486E+02 -0.26140149167E+02  0.75156203224E+02  0.41800000000E+01 0. -1.
        -11    1    1    2    0    0 -0.56342336201E+02 -0.76004368579E+02  0.25949882767E+02  0.98104634484E+02  0.00000000000E+00 0. -1.
         11    1    1    2    0    0  0.13830496029E+02  0.15478137665E+02  0.19418054230E+02  0.28423866663E+02  0.00000000000E+00 0.  1.
</event>
<event>
 7    1  0.2855090E-009  0.1001311E+03  0.7561462E-02  0.1280021E+00
          2   -1    0    0  501    0  0.00000000000E+00  0.00000000000E+00  0.18768744209E+03  0.18768744209E+03  0.00000000000E+00 0. -1.
         -2   -1    0    0    0  501 -0.00000000000E+00 -0.00000000000E+00 -0.10510112762E+03  0.10510112762E+03  0.00000000000E+00 0.  1.
         25    2    1    2    0    0 -0.11637253649E+02  0.44608187660E+02  0.12608669109E+03  0.18349315400E+03  0.12508624151E+03 0.  0.
          5    1    3    3  502    0 -0.51045920324E+02 -0.63508638990E+01  0.10250850985E+03  0.11476709653E+03  0.41800000000E+01 0.  1.
         -5    1    3    3    0  502  0.39408666674E+02  0.50959051559E+02  0.23578181239E+02  0.68726057470E+02  0.41800000000E+01 0. -1.
        -11    1    1    2    0    0  0.46161015400E+00  0.19257028675E+02 -0.39963249173E+02  0.44363357873E+02  0.00000000000E+00 0.  1.
         11    1    1    2    0    0  0.11175643495E+02 -0.63865216335E+02 -0.35371274501E+01  0.64932057842E+02  0.00000000000E+00 0. -1.
</event>
<event>
 7    1  0.2855090E-009  0.9524822E+02  0.7561462E-02  0.1290618E+00
         -2   -1    0    0    0  501 -0.00000000000E+00  0.00000000000E+00  0.57938053294E+03  0.57938053294E+03  0.00000000000E+00 0.  1.
          2   -1    0    0  501    0  0.00000000000E+00 -0.00000000000E+00 -0.48855061494E+02  0.48855061494E+02  0.00000000000E+00 0. -1.
         25    2    1    2    0    0  0.24818361703E+02  0.77334943217E+02  0.46907463648E+03  0.49221468050E+03  0.12509049764E+03 0.  0.
          5    1    3    3  502    0  0.81235889391E+01 -0.38522793824E+01  0.33078550623E+03  0.33093406637E+03  0.41800000000E+01 0.  1.
         -5    1    3    3    0  502  0.16694772764E+02  0.81187222599E+02  0.13828913024E+03  0.16128061413E+03  0.41800000000E+01 0.  1.
        -11    1    1    2    0    0  0.81206254941E+01 -0.59657234751E+02 -0.43267649091E+01  0.60362663221E+02  0.00000000000E+00 0.  1.
         11    1    1    2    0    0 -0.32938987197E+02 -0.17677708466E+02  0.65777599878E+02  0.75658250706E+02  0.00000000000E+00 0. -1.
</event>
<event>
 7    1  0.2855090E-009  0.3182728E+03  0.7561462E-02  0.1076447E+00
          2   -1    0    0  501    0  0.00000000000E+00  0.00000000000E+00  0.11916901315E+04  0.11916901315E+04  0.00000000000E+00 0. -1.
         -2   -1    0    0    0  501 -0.00000000000E+00 -0.00000000000E+00 -0.87942613632E+02  0.87942613632E+02  0.00000000000E+00 0.  1.
         25    2    1    2    0    0  0.29286880993E+03  0.64346691915E+02  0.66042861307E+03  0.73602219764E+03  0.12510030325E+03 0.  0.
          5    1    3    3  502    0  0.13211322471E+03  0.89082748439E+02  0.27861794758E+03  0.32099076829E+03  0.41800000000E+01 0.  1.
         -5    1    3    3    0  502  0.16075558522E+03 -0.24736056524E+02  0.38181066549E+03  0.41503142935E+03  0.41800000000E+01 0.  1.
        -11    1    1    2    0    0 -0.10751464011E+03 -0.71224640995E+02  0.17323249803E+03  0.21596723293E+03  0.00000000000E+00 0. -1.
         11    1    1    2    0    0 -0.18535416982E+03  0.68779490800E+01  0.27008640674E+03  0.32764331454E+03  0.00000000000E+00 0.  1.
</event>
<event>
 7    1  0.2855090E-009  0.9192566E+02  0.7561462E-02  0.1298254E+00
         -1   -1    0    0    0  501 -0.00000000000E+00  0.00000000000E+00  0.58416237386E+03  0.58416237386E+03  0.00000000000E+00 0.  1.
          1   -1    0    0  501    0  0.00000000000E+00 -0.00000000000E+00 -0.20074389355E+02  0.20074389355E+02  0.00000000000E+00 0. -1.
         25    2    1    2    0    0  0.12185080089E+02 -0.62328430272E+01  0.25495981008E+03  0.28432325705E+03  0.12509150745E+03 0.  0.
          5    1    3    3  502    0  0.20233986818E+02  0.45523807903E+02  0.20776446928E+03  0.21369459143E+03  0.41800000000E+01 0. -1.
         -5    1    3    3    0  502 -0.80489067295E+01 -0.51756650930E+02  0.47195340793E+02  0.70628665622E+02  0.41800000000E+01 0. -1.
        -11    1    1    2    0    0  0.32112784527E+02  0.16110190102E+02  0.11169635761E+03  0.11733220129E+03  0.00000000000E+00 0. -1.
         11    1    1    2    0    0 -0.44297864616E+02 -0.98773470745E+01  0.19743181681E+03  0.20258130488E+03  0.00000000000E+00 0.  1.
</event>
<event>
 7    1  0.2855090E-009  0.1179204E+03  0.7561462E-02  0.1246568E+00
         -2   -1    0    0    0  501 -0.00000000000E+00  0.00000000000E+00  0.44777323027E+02  0.44777323027E+02  0.00000000000E+00 0.  1.
          2   -1    0    0  501    0  0.00000000000E+00 -0.00000000000E+00 -0.42620930308E+03  0.42620930308E+03  0.00000000000E+00 0. -1.
         25    2    1    2    0    0 -0.49969555742E+02 -0.10623767278E+01 -0.32795535413E+03  0.35454048126E+03  0.12508458500E+03 0.  0.
          5    1    3    3  502    0 -0.80587765999E+02  0.33544940268E+02 -0.19390951877E+03  0.21269232453E+03  0.41800000000E+01 0. -1.
         -5    1    3    3    0  502  0.30618210257E+02 -0.34607316995E+02 -0.13404583536E+03  0.14184815672E+03  0.41800000000E+01 0. -1.
        -11    1    1    2    0    0  0.70466983365E+02 -0.19402397179E+02 -0.29397730167E+02  0.78779916856E+02  0.00000000000E+00 0. -1.
         11    1    1    2    0    0 -0.20497427624E+02  0.20464773907E+02 -0.24078895758E+02  0.37666227992E+02  0.00000000000E+00 0.  1.
</event>
<event>
 7    1  0.2855090E-009  0.1227495E+03  0.7561462E-02  0.1238629E+00
          2   -1    0    0  501    0  0.00000000000E+00  0.00000000000E+00  0.39389790088E+03  0.39389790088E+03  0.00000000000E+00 0.  1.
         -2   -1    0    0    0  501 -0.00000000000E+00 -0.00000000000E+00 -0.60871024631E+02  0.60871024631E+02  0.00000000000E+00 0. -1.
         25    2    1    2    0    0 -0.54968916963E+02  0.51350004702E+02  0.29743839291E+03  0.33133859213E+03  0.12512897444E+03 0.  0.
          5    1    3    3  502    0 -0.46715689981E+02  0.92262742409E+02  0.19811758527E+03  0.22352364376E+03  0.41800000000E+01 0.  1.
         -5    1    3    3    0  502 -0.82532269822E+01 -0.40912737707E+02  0.99320807639E+02  0.10781494837E+03  0.41800000000E+01 0.  1.
        -11    1    1    2    0    0  0.32500115233E+02  0.10575553994E+02  0.45401369798E+02  0.56827671182E+02  0.00000000000E+00 0.  1.
         11    1    1    2    0    0  0.22468801730E+02 -0.61925558696E+02 -0.98128864583E+01  0.66602662196E+02  0.00000000000E+00 0. -1.
</event>
<event>
 7    1  0.2855090E-009  0.1123463E+03  0.7561462E-02  0.1256286E+00
          1   -1    0    0  501    0  0.00000000000E+00  0.00000000000E+00  0.43824334565E+03  0.43824334565E+03  0.00000000000E+00 0. -1.
         -1   -1    0    0    0  501 -0.00000000000E+00 -0.00000000000E+00 -0.50439678176E+02  0.50439678176E+02  0.00000000000E+00 0.  1.
         25    2    1    2    0    0  0.91745557360E+02  0.29187185367E+02  0.25257359501E+03  0.29784370236E+03  0.12509320947E+03 0.  0.
          5    1    3    3  502    0  0.85717795730E+02  0.37742580872E+02  0.26498397053E+03  0.28108009526E+03  0.41800000000E+01 0.  1.
         -5    1    3    3    0  502  0.60277616299E+01 -0.85553955051E+01 -0.12410375518E+02  0.16763607100E+02  0.41800000000E+01 0.  1.
        -11    1    1    2    0    0  0.14908359867E+00 -0.27764701405E+02  0.77458174061E+02  0.82284078648E+02  0.00000000000E+00 0. -1.
         11    1    1    2    0    0 -0.91894640959E+02 -0.14224839619E+01  0.57771898402E+02  0.10855524281E+03  0.00000000000E+00 0.  1.
</event>
<event>
 7    1  0.2855090E-009  0.3012955E+03  0.7561462E-02  0.1084595E+00
          1   -1    0    0  501    0  0.00000000000E+00  0.00000000000E+00  0.10441914345E+04  0.10441914345E+04  0.00000000000E+00 0. -1.
         -1   -1    0    0    0  501 -0.00000000000E+00 -0.00000000000E+00 -0.23839564956E+03  0.23839564956E+03  0.00000000000E+00 0.  1.
         25    2    1    2    0    0 -0.13953292843E+03 -0.25519546874E+03 -0.95961168675E+02  0.33083373725E+03  0.12509296713E+03 0.  0.
          5    1    3    3  502    0  0.27429396477E+01 -0.42255275426E+02 -0.57954870275E+02  0.71897645356E+02  0.41800000000E+01 0.  1.
         -5    1    3    3    0  502 -0.14227586808E+03 -0.21294019331E+03 -0.38006298401E+02  0.25893609189E+03  0.41800000000E+01 0.  1.
        -11    1    1    2    0    0  0.14480930912E+03  0.19196207807E+03  0.73492535849E+03  0.77326221812E+03  0.00000000000E+00 0. -1.
         11    1    1    2    0    0 -0.52763806907E+01  0.63233390664E+02  0.16683159518E+03  0.17849112874E+03  0.00000000000E+00 0.  1.
</event>
<event>
 7    1  0.2855090E-009  0.8605333E+02  0.7561462E-02  0.1312701E+00
         -1   -1    0    0    0  501 -0.00000000000E+00  0.00000000000E+00  0.42584552921E+03  0.42584552921E+03  0.00000000000E+00 0.  1.
          1   -1    0    0  501    0  0.00000000000E+00 -0.00000000000E+00 -0.59225820276E+02  0.59225820276E+02  0.00000000000E+00 0. -1.
         25    2    1    2    0    0  0.33886458921E+02 -0.16295334547E+02  0.36352196328E+03  0.38627876460E+03  0.12509690711E+03 0.  0.
          5    1    3    3  502    0 -0.19113575827E+02  0.13315589776E+02  0.71137315775E+01  0.24712573499E+02  0.41800000000E+01 0.  1.
         -5    1    3    3    0  502  0.53000034748E+02 -0.29610924323E+02  0.35640823170E+03  0.36156619110E+03  0.41800000000E+01 0.  1.
        -11    1    1    2    0    0  0.17197690409E+02  0.30102122526E+02 -0.21122236998E+02  0.40596147992E+02  0.00000000000E+00 0. -1.
         11    1    1    2    0    0 -0.51084149330E+02 -0.13806787979E+02  0.24219982648E+02  0.58196436889E+02  0.00000000000E+00 0.  1.
</event>
<event>
 7    1  0.2855090E-009  0.1242292E+03  0.7561462E-02  0.1236279E+00
          1   -1    0    0  501    0  0.00000000000E+00  0.00000000000E+00  0.84247560178E+03  0.84247560178E+03  0.00000000000E+00 0. -1.
         -1   -1    0    0    0  501 -0.00000000000E+00 -0.00000000000E+00 -0.36764258229E+02  0.36764258229E+02  0.00000000000E+00 0.  1.
         25    2    1    2    0    0  0.50327087864E+02 -0.85182614955E+02  0.66827518319E+03  0.68704189934E+03  0.12508380115E+03 0.  0.
          5    1    3    3  502    0  0.51528056843E+02 -0.15808565766E+02  0.92910626647E+02  0.10749375953E+03  0.41800000000E+01 0.  1.
         -5    1    3    3    0  502 -0.12009689788E+01 -0.69374049190E+02  0.57536455655E+03  0.57954813981E+03  0.41800000000E+01 0.  1.
        -11    1    1    2    0    0 -0.42752615108E+02  0.35447660971E+01  0.84036582242E+02  0.94353053052E+02  0.00000000000E+00 0. -1.
         11    1    1    2    0    0 -0.75744727567E+01  0.81637848858E+02  0.53399578112E+02  0.97844907615E+02  0.00000000000E+00 0.  1.
</event>
<event>
 7    1  0.2855090E-009  0.8103808E+02  0.7561462E-02  0.1326131E+00
          2   -1    0    0  501    0  0.00000000000E+00  0.00000000000E+00  0.73784119476E+03  0.73784119476E+03  0.00000000000E+00 0. -1.
         -2   -1    0    0    0  501 -0.00000000000E+00 -0.00000000000E+00 -0.30213147944E+02  0.30213147944E+02  0.00000000000E+00 0.  1.
         25    2    1    2    0    0 -0.24101544316E+02  0.15737799478E+02  0.63207035941E+03  0.64497137214E+03  0.12508624568E+03 0.  0.
          5    1    3    3  502    0  0.75645843528E+01 -0.45307451036E+02  0.12493354941E+03  0.13317601971E+03  0.41800000000E+01 0. -1.
         -5    1    3    3    0  502 -0.31666128669E+02  0.61045250513E+02  0.50713681000E+03  0.51179535243E+03  0.41800000000E+01 0. -1.
        -11    1    1    2    0    0  0.23328874630E+02  0.69594113924E+01 -0.15748664977E+02  0.28994658939E+02  0.00000000000E+00 0.  1.
         11    1    1    2    0    0  0.77266968612E+00 -0.22697210870E+02  0.91306352380E+02  0.94088311626E+02  0.00000000000E+00 0. -1.
</event>
<event>
 7    1  0.2855090E-009  0.9560159E+02  0.7561462E-02  0.1289827E+00
          2   -1    0    0  501    0  0.00000000000E+00  0.00000000000E+00  0.53925054230E+02  0.53925054230E+02  0.00000000000E+00 0. -1.
         -2   -1    0    0    0  501 -0.00000000000E+00 -0.00000000000E+00 -0.26580041276E+03  0.26580041276E+03  0.00000000000E+00 0.  1.
         25    2    1    2    0    0  0.48085844136E+02  0.69505241118E+01 -0.11056017609E+03  0.17387386065E+03  0.12509200090E+03 0.  0.
          5    1    3    3  502    0  0.12343056549E+02 -0.54375712222E+02 -0.77224555027E+02  0.95342400975E+02  0.41800000000E+01 0.  1.
         -5    1    3    3    0  502  0.35742787588E+02  0.61326236334E+02 -0.33335621060E+02  0.78531459676E+02  0.41800000000E+01 0.  1.
        -11    1    1    2    0    0 -0.45916631529E+02  0.10083731567E+02 -0.11477746414E+03  0.12403179015E+03  0.00000000000E+00 0.  1.
         11    1    1    2    0    0 -0.21692126074E+01 -0.17034255679E+02  0.13462281700E+02  0.21819816187E+02  0.00000000000E+00 0. -1.
</event>
<event>
 7    1  0.2855090E-009  0.1058062E+03  0.7561462E-02  0.1268539E+00
         -3   -1    0    0    0  501 -0.00000000000E+00  0.00000000000E+00  0.33284416430E+02  0.33284416430E+02  0.00000000000E+00 0.  1.
          3   -1    0    0  501    0  0.00000000000E+00 -0.00000000000E+00 -0.43274078897E+03  0.43274078897E+03  0.00000000000E+00 0. -1.
         25    2    1    2    0    0 -0.38840631532E+02 -0.96361841808E+01 -0.28329516767E+03  0.31226108658E+03  0.12509749584E+03 0.  0.
          5    1    3    3  502    0 -0.46482940724E+02  0.41915182627E+02 -0.22667372147E+03  0.23519352609E+03  0.41800000000E+01 0. -1.
         -5    1    3    3    0  502  0.76423091924E+01 -0.51551366808E+02 -0.56621446200E+02  0.77067560486E+02  0.41800000000E+01 0. -1.
        -11    1    1    2    0    0  0.21678402992E+02 -0.39222778404E+02 -0.76005278221E+02  0.88233677354E+02  0.00000000000E+00 0. -1.
         11    1    1    2    0    0  0.17162228540E+02  0.48858962585E+02 -0.40155926651E+02  0.65530441464E+02  0.00000000000E+00 0.  1.
</event>
<event>
 7    1  0.2855090E-009  0.1082196E+03  0.7561462E-02  0.1263903E+00
         -2   -1    0    0    0  501 -0.00000000000E+00  0.00000000000E+00  0.41433934774E+02  0.41433934774E+02  0.00000000000E+00 0.  1.
          2   -1    0    0  501    0  0.00000000000E+00 -0.00000000000E+00 -0.40461887804E+03  0.40461887804E+03  0.00000000000E+00 0. -1.
         25    2    1    2    0    0  0.59799138739E+02  0.25660366804E+02 -0.15107608154E+03  0.20665401663E+03  0.12509000262E+03 0.  0.
          5    1    3    3  502    0  0.10333892744E+02  0.70663006101E+02 -0.97140298156E+02  0.12063896425E+03  0.41800000000E+01 0. -1.
         -5    1    3    3    0  502  0.49465245995E+02 -0.45002639297E+02 -0.53935783386E+02  0.86015052372E+02  0.41800000000E+01 0. -1.
        -11    1    1    2    0    0 -0.14156537423E+02 -0.28858736325E+02 -0.12297974365E+02  0.34416193682E+02  0.00000000000E+00 0.  1.
         11    1    1    2    0    0 -0.45642601315E+02  0.31983695215E+01 -0.19981088736E+03  0.20498260251E+03  0.00000000000E+00 0. -1.
</event>
<event>
 7    1  0.2855090E-009  0.1155347E+03  0.7561462E-02  0.1250651E+00
          1   -1    0    0  501    0  0.00000000000E+00  0.00000000000E+00  0.46687622137E+02  0.46687622137E+02  0.00000000000E+00 0. -1.
         -1   -1    0    0    0  501 -0.00000000000E+00 -0.00000000000E+00 -0.36572053958E+03  0.36572053958E+03  0.00000000000E+00 0.  1.
         25    2    1    2    0    0  0.45303017647E+01 -0.72622661272E+02 -0.16360367538E+03  0.21842237902E+03  0.12509036132E+03 0.  0.
          5    1    3    3  502    0 -0.17178276998E+02 -0.91071202055E+02 -0.59035609255E+02  0.10996241451E+03  0.41800000000E+01 0.  1.
         -5    1    3    3    0  502  0.21708578763E+02  0.18448540784E+02 -0.10456806612E+03  0.10845996451E+03  0.41800000000E+01 0.  1.
        -11    1    1    2    0    0  0.37393551288E+02  0.20603585000E+02 -0.93938595257E+02  0.10318548867E+03  0.00000000000E+00 0.  1.
         11    1    1    2    0    0 -0.41923853053E+02  0.52019076272E+02 -0.61490646806E+02  0.90800294028E+02  0.00000000000E+00 0. -1.
</event>
<event>
 7    1  0.2855090E-009  0.1484406E+03  0.7561462E-02  0.1202402E+00
          2   -1    0    0  501    0  0.00000000000E+00  0.00000000000E+00  0.83819512950E+03  0.83819512950E+03  0.00000000000E+00 0. -1.
         -2   -1    0    0    0  501 -0.00000000000E+00 -0.00000000000E+00 -0.38518405096E+02  0.38518405096E+02  0.00000000000E+00 0.  1.
         25    2    1    2    0    0  0.13974184998E+03  0.30470575915E+02  0.46184771625E+03  0.49940674326E+03  0.12509013379E+03 0.  0.
          5    1    3    3  502    0  0.79820855252E+02  0.20388870460E+02  0.87950564970E+02  0.12058129727E+03  0.41800000000E+01 0. -1.
         -5    1    3    3    0  502  0.59920994733E+02  0.10081705455E+02  0.37389715128E+03  0.37882544599E+03  0.41800000000E+01 0. -1.
        -11    1    1    2    0    0 -0.11775657720E+02 -0.22348477005E+02  0.13502516870E+03  0.13736781545E+03  0.00000000000E+00 0. -1.
         11    1    1    2    0    0 -0.12796619226E+03 -0.81220989099E+01  0.20280383945E+03  0.23993897589E+03  0.00000000000E+00 0.  1.
</event>
<event>
 7    1  0.2855090E-009  0.1060370E+03  0.7561462E-02  0.1268090E+00
         -3   -1    0    0    0  501 -0.00000000000E+00  0.00000000000E+00  0.51437575994E+03  0.51437575994E+03  0.00000000000E+00 0.  1.
          3   -1    0    0  501    0  0.00000000000E+00 -0.00000000000E+00 -0.28535040296E+02  0.28535040296E+02  0.00000000000E+00 0. -1.
         25    2    1    2    0    0 -0.33083131514E+02 -0.22125693238E+02  0.30952940119E+03  0.33621458945E+03  0.12509100714E+03 0.  0.
          5    1    3    3  502    0  0.14774824938E+02  0.36253015883E+02  0.19532003578E+03  0.19924850160E+03  0.41800000000E+01 0.  1.
         -5    1    3    3    0  502 -0.47857956451E+02 -0.58378709121E+02  0.11420936540E+03  0.13696608785E+03  0.41800000000E+01 0.  1.
        -11    1    1    2    0    0  0.62968791074E+02  0.23427265479E+02  0.15782688059E+03  0.17153200767E+03  0.00000000000E+00 0.  1.
         11    1    1    2    0    0 -0.29885659561E+02 -0.13015722411E+01  0.18484437865E+02  0.35164203117E+02  0.00000000000E+00 0. -1.
</event>
<event>
 7    1  0.2855090E-009  0.1374389E+03  0.7561462E-02  0.1216817E+00
          2   -1    0    0  501    0  0.00000000000E+00  0.00000000000E+00  0.12835618294E+04  0.12835618294E+04  0.00000000000E+00 0. -1.
         -2   -1    0    0    0  501 -0.00000000000E+00 -0.00000000000E+00 -0.39835715211E+02  0.39835715211E+02  0.00000000000E+00 0.  1.
         25    2    1    2    0    0 -0.22942521841E+02  0.11322679400E+03  0.10763230086E+04  0.10897081875E+04  0.12508416733E+03 0.  0.
          5    1    3    3  502    0 -0.49179791061E+02  0.86060488076E+02  0.99513363200E+03  0.10000667365E+04  0.41800000000E+01 0.  1.
         -5    1    3    3    0  502  0.26237269220E+02  0.27166305919E+02  0.81189376606E+02  0.89641451054E+02  0.41800000000E+01 0.  1.
        -11    1    1    2    0    0 -0.17529131527E+02 -0.88550158259E+02  0.16268910900E+03  0.18605415117E+03  0.00000000000E+00 0. -1.
         11    1    1    2    0    0  0.40471653368E+02 -0.24676635736E+02  0.47139965651E+01  0.47635205901E+02  0.00000000000E+00 0.  1.
</event>
<event>
 7    1  0.2855090E-009  0.1024122E+03  0.7561462E-02  0.1275304E+00
          2   -1    0    0  501    0  0.00000000000E+00  0.00000000000E+00  0.36136374748E+03  0.36136374748E+03  0.00000000000E+00 0.  1.
         -2   -1    0    0    0  501 -0.00000000000E+00 -0.00000000000E+00 -0.50932742963E+02  0.50932742963E+02  0.00000000000E+00 0. -1.
         25    2    1    2    0    0 -0.71687284685E+01 -0.27547755108E+02  0.55254845302E+02  0.13968070920E+03  0.12508930056E+03 0.  0.
          5    1    3    3  502    0  0.11707246062E+02 -0.75408597041E+02  0.28747319499E+02  0.81654129696E+02  0.41800000000E+01 0. -1.
         -5    1    3    3    0  502 -0.18875974530E+02  0.47860841933E+02  0.26507525803E+02  0.58026579506E+02  0.41800000000E+01 0. -1.
        -11    1    1    2    0    0  0.21770051658E+02  0.47385971979E+02  0.23517056334E+03  0.24088287475E+03  0.00000000000E+00 0.  1.
         11    1    1    2    0    0 -0.14601323189E+02 -0.19838216871E+02  0.20005595874E+02  0.31732906482E+02  0.00000000000E+00 0. -1.
</event>
<event>
 7    1  0.2855090E-009  0.2277577E+03  0.7561462E-02  0.1128228E+00
          2   -1    0    0  501    0  0.00000000000E+00  0.00000000000E+00  0.48947479757E+03  0.48947479757E+03  0.00000000000E+00 0. -1.
         -2   -1    0    0    0  501 -0.00000000000E+00 -0.00000000000E+00 -0.13860541353E+03  0.13860541353E+03  0.00000000000E+00 0.  1.
         25    2    1    2    0    0  0.17134559564E+03  0.13641927902E+03  0.73318908109E+02  0.26266470749E+03  0.12509018124E+03 0.  0.
          5    1    3    3  502    0  0.10047851674E+03  0.10327344203E+03 -0.14619112901E+02  0.14488798092E+03  0.41800000000E+01 0. -1.
         -5    1    3    3    0  502  0.70867078905E+02  0.33145836993E+02  0.87938021010E+02  0.11777672657E+03  0.41800000000E+01 0. -1.
        -11    1    1    2    0    0 -0.10753347801E+03 -0.13025932204E+03  0.16643271021E+03  0.23713031628E+03  0.00000000000E+00 0.  1.
         11    1    1    2    0    0 -0.63812117626E+02 -0.61599569802E+01  0.11111776572E+03  0.12828518732E+03  0.00000000000E+00 0. -1.
</event>
<event>
 7    1  0.2855090E-009  0.2475441E+03  0.7561462E-02  0.1114867E+00
          1   -1    0    0  501    0  0.00000000000E+00  0.00000000000E+00  0.14498258960E+04  0.14498258960E+04  0.00000000000E+00 0. -1.
         -1   -1    0    0    0  501 -0.00000000000E+00 -0.00000000000E+00 -0.44053150449E+02  0.44053150449E+02  0.00000000000E+00 0.  1.
         25    2    1    2    0    0  0.20478351559E+03 -0.99181026069E+02  0.66415952936E+03  0.71311193855E+03  0.12509033645E+03 0.  0.
          5    1    3    3  502    0 -0.12497578039E+02 -0.20422998677E+02  0.11041046274E+03  0.11305410658E+03  0.41800000000E+01 0.  1.
         -5    1    3    3    0  502  0.21728109363E+03 -0.78758027392E+02  0.55374906662E+03  0.60005783197E+03  0.41800000000E+01 0.  1.
        -11    1    1    2    0    0 -0.13957830323E+03  0.26652208041E+02  0.51072362825E+03  0.53012363405E+03  0.00000000000E+00 0. -1.
         11    1    1    2    0    0 -0.65205212361E+02  0.72528818028E+02  0.23088958794E+03  0.25064347385E+03  0.00000000000E+00 0.  1.
</event>
<event>
 7    1  0.2855090E-009  0.1115311E+03  0.7561462E-02  0.1257761E+00
         -1   -1    0    0    0  501 -0.00000000000E+00  0.00000000000E+00  0.18559196288E+02  0.18559196288E+02  0.00000000000E+00 0.  1.
          1   -1    0    0  501    0  0.00000000000E+00 -0.00000000000E+00 -0.10196602416E+04  0.10196602416E+04  0.00000000000E+00 0. -1.
         25    2    1    2    0    0 -0.16728420325E+02 -0.43702824347E+02 -0.80377217925E+03  0.81479256666E+03  0.12508970237E+03 0.  0.
          5    1    3    3  502    0  0.42247947345E+02  0.10163515782E+02 -0.15242464024E+03  0.15855260786E+03  0.41800000000E+01 0. -1.
         -5    1    3    3    0  502 -0.58976367670E+02 -0.53866340128E+02 -0.65134753901E+03  0.65623995880E+03  0.41800000000E+01 0. -1.
        -11    1    1    2    0    0  0.49387895914E+02  0.63281509418E+01 -0.63520722764E+02  0.80709924902E+02  0.00000000000E+00 0.  1.
         11    1    1    2    0    0 -0.32659475589E+02  0.37374673405E+02 -0.13380814334E+03  0.14271694637E+03  0.00000000000E+00 0. -1.
</event>
<event>
 7    1  0.2855090E-009  0.1265872E+03  0.7561462E-02  0.1232609E+00
          2   -1    0    0  501    0  0.00000000000E+00  0.00000000000E+00  0.69347980499E+03  0.69347980499E+03  0.00000000000E+00 0. -1.
         -2   -1    0    0    0  501 -0.00000000000E+00 -0.00000000000E+00 -0.32941195354E+02  0.32941195354E+02  0.00000000000E+00 0.  1.
         25    2    1    2    0    0 -0.68334896901E+02 -0.50510716926E+02  0.49685120803E+03  0.51935720593E+03  0.12509913579E+03 0.  0.
          5    1    3    3  502    0 -0.85664836046E+02 -0.68171162550E+02  0.27391231495E+03  0.29501050866E+03  0.41800000000E+01 0. -1.
         -5    1    3    3    0  502  0.17329939145E+02  0.17660445625E+02  0.22293889308E+03  0.22434669728E+03  0.41800000000E+01 0. -1.
        -11    1    1    2    0    0  0.25342609378E+02  0.67648270544E+02  0.61456003924E+02  0.94843960145E+02  0.00000000000E+00 0.  1.
         11    1    1    2    0    0  0.42992287523E+02 -0.17137553618E+02  0.10223139768E+03  0.11221983426E+03  0.00000000000E+00 0. -1.
</event>
<event>
 7    1  0.2855090E-009  0.1829340E+03  0.7561462E-02  0.1164993E+00
         -2   -1    0    0    0  501 -0.00000000000E+00  0.00000000000E+00  0.17199691613E+03  0.17199691613E+03  0.00000000000E+00 0.  1.
          2   -1    0    0  501    0  0.00000000000E+00 -0.00000000000E+00 -0.23532502707E+03  0.23532502707E+03  0.00000000000E+00 0. -1.
         25    2    1    2    0    0  0.92090507855E+02 -0.13442397585E+03  0.11534733770E+02  0.20574408832E+03  0.12508842022E+03 0.  0.
          5    1    3    3  502    0  0.67216008496E+01  0.21346638986E+02 -0.13254641212E+02  0.26344199127E+02  0.41800000000E+01 0.  1.
         -5    1    3    3    0  502  0.85368907005E+02 -0.15577061484E+03  0.24789374982E+02  0.17939988919E+03  0.41800000000E+01 0.  1.
        -11    1    1    2    0    0 -0.31728211320E+02  0.71516840361E+02  0.11241752657E+02  0.79042487636E+02  0.00000000000E+00 0.  1.
         11    1    1    2    0    0 -0.60362296535E+02  0.62907135489E+02 -0.86104597370E+02  0.12253536725E+03  0.00000000000E+00 0. -1.
</event>
<event>
 7    1  0.2855090E-009  0.7818185E+02  0.7561462E-02  0.1334292E+00
         -2   -1    0    0    0  501 -0.00000000000E+00  0.00000000000E+00  0.23152094271E+02  0.23152094271E+02  0.00000000000E+00 0.  1.
          2   -1    0    0  501    0  0.00000000000E+00 -0.00000000000E+00 -0.80610746136E+03  0.80610746136E+03  0.00000000000E+00 0. -1.
         25    2    1    2    0    0  0.29578759023E+02 -0.44860523532E+02 -0.61659070126E+03  0.63143993552E+03  0.12507969356E+03 0.  0.
          5    1    3    3  502    0  0.17373622139E+02 -0.17372529599E+02 -0.15009822641E+02  0.29093207224E+02  0.41800000000E+01 0. -1.
         -5    1    3    3    0  502  0.12205136884E+02 -0.27487993933E+02 -0.60158087862E+03  0.60234672830E+03  0.41800000000E+01 0. -1.
        -11    1    1    2    0    0  0.27675674983E+02  0.32162723514E+02 -0.10343415107E+03  0.11179895964E+03  0.00000000000E+00 0. -1.
         11    1    1    2    0    0 -0.57254434006E+02  0.12697800018E+02 -0.62930514764E+02  0.86020660466E+02  0.00000000000E+00 0.  1.
</event>
<event>
 7    1  0.2855090E-009  0.9444553E+02  0.7561462E-02  0.1292430E+00
         -1   -1    0    0    0  501 -0.00000000000E+00  0.00000000000E+00  0.82665012390E+03  0.82665012390E+03  0.00000000000E+00 0.  1.
          1   -1    0    0  501    0  0.00000000000E+00 -0.00000000000E+00 -0.25799241428E+02  0.25799241428E+02  0.00000000000E+00 0. -1.
         25    2    1    2    0    0 -0.23871259466E+02 -0.44604907207E+02  0.65865970888E+03  0.67233985868E+03  0.12509531839E+03 0.  0.
          5    1    3    3  502    0  0.28394596084E+02 -0.33048692605E+02  0.79976129404E+02  0.91170844266E+02  0.41800000000E+01 0. -1.
         -5    1    3    3    0  502 -0.52265855549E+02 -0.11556214602E+02  0.57868357948E+03  0.58116901441E+03  0.41800000000E+01 0. -1.
        -11    1    1    2    0    0 -0.25514741528E+01 -0.20764599713E+02  0.89966649717E+02  0.92367075752E+02  0.00000000000E+00 0.  1.
         11    1    1    2    0    0  0.26422733618E+02  0.65369506920E+02  0.52224523875E+02  0.87742430903E+02  0.00000000000E+00 0. -1.
</event>
<event>
 7    1  0.2855090E-009  0.1360453E+03  0.7561462E-02  0.1218752E+00
         -1   -1    0    0    0  501 -0.00000000000E+00  0.00000000000E+00  0.50854495109E+02  0.50854495109E+02  0.00000000000E+00 0. -1.
          1   -1    0    0  501    0  0.00000000000E+00 -0.00000000000E+00 -0.46799985349E+03  0.46799985349E+03  0.00000000000E+00 0.  1.
         25    2    1    2    0    0  0.45030988315E+02  0.68268233864E+02 -0.34638035188E+03  0.37724816891E+03  0.12509392916E+03 0.  0.
          5    1    3    3  502    0 -0.36859843235E+02 -0.74592936651E+01 -0.87763519366E+02  0.95572992194E+02  0.41800000000E+01 0.  1.
         -5    1    3    3    0  502  0.81890831550E+02  0.75727527529E+02 -0.25861683251E+03  0.28167517671E+03  0.41800000000E+01 0.  1.
        -11    1    1    2    0    0 -0.40218324791E+02 -0.90951752702E+02 -0.56352244614E+02  0.11430358893E+03  0.00000000000E+00 0.  1.
         11    1    1    2    0    0 -0.48126635241E+01  0.22683518838E+02 -0.14412761882E+02  0.27302590759E+02  0.00000000000E+00 0. -1.
</event>
<event>
 7    1  0.2855090E-009  0.1053320E+03  0.7561462E-02  0.1269467E+00
          2   -1    0    0  501    0  0.00000000000E+00  0.00000000000E+00  0.47639548240E+03  0.47639548240E+03  0.00000000000E+00 0. -1.
         -2   -1    0    0    0  501 -0.00000000000E+00 -0.00000000000E+00 -0.38584079687E+02  0.38584079687E+02  0.00000000000E+00 0.  1.
         25    2    1    2    0    0  0.22388229440E+02 -0.14471742607E+02  0.38850388885E+03  0.40901470610E+03  0.12508834478E+03 0.  0.
          5    1    3    3  502    0  0.71523356231E+02 -0.26424253114E+02  0.25521730482E+03  0.26639665298E+03  0.41800000000E+01 0. -1.
         -5    1    3    3    0  502 -0.49135126792E+02  0.11952510506E+02  0.13328658403E+03  0.14261805312E+03  0.41800000000E+01 0. -1.
        -11    1    1    2    0    0  0.29876218758E+02  0.27878289237E+01 -0.41550501327E+01  0.30292323764E+02  0.00000000000E+00 0.  1.
         11    1    1    2    0    0 -0.52264448198E+02  0.11683913684E+02  0.53462563990E+02  0.75672532222E+02  0.00000000000E+00 0. -1.
</event>
<event>
 7    1  0.2855090E-009  0.1465865E+03  0.7561462E-02  0.1204731E+00
         -1   -1    0    0    0  501 -0.00000000000E+00  0.00000000000E+00  0.62571403203E+02  0.62571403203E+02  0.00000000000E+00 0.  1.
          1   -1    0    0  501    0  0.00000000000E+00 -0.00000000000E+00 -0.41649644195E+03  0.41649644195E+03  0.00000000000E+00 0. -1.
         25    2    1    2    0    0 -0.39581395536E+02 -0.11259876457E+03 -0.18816335932E+03  0.25553555887E+03  0.12509118034E+03 0.  0.
          5    1    3    3  502    0  0.10341568095E+02 -0.11980501160E+03 -0.14913745635E+03  0.19162369927E+03  0.41800000000E+01 0.  1.
         -5    1    3    3    0  502 -0.49922963630E+02  0.72062470338E+01 -0.39025902969E+02  0.63911859592E+02  0.41800000000E+01 0.  1.
        -11    1    1    2    0    0  0.32625373963E+02  0.53024955480E+02 -0.14864921831E+03  0.16116032711E+03  0.00000000000E+00 0. -1.
         11    1    1    2    0    0  0.69560215727E+01  0.59573809089E+02 -0.17112461106E+02  0.62371959169E+02  0.00000000000E+00 0.  1.
</event>
<event>
 7    1  0.2855090E-009  0.1383026E+03  0.7561462E-02  0.1215631E+00
          2   -1    0    0  501    0  0.00000000000E+00  0.00000000000E+00  0.11535830810E+04  0.11535830810E+04  0.00000000000E+00 0. -1.
         -2   -1    0    0    0  501 -0.00000000000E+00 -0.00000000000E+00 -0.22643632409E+02  0.22643632409E+02  0.00000000000E+00 0.  1.
         25    2    1    2    0    0  0.10460014743E+03 -0.49632370323E+02  0.49583428327E+03  0.52431330663E+03  0.12509294154E+03 0.  0.
          5    1    3    3  502    0  0.11342241651E+02  0.12503568759E+02  0.15414591070E+01  0.17459500954E+02  0.41800000000E+01 0. -1.
         -5    1    3    3    0  502  0.93257905778E+02 -0.62135939082E+02  0.49429282416E+03  0.50685380568E+03  0.41800000000E+01 0. -1.
        -11    1    1    2    0    0 -0.16975242928E+02  0.56678641427E+02  0.25258483944E+03  0.25942191192E+03  0.00000000000E+00 0.  1.
         11    1    1    2    0    0 -0.87624904500E+02 -0.70462711035E+01  0.38252032592E+03  0.39249149490E+03  0.00000000000E+00 0. -1.
</event>
<event>
 7    1  0.2855090E-009  0.8985558E+02  0.7561462E-02  0.1303202E+00
          1   -1    0    0  501    0  0.00000000000E+00  0.00000000000E+00  0.68459243368E+03  0.68459243368E+03  0.00000000000E+00 0. -1.
         -1   -1    0    0    0  501 -0.00000000000E+00 -0.00000000000E+00 -0.22678184797E+02  0.22678184797E+02  0.00000000000E+00 0.  1.
         25    2    1    2    0    0 -0.15095030685E+02 -0.42927335079E+02  0.48691078680E+03  0.50477550112E+03  0.12508227766E+03 0.  0.
          5    1    3    3  502    0 -0.68036808643E+02 -0.17326061173E+02  0.32343737070E+03  0.33099607987E+03  0.41800000000E+01 0.  1.
         -5    1    3    3    0  502  0.52941777959E+02 -0.25601273907E+02  0.16347341610E+03  0.17377942125E+03  0.41800000000E+01 0.  1.
        -11    1    1    2    0    0  0.19511758176E+02  0.23716554921E+02  0.17963909799E+03  0.18224540930E+03  0.00000000000E+00 0. -1.
         11    1    1    2    0    0 -0.44167274908E+01  0.19210780158E+02 -0.46356359055E+01  0.20249708054E+02  0.00000000000E+00 0.  1.
</event>
<event>
 7    1  0.2855090E-009  0.2087173E+03  0.7561462E-02  0.1142586E+00
          1   -1    0    0  501    0  0.00000000000E+00  0.00000000000E+00  0.15233195818E+03  0.15233195818E+03  0.00000000000E+00 0. -1.
         -1   -1    0    0    0  501 -0.00000000000E+00 -0.00000000000E+00 -0.85244407456E+03  0.85244407456E+03  0.00000000000E+00 0.  1.
         25    2    1    2    0    0  0.15305018871E+03 -0.12291796615E+03 -0.74686429534E+03  0.78229537398E+03  0.12508632953E+03 0.  0.
          5    1    3    3  502    0  0.44121941411E+02 -0.10428473519E+02 -0.38893353310E+03  0.39158940785E+03  0.41800000000E+01 0.  1.
         -5    1    3    3    0  502  0.10892824729E+03 -0.11248949263E+03 -0.35793076224E+03  0.39070596613E+03  0.41800000000E+01 0.  1.
        -11    1    1    2    0    0 -0.62925260019E+01  0.51800736727E+02 -0.21483923057E+01  0.52225738851E+02  0.00000000000E+00 0.  1.
         11    1    1    2    0    0 -0.14675766270E+03  0.71117229422E+02  0.48900571258E+02  0.17025491991E+03  0.00000000000E+00 0. -1.
</event>
<event>
 7    1  0.2855090E-009  0.1229026E+03  0.7561462E-02  0.1238384E+00
         -2   -1    0    0    0  501 -0.00000000000E+00  0.00000000000E+00  0.32765619592E+02  0.32765619592E+02  0.00000000000E+00 0.  1.
          2   -1    0    0  501    0  0.00000000000E+00 -0.00000000000E+00 -0.72535174881E+03  0.72535174881E+03  0.00000000000E+00 0. -1.
         25    2    1    2    0    0 -0.39874766317E+02 -0.10143547655E+03 -0.33194786942E+03  0.37110126251E+03  0.12509039183E+03 0.  0.
          5    1    3    3  502    0  0.22096816988E+01 -0.61993100907E+02 -0.29720322930E+03  0.30363672235E+03  0.41800000000E+01 0. -1.
         -5    1    3    3    0  502 -0.42084448016E+02 -0.39442375647E+02 -0.34744640123E+02  0.67464540158E+02  0.41800000000E+01 0. -1.
        -11    1    1    2    0    0  0.56040690515E+02  0.64258434185E+02 -0.31328387525E+03  0.32467905977E+03  0.00000000000E+00 0. -1.
         11    1    1    2    0    0 -0.16165924198E+02  0.37177042370E+02 -0.47354384541E+02  0.62337046126E+02  0.00000000000E+00 0.  1.
</event>
<event>
 7    1  0.2855090E-009  0.8247381E+02  0.7561462E-02  0.1322174E+00
          4   -1    0    0  501    0  0.00000000000E+00  0.00000000000E+00  0.86261132437E+03  0.86261132437E+03  0.00000000000E+00 0. -1.
         -4   -1    0    0    0  501 -0.00000000000E+00 -0.00000000000E+00 -0.21864465498E+02  0.21864465498E+02  0.00000000000E+00 0.  1.
         25    2    1    2    0    0  0.11417384106E+02 -0.54713562704E+02  0.66631649848E+03  0.68025821874E+03  0.12509851084E+03 0.  0.
          5    1    3    3  502    0  0.21063168357E+02 -0.46704801706E+02  0.88912300648E+02  0.10270280021E+03  0.41800000000E+01 0. -1.
         -5    1    3    3    0  502 -0.96457842507E+01 -0.80087609981E+01  0.57740419783E+03  0.57755541853E+03  0.41800000000E+01 0. -1.
        -11    1    1    2    0    0  0.36107023128E+02  0.18452958479E+02  0.10523480796E+03  0.11277674230E+03  0.00000000000E+00 0. -1.
         11    1    1    2    0    0 -0.47524407234E+02  0.36260604225E+02  0.69195552437E+02  0.91440828839E+02  0.00000000000E+00 0.  1.
</event>
<event>
 7    1  0.2855090E-009  0.1486341E+03  0.7561462E-02  0.1202162E+00
         -3   -1    0    0    0  501 -0.00000000000E+00  0.00000000000E+00  0.10144831148E+03  0.10144831148E+03  0.00000000000E+00 0.  1.
          3   -1    0    0  501    0  0.00000000000E+00 -0.00000000000E+00 -0.39516211448E+03  0.39516211448E+03  0.00000000000E+00 0. -1.
         25    2    1    2    0    0 -0.11731420407E+03 -0.78313946428E+02 -0.26573559665E+03  0.32580910082E+03  0.12506184937E+03 0.  0.
          5    1    3    3  502    0 -0.98679570251E+02 -0.86124078110E+02 -0.27388847653E+03  0.30362375465E+03  0.41800000000E+01 0.  1.
         -5    1    3    3    0  502 -0.18634633821E+02  0.78101316826E+01  0.81528798725E+01  0.22185346171E+02  0.41800000000E+01 0.  1.
        -11    1    1    2    0    0  0.16530363371E+02  0.29021106770E+02 -0.46334419896E+02  0.57117037900E+02  0.00000000000E+00 0. -1.
         11    1    1    2    0    0  0.10078384070E+03  0.49292839657E+02  0.18356213551E+02  0.11368428723E+03  0.00000000000E+00 0.  1.
</event>
<event>
 7    1  0.2855090E-009  0.1054585E+03  0.7561462E-02  0.1269219E+00
         -4   -1    0    0    0  501 -0.00000000000E+00  0.00000000000E+00  0.35782681136E+02  0.35782681136E+02  0.00000000000E+00 0.  1.
          4   -1    0    0  501    0  0.00000000000E+00 -0.00000000000E+00 -0.49265438731E+03  0.49265438731E+03  0.00000000000E+00 0. -1.
         25    2    1    2    0    0  0.70042241717E+02  0.51477968683E+01 -0.28791984283E+03  0.32167925030E+03  0.12508912320E+03 0.  0.
          5    1    3    3  502    0 -0.66450992018E+01  0.21458404067E+02  0.40754067656E+00  0.22852985317E+02  0.41800000000E+01 0.  1.
         -5    1    3    3    0  502  0.76687340919E+02 -0.16310607199E+02 -0.28832738351E+03  0.29882626499E+03  0.41800000000E+01 0.  1.
        -11    1    1    2    0    0 -0.58827317362E+02  0.34603889840E+02 -0.14168347461E+03  0.15726502929E+03  0.00000000000E+00 0. -1.
         11    1    1    2    0    0 -0.11214924355E+02 -0.39751686708E+02 -0.27268388733E+02  0.49492788854E+02  0.00000000000E+00 0.  1.
</event>
<event>
 7    1  0.2855090E-009  0.2908764E+03  0.7561462E-02  0.1089892E+00
         -2   -1    0    0    0  501 -0.00000000000E+00  0.00000000000E+00  0.77178564815E+02  0.77178564815E+02  0.00000000000E+00 0.  1.
          2   -1    0    0  501    0  0.00000000000E+00 -0.00000000000E+00 -0.12504759347E+04  0.12504759347E+04  0.00000000000E+00 0. -1.
         25    2    1    2    0    0 -0.27334000508E+03 -0.26757031315E+02 -0.39367226400E+03  0.49604046851E+03  0.12509035876E+03 0.  0.
          5    1    3    3  502    0 -0.26546709227E+03 -0.51320094903E+02 -0.38043291123E+03  0.46674747087E+03  0.41800000000E+01 0.  1.
         -5    1    3    3    0  502 -0.78729128157E+01  0.24563063587E+02 -0.13239352771E+02  0.29292997641E+02  0.41800000000E+01 0.  1.
        -11    1    1    2    0    0  0.12340020742E+03 -0.26273931679E+02 -0.41644116118E+03  0.43513350986E+03  0.00000000000E+00 0.  1.
         11    1    1    2    0    0  0.14993979766E+03  0.53030962995E+02 -0.36318394476E+03  0.39648052120E+03  0.00000000000E+00 0. -1.
</event>
<event>
 7    1  0.2855090E-009  0.5151153E+02  0.7561462E-02  0.1437355E+00
         -1   -1    0    0    0  501 -0.00000000000E+00  0.00000000000E+00  0.12793897990E+03  0.12793897990E+03  0.00000000000E+00 0.  1.
          1   -1    0    0  501    0  0.00000000000E+00 -0.00000000000E+00 -0.16625079486E+03  0.16625079486E+03  0.00000000000E+00 0. -1.
         25    2    1    2    0    0 -0.12701231622E+01 -0.22565146056E+01  0.76532526073E+02  0.14666646709E+03  0.12508844851E+03 0.  0.
          5    1    3    3  502    0 -0.46210821986E+01  0.77520320800E+01  0.11045139682E+03  0.11089829512E+03  0.41800000000E+01 0. -1.
         -5    1    3    3    0  502  0.33509590364E+01 -0.10008546686E+02 -0.33918870746E+02  0.35768171968E+02  0.41800000000E+01 0. -1.
        -11    1    1    2    0    0  0.23492941739E+02  0.34999318835E+02 -0.93498082474E+02  0.10256101626E+03  0.00000000000E+00 0. -1.
         11    1    1    2    0    0 -0.22222818576E+02 -0.32742804230E+02 -0.21346258550E+02  0.44962291405E+02  0.00000000000E+00 0.  1.
</event>
<event>
 7    1  0.2855090E-009  0.9366699E+02  0.7561462E-02  0.1294207E+00
          1   -1    0    0  501    0  0.00000000000E+00  0.00000000000E+00  0.76859076002E+03  0.76859076002E+03  0.00000000000E+00 0. -1.
         -1   -1    0    0    0  501 -0.00000000000E+00 -0.00000000000E+00 -0.19593804223E+02  0.19593804223E+02  0.00000000000E+00 0.  1.
         25    2    1    2    0    0  0.29122257588E+02 -0.23642692711E+02  0.64670287959E+03  0.65975659752E+03  0.12508825165E+03 0.  0.
          5    1    3    3  502    0  0.45971017676E+02  0.40818473993E+02  0.37128834829E+03  0.37636683204E+03  0.41800000000E+01 0. -1.
         -5    1    3    3    0  502 -0.16848760088E+02 -0.64461166704E+02  0.27541453129E+03  0.28338976548E+03  0.41800000000E+01 0. -1.
        -11    1    1    2    0    0  0.79340169122E-01  0.29226107248E+02  0.91056123570E+01  0.30611824776E+02  0.00000000000E+00 0.  1.
         11    1    1    2    0    0 -0.29201597757E+02 -0.55834145368E+01  0.93188463849E+02  0.97816141940E+02  0.00000000000E+00 0. -1.
</event>
<event>
 7    1  0.2855090E-009  0.9644287E+02  0.7561462E-02  0.1287959E+00
          1   -1    0    0  501    0  0.00000000000E+00  0.00000000000E+00  0.89178752752E+03  0.89178752752E+03  0.00000000000E+00 0. -1.
         -1   -1    0    0    0  501 -0.00000000000E+00 -0.00000000000E+00 -0.18372299190E+02  0.18372299190E+02  0.00000000000E+00 0.  1.
         25    2    1    2    0    0 -0.24953485985E+02 -0.13050886008E+02  0.76075513963E+03  0.77148507758E+03  0.12509132813E+03 0.  0.
          5    1    3    3  502    0  0.38710431306E+02  0.24546096210E+02  0.43449148550E+03  0.43692256945E+03  0.41800000000E+01 0. -1.
         -5    1    3    3    0  502 -0.63663917291E+02 -0.37596982218E+02  0.32626365413E+03  0.33456250813E+03  0.41800000000E+01 0. -1.
        -11    1    1    2    0    0  0.11040573987E+02  0.40528236733E+02  0.93238410239E+02  0.10226354869E+03  0.00000000000E+00 0. -1.
         11    1    1    2    0    0  0.13912911998E+02 -0.27477350725E+02  0.19421678467E+02  0.36411200442E+02  0.00000000000E+00 0.  1.
</event>
<event>
 7    1  0.2855090E-009  0.7512798E+02  0.7561462E-02  0.1343475E+00
          2   -1    0    0  501    0  0.00000000000E+00  0.00000000000E+00  0.25988460412E+04  0.25988460412E+04  0.00000000000E+00 0. -1.
         -2   -1    0    0    0  501 -0.00000000000E+00 -0.00000000000E+00 -0.89467873215E+01  0.89467873215E+01  0.00000000000E+00 0.  1.
         25    2    1    2    0    0  0.10701180847E+02 -0.37049590547E+02  0.22074939845E+04  0.22113715336E+04  0.12508869171E+03 0.  0.
          5    1    3    3  502    0 -0.89265466509E+01 -0.96172448190E+01  0.24438828112E+02  0.28051797669E+02  0.41800000000E+01 0.  1.
         -5    1    3    3    0  502  0.19627727498E+02 -0.27432345728E+02  0.21830551563E+04  0.21833197359E+04  0.41800000000E+01 0.  1.
        -11    1    1    2    0    0  0.28978241653E+02 -0.18388834645E+02  0.16679471238E+03  0.17028905956E+03  0.00000000000E+00 0.  1.
         11    1    1    2    0    0 -0.39679422500E+02  0.55438425192E+02  0.21561055701E+03  0.22613223532E+03  0.00000000000E+00 0. -1.
</event>
<event>
 7    1  0.2855090E-009  0.7005088E+02  0.7561462E-02  0.1359920E+00
          1   -1    0    0  501    0  0.00000000000E+00  0.00000000000E+00  0.18664619714E+03  0.18664619714E+03  0.00000000000E+00 0. -1.
         -1   -1    0    0    0  501 -0.00000000000E+00 -0.00000000000E+00 -0.96699064057E+02  0.96699064057E+02  0.00000000000E+00 0.  1.
         25    2    1    2    0    0  0.44706784756E+02 -0.90410405485E+01 -0.18867492794E+02  0.13447874859E+03  0.12509242392E+03 0.  0.
          5    1    3    3  502    0  0.97493209009E+01  0.17342825450E+02  0.49311066628E+02  0.53337384119E+02  0.41800000000E+01 0.  1.
         -5    1    3    3    0  502  0.34957463855E+02 -0.26383865999E+02 -0.68178559422E+02  0.81141364476E+02  0.41800000000E+01 0.  1.
        -11    1    1    2    0    0 -0.18806709544E+02 -0.26070470791E+02  0.56067676871E+00  0.32150834042E+02  0.00000000000E+00 0.  1.
         11    1    1    2    0    0 -0.25900075212E+02  0.35111511340E+02  0.10825394911E+03  0.11671567856E+03  0.00000000000E+00 0. -1.
</event>
<event>
 7    1  0.2855090E-009  0.8853353E+02  0.7561462E-02  0.1306442E+00
         -1   -1    0    0    0  501 -0.00000000000E+00  0.00000000000E+00  0.48816118436E+02  0.48816118436E+02  0.00000000000E+00 0.  1.
          1   -1    0    0  501    0  0.00000000000E+00 -0.00000000000E+00 -0.29026734299E+03  0.29026734299E+03  0.00000000000E+00 0. -1.
         25    2    1    2    0    0  0.16782586100E+02  0.30665282454E+01 -0.68848990710E+02  0.14379499792E+03  0.12508300889E+03 0.  0.
          5    1    3    3  502    0  0.54303742074E+02 -0.15621715602E+02  0.69416521217E+01  0.57084090041E+02  0.41800000000E+01 0. -1.
         -5    1    3    3    0  502 -0.37521155974E+02  0.18688243847E+02 -0.75790642831E+02  0.86710907875E+02  0.41800000000E+01 0. -1.
        -11    1    1    2    0    0 -0.11323068634E+02 -0.39679413303E+02 -0.39453860317E+02  0.57090058830E+02  0.00000000000E+00 0. -1.
         11    1    1    2    0    0 -0.54595174661E+01  0.36612885058E+02 -0.13314837353E+03  0.13819840468E+03  0.00000000000E+00 0.  1.
</event>
<event>
 7    1  0.2855090E-009  0.2345787E+03  0.7561462E-02  0.1123458E+00
          2   -1    0    0  501    0  0.00000000000E+00  0.00000000000E+00  0.16038359195E+04  0.16038359195E+04  0.00000000000E+00 0. -1.
         -2   -1    0    0    0  501 -0.00000000000E+00 -0.00000000000E+00 -0.40062999876E+02  0.40062999876E+02  0.00000000000E+00 0.  1.
         25    2    1    2    0    0  0.21298182444E+03  0.41835450728E+02  0.10422797721E+04  0.10719636437E+04  0.12508983850E+03 0.  0.
          5    1    3    3  502    0  0.20990199924E+03  0.18796721201E+01  0.85526602089E+03  0.88065874284E+03  0.41800000000E+01 0. -1.
         -5    1    3    3    0  502  0.30798252021E+01  0.39955778608E+02  0.18701375122E+03  0.19130490091E+03  0.41800000000E+01 0. -1.
        -11    1    1    2    0    0 -0.13591210869E+03 -0.12637186385E+02  0.41748388559E+03  0.43923182318E+03  0.00000000000E+00 0. -1.
         11    1    1    2    0    0 -0.77069715754E+02 -0.29198264343E+02  0.10400926197E+03  0.13270345249E+03  0.00000000000E+00 0.  1.
</event>
<event>
 7    1  0.2855090E-009  0.1233959E+03  0.7561462E-02  0.1237598E+00
         -4   -1    0    0    0  501 -0.00000000000E+00  0.00000000000E+00  0.16550022333E+02  0.16550022333E+02  0.00000000000E+00 0.  1.
          4   -1    0    0  501    0  0.00000000000E+00 -0.00000000000E+00 -0.17991815691E+04  0.17991815691E+04  0.00000000000E+00 0. -1.
         25    2    1    2    0    0  0.62534748923E+02 -0.42698392819E+02 -0.15232813428E+04  0.15302838585E+04  0.12509552642E+03 0.  0.
          5    1    3    3  502    0 -0.26859860612E+02  0.24943996464E+01 -0.75440941750E+03  0.75490311680E+03  0.41800000000E+01 0. -1.
         -5    1    3    3    0  502  0.89394609535E+02 -0.45192792465E+02 -0.76887192529E+03  0.77538074170E+03  0.41800000000E+01 0. -1.
        -11    1    1    2    0    0 -0.51434842811E+02 -0.20280646694E+02 -0.12055360723E+03  0.13262737237E+03  0.00000000000E+00 0.  1.
         11    1    1    2    0    0 -0.11099906112E+02  0.62979039513E+02 -0.13879659675E+03  0.15282036056E+03  0.00000000000E+00 0. -1.
</event>
<event>
 7    1  0.2855090E-009  0.1116704E+03  0.7561462E-02  0.1257507E+00
          2   -1    0    0  501    0  0.00000000000E+00  0.00000000000E+00  0.44452628177E+03  0.44452628177E+03  0.00000000000E+00 0.  1.
         -2   -1    0    0    0  501 -0.00000000000E+00 -0.00000000000E+00 -0.36996917278E+02  0.36996917278E+02  0.00000000000E+00 0. -1.
         25    2    1    2    0    0  0.68017997428E+02 -0.13537202607E+00  0.21990300349E+03  0.26197505053E+03  0.12508848809E+03 0.  0.
          5    1    3    3  502    0  0.10059169561E+03  0.11297138846E+01  0.11913296961E+03  0.15598109606E+03  0.41800000000E+01 0. -1.
         -5    1    3    3    0  502 -0.32573698181E+02 -0.12650859106E+01  0.10077003389E+03  0.10599395447E+03  0.41800000000E+01 0. -1.
        -11    1    1    2    0    0 -0.40063333610E+01 -0.21769421308E+02  0.12632940228E+03  0.12825395234E+03  0.00000000000E+00 0.  1.
         11    1    1    2    0    0 -0.64011664067E+02  0.21904793334E+02  0.61296958717E+02  0.91294196177E+02  0.00000000000E+00 0. -1.
</event>
<event>
 7    1  0.2855090E-009  0.9359770E+02  0.7561462E-02  0.1294366E+00
          2   -1    0    0  501    0  0.00000000000E+00  0.00000000000E+00  0.63216443730E+03  0.63216443730E+03  0.00000000000E+00 0.  1.
         -2   -1    0    0    0  501 -0.00000000000E+00 -0.00000000000E+00 -0.22789240032E+02  0.22789240032E+02  0.00000000000E+00 0. -1.
         25    2    1    2    0    0 -0.11680097068E+02  0.30828028108E+01  0.47587022094E+03  0.49218512481E+03  0.12509117299E+03 0.  0.
          5    1    3    3  502    0  0.36134956729E+01 -0.56460942961E+02  0.14649907992E+03  0.15709980346E+03  0.41800000000E+01 0. -1.
         -5    1    3    3    0  502 -0.15293592741E+02  0.59543745772E+02  0.32937114103E+03  0.33508532135E+03  0.41800000000E+01 0. -1.
        -11    1    1    2    0    0  0.21308463107E+02 -0.31956713676E+02  0.16385004307E+02  0.41758238889E+02  0.00000000000E+00 0. -1.
         11    1    1    2    0    0 -0.96283660382E+01  0.28873910865E+02  0.11711997202E+03  0.12101031364E+03  0.00000000000E+00 0.  1.
</event>
<event>
 7    1  0.2855090E-009  0.1311961E+03  0.7561462E-02  0.1225692E+00
          2   -1    0    0  501    0  0.00000000000E+00  0.00000000000E+00  0.56652403248E+03  0.56652403248E+03  0.00000000000E+00 0. -1.
         -2   -1    0    0    0  501 -0.00000000000E+00 -0.00000000000E+00 -0.38413251371E+02  0.38413251371E+02  0.00000000000E+00 0.  1.
         25    2    1    2    0    0  0.67854310597E+02 -0.39297870991E+02  0.15967868708E+03  0.21747063018E+03  0.12509061416E+03 0.  0.
          5    1    3    3  502    0 -0.32411134294E+02  0.73535299340E+01  0.19101689286E+02  0.38560380734E+02  0.41800000000E+01 0. -1.
         -5    1    3    3    0  502  0.10026544489E+03 -0.46651400925E+02  0.14057699779E+03  0.17891024944E+03  0.41800000000E+01 0. -1.
        -11    1    1    2    0    0 -0.75015899021E+02  0.60168268592E+02  0.32209953139E+03  0.33614835084E+03  0.00000000000E+00 0. -1.
         11    1    1    2    0    0  0.71615884247E+01 -0.20870397600E+02  0.46332562639E+02  0.51318302831E+02  0.00000000000E+00 0.  1.
</event>
<event>
 7    1  0.2855090E-009  0.1672426E+03  0.7561462E-02  0.1180754E+00
         -2   -1    0    0    0  501 -0.00000000000E+00  0.00000000000E+00  0.60437511226E+02  0.60437511226E+02  0.00000000000E+00 0.  1.
          2   -1    0    0  501    0  0.00000000000E+00 -0.00000000000E+00 -0.46555366624E+03  0.46555366624E+03  0.00000000000E+00 0. -1.
         25    2    1    2    0    0 -0.12743077069E+03 -0.14384799488E+02 -0.23300338087E+03  0.29390914636E+03  0.12508591865E+03 0.  0.
          5    1    3    3  502    0 -0.15058064303E+03  0.14064274857E+01 -0.19137402829E+03  0.24355286736E+03  0.41800000000E+01 0.  1.
         -5    1    3    3    0  502  0.23149872347E+02 -0.15791226973E+02 -0.41629352583E+02  0.50356279008E+02  0.41800000000E+01 0.  1.
        -11    1    1    2    0    0  0.12420277469E+03 -0.15752227560E+02 -0.14289731005E+03  0.18998448130E+03  0.00000000000E+00 0.  1.
         11    1    1    2    0    0  0.32279959923E+01  0.30137027047E+02 -0.29215464089E+02  0.42097549802E+02  0.00000000000E+00 0. -1.
</event>
<event>
 7    1  0.2855090E-009  0.1070216E+03  0.7561462E-02  0.1266187E+00
         -2   -1    0    0    0  501 -0.00000000000E+00  0.00000000000E+00  0.10426233868E+02  0.10426233868E+02  0.00000000000E+00 0.  1.
          2   -1    0    0  501    0  0.00000000000E+00 -0.00000000000E+00 -0.13253794195E+04  0.13253794195E+04  0.00000000000E+00 0. -1.
         25    2    1    2    0    0 -0.25595141486E+02 -0.40443099119E+01 -0.95516043425E+03  0.96366530703E+03  0.12509157088E+03 0.  0.
          5    1    3    3  502    0 -0.57560469973E+02  0.35923162798E+02 -0.36508713611E+03  0.37136204798E+03  0.41800000000E+01 0.  1.
         -5    1    3    3    0  502  0.31965328487E+02 -0.39967472710E+02 -0.59007329814E+03  0.59230325905E+03  0.41800000000E+01 0.  1.
        -11    1    1    2    0    0  0.28859660147E+02 -0.40677350953E+02 -0.20533118419E+03  0.21130173229E+03  0.00000000000E+00 0.  1.
         11    1    1    2    0    0 -0.32645186609E+01  0.44721660865E+02 -0.15446156723E+03  0.16083861410E+03  0.00000000000E+00 0. -1.
</event>
<event>
 7    1  0.2855090E-009  0.1098177E+03  0.7561462E-02  0.1260908E+00
          2   -1    0    0  501    0  0.00000000000E+00  0.00000000000E+00  0.82748649642E+03  0.82748649642E+03  0.00000000000E+00 0. -1.
         -2   -1    0    0    0  501 -0.00000000000E+00 -0.00000000000E+00 -0.19584452991E+02  0.19584452991E+02  0.00000000000E+00 0.  1.
         25    2    1    2    0    0  0.23836186597E+02  0.14366715977E+02  0.64621706942E+03  0.65880189746E+03  0.12509545542E+03 0.  0.
          5    1    3    3  502    0 -0.22942200886E+02  0.58813487743E+02  0.30014636699E+03  0.30674204951E+03  0.41800000000E+01 0. -1.
         -5    1    3    3    0  502  0.46778387483E+02 -0.44446771766E+02  0.34607070243E+03  0.35205984795E+03  0.41800000000E+01 0. -1.
        -11    1    1    2    0    0  0.33302862111E+02 -0.76732628028E+01  0.33928850429E+02  0.48157309708E+02  0.00000000000E+00 0.  1.
         11    1    1    2    0    0 -0.57139048708E+02 -0.66934531742E+01  0.12775612359E+03  0.14011174225E+03  0.00000000000E+00 0. -1.
</event>
<event>
 7    1  0.2855090E-009  0.1189023E+03  0.7561462E-02  0.1244919E+00
          1   -1    0    0  501    0  0.00000000000E+00  0.00000000000E+00  0.13594745618E+04  0.13594745618E+04  0.00000000000E+00 0. -1.
         -1   -1    0    0    0  501 -0.00000000000E+00 -0.00000000000E+00 -0.21155188490E+02  0.21155188490E+02  0.00000000000E+00 0.  1.
         25    2    1    2    0    0 -0.67206274177E+02 -0.19018483667E+02  0.11506439483E+04  0.11595290031E+04  0.12509047628E+03 0.  0.
          5    1    3    3  502    0  0.31604376843E+02 -0.77665220371E+01  0.13134030301E+03  0.13537689276E+03  0.41800000000E+01 0. -1.
         -5    1    3    3    0  502 -0.98810651020E+02 -0.11251961630E+02  0.10193036453E+04  0.10241521103E+04  0.41800000000E+01 0. -1.
        -11    1    1    2    0    0  0.23225581391E+02  0.47627449489E+02  0.46527094334E+02  0.70516466750E+02  0.00000000000E+00 0. -1.
         11    1    1    2    0    0  0.43980692786E+02 -0.28608965822E+02  0.14114833068E+03  0.15058428044E+03  0.00000000000E+00 0.  1.
</event>
<event>
 7    1  0.2855090E-009  0.8143333E+02  0.7561462E-02  0.1325032E+00
         -1   -1    0    0    0  501 -0.00000000000E+00  0.00000000000E+00  0.27847939604E+03  0.27847939604E+03  0.00000000000E+00 0.  1.
          1   -1    0    0  501    0  0.00000000000E+00 -0.00000000000E+00 -0.56895126381E+02  0.56895126381E+02  0.00000000000E+00 0. -1.
         25    2    1    2    0    0  0.33059687802E+02 -0.11830876424E+02  0.19535558892E+03  0.23461283645E+03  0.12508582779E+03 0.  0.
          5    1    3    3  502    0 -0.34412901787E+02 -0.98123793644E+01  0.14731113600E+03  0.15165280673E+03  0.41800000000E+01 0. -1.
         -5    1    3    3    0  502  0.67472589588E+02 -0.20184970597E+01  0.48044452915E+02  0.82960029725E+02  0.41800000000E+01 0. -1.
        -11    1    1    2    0    0 -0.12613756763E+02 -0.18643105030E+02 -0.27599313918E+02  0.35614524475E+02  0.00000000000E+00 0. -1.
         11    1    1    2    0    0 -0.20445931039E+02  0.30473981454E+02  0.53827994659E+02  0.65147161494E+02  0.00000000000E+00 0.  1.
</event>
<event>
 7    1  0.2855090E-009  0.6410323E+02  0.7561462E-02  0.1381377E+00
          2   -1    0    0  501    0  0.00000000000E+00  0.00000000000E+00  0.10274631078E+03  0.10274631078E+03  0.00000000000E+00 0. -1.
         -2   -1    0    0    0  501 -0.00000000000E+00 -0.00000000000E+00 -0.12360488976E+03  0.12360488976E+03  0.00000000000E+00 0.  1.
         25    2    1    2    0    0  0.21329501680E+02  0.15051583566E+02 -0.17204179455E+02  0.12892674990E+03  0.12507847632E+03 0.  0.
          5    1    3    3  502    0  0.19317004840E+02  0.56489292486E+02 -0.48304633930E+02  0.76909017031E+02  0.41800000000E+01 0.  1.
         -5    1    3    3    0  502  0.20124968394E+01 -0.41437708921E+02  0.31100454475E+02  0.52017732867E+02  0.41800000000E+01 0.  1.
        -11    1    1    2    0    0 -0.11184493561E+02 -0.45888123487E+01 -0.48648965988E+02  0.50128554604E+02  0.00000000000E+00 0.  1.
         11    1    1    2    0    0 -0.10145008119E+02 -0.10462771217E+02  0.44994566464E+02  0.47295896043E+02  0.00000000000E+00 0. -1.
</event>
<event>
 7    1  0.2855090E-009  0.1777899E+03  0.7561462E-02  0.1169959E+00
         -2   -1    0    0    0  501 -0.00000000000E+00  0.00000000000E+00  0.83367950754E+02  0.83367950754E+02  0.00000000000E+00 0.  1.
          2   -1    0    0  501    0  0.00000000000E+00 -0.00000000000E+00 -0.43689249726E+03  0.43689249726E+03  0.00000000000E+00 0. -1.
         25    2    1    2    0    0 -0.38095628588E+02 -0.15145116571E+03 -0.20741915561E+03  0.28819908610E+03  0.12508906667E+03 0.  0.
          5    1    3    3  502    0 -0.22902175948E+02  0.28453490163E+01 -0.91796734123E+02  0.94745545910E+02  0.41800000000E+01 0. -1.
         -5    1    3    3    0  502 -0.15193452639E+02 -0.15429651473E+03 -0.11562242149E+03  0.19345354019E+03  0.41800000000E+01 0. -1.
        -11    1    1    2    0    0 -0.26704900504E+02  0.39670498870E+02 -0.21055181593E+02  0.52251515418E+02  0.00000000000E+00 0.  1.
         11    1    1    2    0    0  0.64800529092E+02  0.11178066684E+03 -0.12505020930E+03  0.17980984650E+03  0.00000000000E+00 0. -1.
</event>
<event>
 7    1  0.4169461E-009  0.6713133E+02  0.7561462E-02  0.1370129E+00
         -1   -1    0    0    0  501 -0.00000000000E+00  0.00000000000E+00  0.94669632451E+01  0.94669632451E+01  0.00000000000E+00 0.  1.
          1   -1    0    0  501    0  0.00000000000E+00 -0.00000000000E+00 -0.16766034103E+04  0.16766034103E+04  0.00000000000E+00 0. -1.
         25    2    1    2    0    0  0.17907947256E+02  0.86000439914E+01 -0.13377617856E+04  0.13437444881E+04  0.12509196239E+03 0.  0.
          5    1    3    3  502    0  0.29592292477E+02  0.69540730824E+01 -0.13266535211E+04  0.13270083272E+04  0.41800000000E+01 0.  1.
         -5    1    3    3    0  502 -0.11684345221E+02  0.16459709090E+01 -0.11108264449E+02  0.16736160926E+02  0.41800000000E+01 0.  1.
        -11    1    1    2    0    0 -0.53204733283E+02  0.45368301299E+01 -0.22832376175E+03  0.23448468319E+03  0.00000000000E+00 0. -1.
         11    1    1    2    0    0  0.35296786028E+02 -0.13136874121E+02 -0.10105089979E+03  0.10784120230E+03  0.00000000000E+00 0.  1.
</event>
<event>
 7    1  0.2855090E-009  0.2310322E+03  0.7561462E-02  0.1125915E+00
         -1   -1    0    0    0  501 -0.00000000000E+00  0.00000000000E+00  0.87800065227E+02  0.87800065227E+02  0.00000000000E+00 0.  1.
          1   -1    0    0  501    0  0.00000000000E+00 -0.00000000000E+00 -0.67645657648E+03  0.67645657648E+03  0.00000000000E+00 0. -1.
         25    2    1    2    0    0  0.76476708607E+02 -0.19426738495E+03 -0.20584339586E+03  0.31875952543E+03  0.12509047774E+03 0.  0.
          5    1    3    3  502    0 -0.40803219433E+01 -0.15109685806E+03 -0.11652870476E+03  0.19090133833E+03  0.41800000000E+01 0. -1.
         -5    1    3    3    0  502  0.80557030551E+02 -0.43170526882E+02 -0.89314691097E+02  0.12785818710E+03  0.41800000000E+01 0. -1.
        -11    1    1    2    0    0 -0.88944335041E+02  0.16272806095E+03 -0.26893694541E+03  0.32667812471E+03  0.00000000000E+00 0.  1.
         11    1    1    2    0    0  0.12467626434E+02  0.31539323994E+02 -0.11387616998E+03  0.11881899156E+03  0.00000000000E+00 0. -1.
</event>
<event>
 7    1  0.2855090E-009  0.1033429E+03  0.7561462E-02  0.1273419E+00
          1   -1    0    0  501    0  0.00000000000E+00  0.00000000000E+00  0.29779212047E+03  0.29779212047E+03  0.00000000000E+00 0. -1.
         -1   -1    0    0    0  501 -0.00000000000E+00 -0.00000000000E+00 -0.68231377293E+02  0.68231377293E+02  0.00000000000E+00 0.  1.
         25    2    1    2    0    0 -0.52553781796E+02 -0.64448383866E+02  0.76749820326E+02  0.16867902049E+03  0.12508630168E+03 0.  0.
          5    1    3    3  502    0 -0.86326289322E+01 -0.26866420262E+02  0.10166687422E+03  0.10559333565E+03  0.41800000000E+01 0.  1.
         -5    1    3    3    0  502 -0.43921152864E+02 -0.37581963604E+02 -0.24917053891E+02  0.63085684841E+02  0.41800000000E+01 0.  1.
        -11    1    1    2    0    0 -0.78326865426E+01  0.59058613173E+02  0.10252422218E+03  0.11857692398E+03  0.00000000000E+00 0. -1.
         11    1    1    2    0    0  0.60386468339E+02  0.53897706926E+01  0.50286700669E+02  0.78767553286E+02  0.00000000000E+00 0.  1.
</event>
<event>
 7    1  0.2855090E-009  0.1691238E+03  0.7561462E-02  0.1178765E+00
         -1   -1    0    0    0  501 -0.00000000000E+00  0.00000000000E+00  0.47120901436E+03  0.47120901436E+03  0.00000000000E+00 0.  1.
          1   -1    0    0  501    0  0.00000000000E+00 -0.00000000000E+00 -0.74926428605E+02  0.74926428605E+02  0.00000000000E+00 0. -1.
         25    2    1    2    0    0  0.79698103761E+02  0.12160740884E+03  0.27745092996E+03  0.33729250808E+03  0.12508824021E+03 0.  0.
          5    1    3    3  502    0 -0.18385060199E+02 -0.14631097846E+02  0.35668764306E+02  0.42916344320E+02  0.41800000000E+01 0.  1.
         -5    1    3    3    0  502  0.98083163960E+02  0.13623850669E+03  0.24178216566E+03  0.29437616376E+03  0.41800000000E+01 0.  1.
        -11    1    1    2    0    0 -0.64927864340E+02 -0.84835467036E+02  0.12942897560E+03  0.16782295362E+03  0.00000000000E+00 0.  1.
         11    1    1    2    0    0 -0.14770239421E+02 -0.36771941805E+02 -0.10597319810E+02  0.41019981275E+02  0.00000000000E+00 0. -1.
</event>
<event>
 7    1  0.2855090E-009  0.1049233E+03  0.7561462E-02  0.1270271E+00
         -1   -1    0    0    0  501 -0.00000000000E+00  0.00000000000E+00  0.42097941910E+02  0.42097941910E+02  0.00000000000E+00 0.  1.
          1   -1    0    0  501    0  0.00000000000E+00 -0.00000000000E+00 -0.49767049023E+03  0.49767049023E+03  0.00000000000E+00 0. -1.
         25    2    1    2    0    0 -0.56115064474E+02  0.41615929050E+02 -0.36740113102E+03  0.39435269037E+03  0.12509863035E+03 0.  0.
          5    1    3    3  502    0 -0.67051027668E+02  0.62359596236E+02 -0.15099432044E+03  0.17663894462E+03  0.41800000000E+01 0. -1.
         -5    1    3    3    0  502  0.10935963194E+02 -0.20743667186E+02 -0.21640681058E+03  0.21771374574E+03  0.41800000000E+01 0. -1.
        -11    1    1    2    0    0  0.38010149201E+02 -0.58397650412E+02 -0.19371360846E+02  0.72320858934E+02  0.00000000000E+00 0.  1.
         11    1    1    2    0    0  0.18104915273E+02  0.16781721362E+02 -0.68800056455E+02  0.73094882838E+02  0.00000000000E+00 0. -1.
</event>
<event>
 7    1  0.2855090E-009  0.1130798E+03  0.7561462E-02  0.1254971E+00
          2   -1    0    0  501    0  0.00000000000E+00  0.00000000000E+00  0.19569651862E+04  0.19569651862E+04  0.00000000000E+00 0. -1.
         -2   -1    0    0    0  501 -0.00000000000E+00 -0.00000000000E+00 -0.13617162229E+02  0.13617162229E+02  0.00000000000E+00 0.  1.
         25    2    1    2    0    0  0.57439005459E+01  0.85644619271E+02  0.15512799685E+04  0.15586815541E+04  0.12510257038E+03 0.  0.
          5    1    3    3  502    0 -0.20461000543E+02  0.59191184975E+02  0.14379265789E+04  0.14392958583E+04  0.41800000000E+01 0.  1.
         -5    1    3    3    0  502  0.26204901089E+02  0.26453434297E+02  0.11335338958E+03  0.11938569578E+03  0.41800000000E+01 0.  1.
        -11    1    1    2    0    0 -0.12470963085E+02  0.18089157433E+02  0.57459880041E+02  0.61517317490E+02  0.00000000000E+00 0.  1.
         11    1    1    2    0    0  0.67270625392E+01 -0.10373377670E+03  0.33460817540E+03  0.35038347685E+03  0.00000000000E+00 0. -1.
</event>
<event>
 7    1  0.2855090E-009  0.1084542E+03  0.7561462E-02  0.1263460E+00
         -2   -1    0    0    0  501 -0.00000000000E+00  0.00000000000E+00  0.23834526088E+03  0.23834526088E+03  0.00000000000E+00 0. -1.
          2   -1    0    0  501    0  0.00000000000E+00 -0.00000000000E+00 -0.75710317398E+02  0.75710317398E+02  0.00000000000E+00 0.  1.
         25    2    1    2    0    0  0.65706824714E+02  0.30275921707E+02  0.12830343943E+03  0.19322216641E+03  0.12505604653E+03 0.  0.
          5    1    3    3  502    0 -0.36436155654E+02 -0.29061855960E+01  0.37306421207E+02  0.52395427442E+02  0.41800000000E+01 0. -1.
         -5    1    3    3    0  502  0.10214298037E+03  0.33182107303E+02  0.90997018224E+02  0.14082673897E+03  0.41800000000E+01 0. -1.
        -11    1    1    2    0    0 -0.25496460209E+02 -0.15275434306E+02 -0.30819920913E+02  0.42816771264E+02  0.00000000000E+00 0.  1.
         11    1    1    2    0    0 -0.40210364505E+02 -0.15000487401E+02  0.65151424965E+02  0.78016640602E+02  0.00000000000E+00 0. -1.
</event>
<event>
 7    1  0.2855090E-009  0.1955556E+03  0.7561462E-02  0.1153544E+00
          1   -1    0    0  501    0  0.00000000000E+00  0.00000000000E+00  0.15162429057E+04  0.15162429057E+04  0.00000000000E+00 0. -1.
         -1   -1    0    0    0  501 -0.00000000000E+00 -0.00000000000E+00 -0.31004422246E+02  0.31004422246E+02  0.00000000000E+00 0.  1.
         25    2    1    2    0    0  0.18752881018E+03  0.13784257832E+02  0.81195685925E+03  0.84277818824E+03  0.12507626826E+03 0.  0.
          5    1    3    3  502    0  0.31545434089E+02 -0.22054017770E+02  0.38240194653E+03  0.38435688523E+03  0.41800000000E+01 0. -1.
         -5    1    3    3    0  502  0.15598337610E+03  0.35838275603E+02  0.42955491272E+03  0.45842130301E+03  0.41800000000E+01 0. -1.
        -11    1    1    2    0    0 -0.63202083090E+02  0.14376232936E+02  0.11685845068E+03  0.13363037408E+03  0.00000000000E+00 0.  1.
         11    1    1    2    0    0 -0.12432672709E+03 -0.28160490769E+02  0.55642317355E+03  0.57083876566E+03  0.00000000000E+00 0. -1.
</event>
<event>
 7    1  0.2855090E-009  0.1329348E+03  0.7561462E-02  0.1223165E+00
         -1   -1    0    0    0  501 -0.00000000000E+00  0.00000000000E+00  0.57601342735E+03  0.57601342735E+03  0.00000000000E+00 0.  1.
          1   -1    0    0  501    0  0.00000000000E+00 -0.00000000000E+00 -0.66947439861E+02  0.66947439861E+02  0.00000000000E+00 0. -1.
         25    2    1    2    0    0 -0.15568046922E+02 -0.11707489911E+03  0.45272359541E+03  0.48430877053E+03  0.12508970895E+03 0.  0.
          5    1    3    3  502    0  0.18896861181E+02 -0.98916979291E+02  0.42377076196E+03  0.43559246004E+03  0.41800000000E+01 0.  1.
         -5    1    3    3    0  502 -0.34464908104E+02 -0.18157919823E+02  0.28952833455E+02  0.48716310492E+02  0.41800000000E+01 0.  1.
        -11    1    1    2    0    0 -0.10509538357E+02  0.79315556331E+02  0.74478650251E+02  0.10930909027E+03  0.00000000000E+00 0.  1.
         11    1    1    2    0    0  0.26077585279E+02  0.37759342783E+02 -0.18136258170E+02  0.49343006412E+02  0.00000000000E+00 0. -1.
</event>
<event>
 7    1  0.2855090E-009  0.9619677E+02  0.7561462E-02  0.1288503E+00
         -1   -1    0    0    0  501 -0.00000000000E+00  0.00000000000E+00  0.33199882825E+02  0.33199882825E+02  0.00000000000E+00 0.  1.
          1   -1    0    0  501    0  0.00000000000E+00 -0.00000000000E+00 -0.40296272772E+03  0.40296272772E+03  0.00000000000E+00 0. -1.
         25    2    1    2    0    0  0.15967234608E+02 -0.10779646142E+02 -0.28059100626E+03  0.30780075712E+03  0.12505534750E+03 0.  0.
          5    1    3    3  502    0 -0.38784504763E+02  0.33448724004E+02 -0.79064407180E+02  0.94295852666E+02  0.41800000000E+01 0. -1.
         -5    1    3    3    0  502  0.54751739371E+02 -0.44228370146E+02 -0.20152659908E+03  0.21350490445E+03  0.41800000000E+01 0. -1.
        -11    1    1    2    0    0 -0.42119584512E+02  0.13440699773E+02 -0.10538327660E+02  0.45450722324E+02  0.00000000000E+00 0.  1.
         11    1    1    2    0    0  0.26152349905E+02 -0.26610536305E+01 -0.78633510978E+02  0.82911131102E+02  0.00000000000E+00 0. -1.
</event>
<event>
 7    1  0.2855090E-009  0.1993567E+03  0.7561462E-02  0.1150283E+00
          1   -1    0    0  501    0  0.00000000000E+00  0.00000000000E+00  0.56032223529E+03  0.56032223529E+03  0.00000000000E+00 0. -1.
         -1   -1    0    0    0  501 -0.00000000000E+00 -0.00000000000E+00 -0.80754818470E+02  0.80754818470E+02  0.00000000000E+00 0.  1.
         25    2    1    2    0    0  0.26661355071E+02  0.17932146913E+03  0.22276155085E+03  0.31326879833E+03  0.12509042461E+03 0.  0.
          5    1    3    3  502    0 -0.25482428008E+02  0.81746850233E+02  0.29722252289E+02  0.90734703070E+02  0.41800000000E+01 0.  1.
         -5    1    3    3    0  502  0.52143783079E+02  0.97574618896E+02  0.19303929856E+03  0.22253409526E+03  0.41800000000E+01 0.  1.
        -11    1    1    2    0    0  0.28883485511E+02 -0.24795279500E+02  0.34068523226E+02  0.51085476366E+02  0.00000000000E+00 0.  1.
         11    1    1    2    0    0 -0.55544840583E+02 -0.15452618963E+03  0.22273734274E+03  0.27672277906E+03  0.00000000000E+00 0. -1.
</event>
<event>
 7    1  0.2855090E-009  0.1045872E+03  0.7561462E-02  0.1270935E+00
         -2   -1    0    0    0  501 -0.00000000000E+00  0.00000000000E+00  0.23832915188E+02  0.23832915188E+02  0.00000000000E+00 0.  1.
          2   -1    0    0  501    0  0.00000000000E+00 -0.00000000000E+00 -0.63393960118E+03  0.63393960118E+03  0.00000000000E+00 0. -1.
         25    2    1    2    0    0  0.56587188061E+02 -0.13127021633E+02 -0.42957071142E+03  0.45116838710E+03  0.12508992312E+03 0.  0.
          5    1    3    3  502    0 -0.10901086105E+02 -0.44682728603E+02 -0.28251131866E+03  0.28626123993E+03  0.41800000000E+01 0.  1.
         -5    1    3    3    0  502  0.67488274166E+02  0.31555706970E+02 -0.14705939275E+03  0.16490714718E+03  0.41800000000E+01 0.  1.
        -11    1    1    2    0    0  0.12031873345E+02  0.15610446743E+02 -0.86746788145E+01  0.21533742736E+02  0.00000000000E+00 0.  1.
         11    1    1    2    0    0 -0.68619061406E+02 -0.24834251100E+01 -0.17186129577E+03  0.18507038653E+03  0.00000000000E+00 0. -1.
</event>
<event>
 7    1  0.2855090E-009  0.1017427E+03  0.7561462E-02  0.1276673E+00
         -2   -1    0    0    0  501 -0.00000000000E+00  0.00000000000E+00  0.18669935858E+02  0.18669935858E+02  0.00000000000E+00 0. -1.
          2   -1    0    0  501    0  0.00000000000E+00 -0.00000000000E+00 -0.75761464489E+03  0.75761464489E+03  0.00000000000E+00 0.  1.
         25    2    1    2    0    0  0.45759649761E+02  0.15170907688E+02 -0.43539962176E+03  0.45557129636E+03  0.12509305918E+03 0.  0.
          5    1    3    3  502    0 -0.30323051365E+02 -0.45371112353E+01 -0.27672344258E+03  0.27844821583E+03  0.41800000000E+01 0. -1.
         -5    1    3    3    0  502  0.76082701126E+02  0.19708018924E+02 -0.15867617918E+03  0.17712308054E+03  0.41800000000E+01 0. -1.
        -11    1    1    2    0    0 -0.57215133402E+02 -0.37729843780E+02 -0.27076840374E+03  0.27930743110E+03  0.00000000000E+00 0.  1.
         11    1    1    2    0    0  0.11455483641E+02  0.22558936091E+02 -0.32776683527E+02  0.41405853282E+02  0.00000000000E+00 0. -1.
</event>
<event>
 7    1  0.2855090E-009  0.1373453E+03  0.7561462E-02  0.1216946E+00
         -1   -1    0    0    0  501 -0.00000000000E+00  0.00000000000E+00  0.53411546556E+02  0.53411546556E+02  0.00000000000E+00 0.  1.
          1   -1    0    0  501    0  0.00000000000E+00 -0.00000000000E+00 -0.41718699795E+03  0.41718699795E+03  0.00000000000E+00 0. -1.
         25    2    1    2    0    0  0.15167813505E+02  0.94966412234E+02 -0.25049277284E+03  0.29604484537E+03  0.12508892521E+03 0.  0.
          5    1    3    3  502    0  0.61961245825E+02  0.55481408603E+02 -0.19975256584E+03  0.21641613305E+03  0.41800000000E+01 0. -1.
         -5    1    3    3    0  502 -0.46793432320E+02  0.39485003631E+02 -0.50740206997E+02  0.79628712322E+02  0.41800000000E+01 0. -1.
        -11    1    1    2    0    0  0.36617361754E+02 -0.45797803237E+02 -0.68909599501E+02  0.90480953060E+02  0.00000000000E+00 0.  1.
         11    1    1    2    0    0 -0.51785175259E+02 -0.49168608997E+02 -0.44373079054E+02  0.84072746072E+02  0.00000000000E+00 0. -1.
</event>
<event>
 7    1  0.2855090E-009  0.1361387E+03  0.7561462E-02  0.1218621E+00
         -2   -1    0    0    0  501 -0.00000000000E+00  0.00000000000E+00  0.16469665437E+03  0.16469665437E+03  0.00000000000E+00 0. -1.
          2   -1    0    0  501    0  0.00000000000E+00 -0.00000000000E+00 -0.15612923317E+03  0.15612923317E+03  0.00000000000E+00 0.  1.
         25    2    1    2    0    0  0.62549550527E+02  0.94977926689E+02 -0.24372861364E+02  0.17080414170E+03  0.12508703218E+03 0.  0.
          5    1    3    3  502    0 -0.16150781061E+02  0.74859763907E+02  0.18446384862E+02  0.78883290345E+02  0.41800000000E+01 0. -1.
         -5    1    3    3    0  502  0.78700331588E+02  0.20118162782E+02 -0.42819246226E+02  0.91920851352E+02  0.41800000000E+01 0. -1.
        -11    1    1    2    0    0 -0.43711203065E+01 -0.13025206779E+02 -0.28911976603E+02  0.32010390430E+02  0.00000000000E+00 0.  1.
         11    1    1    2    0    0 -0.58178430221E+02 -0.81952719910E+02  0.61852259163E+02  0.11801135542E+03  0.00000000000E+00 0. -1.
</event>
<event>
 7    1  0.2855090E-009  0.1772487E+03  0.7561462E-02  0.1170493E+00
         -2   -1    0    0    0  501 -0.00000000000E+00  0.00000000000E+00  0.11037806587E+03  0.11037806587E+03  0.00000000000E+00 0.  1.
          2   -1    0    0  501    0  0.00000000000E+00 -0.00000000000E+00 -0.32561607132E+03  0.32561607132E+03  0.00000000000E+00 0. -1.
         25    2    1    2    0    0 -0.11879177150E+03  0.98454237618E+02 -0.96056208255E+02  0.22063338976E+03  0.12509027002E+03 0.  0.
          5    1    3    3  502    0 -0.11310538596E+02 -0.27077258676E+02 -0.40444014412E+00  0.29643586027E+02  0.41800000000E+01 0.  1.
         -5    1    3    3    0  502 -0.10748123291E+03  0.12553149629E+03 -0.95651768111E+02  0.19098980374E+03  0.41800000000E+01 0.  1.
        -11    1    1    2    0    0  0.77810278240E+02 -0.38216576520E+02 -0.11274649089E+03  0.14222066421E+03  0.00000000000E+00 0. -1.
         11    1    1    2    0    0  0.40981493262E+02 -0.60237661098E+02 -0.64353063034E+01  0.73140083209E+02  0.00000000000E+00 0.  1.
</event>
<event>
 6    1  0.2855090E-009  0.1190321E+03  0.7561462E-02  0.1244702E+00
         -2   -1    0    0    0  501 -0.00000000000E+00  0.00000000000E+00  0.76398253129E+02  0.76398253129E+02  0.00000000000E+00 0.  1.
          2   -1    0    0  501    0  0.00000000000E+00 -0.00000000000E+00 -0.21932585536E+03  0.21932585536E+03  0.00000000000E+00 0. -1.
          5    1    1    2  502    0  0.14376279106E+02  0.61601952222E+02  0.90259940073E+01  0.64034513244E+02  0.41800000000E+01 0.  1.
         -5    1    1    2    0  502  0.48205558479E+02 -0.40429879001E+02 -0.59731610055E+02  0.86854410504E+02  0.41800000000E+01 0.  1.
        -11    1    1    2    0    0 -0.70828744526E+02  0.16769991121E+02 -0.62471383816E+02  0.95919849089E+02  0.00000000000E+00 0.  1.
         11    1    1    2    0    0  0.82469069404E+01 -0.37942064343E+02 -0.29750602362E+02  0.48915335649E+02  0.00000000000E+00 0. -1.
</event>
<event>
 7    1  0.2855090E-009  0.2001418E+03  0.7561462E-02  0.1149619E+00
         -2   -1    0    0    0  501 -0.00000000000E+00  0.00000000000E+00  0.29377093029E+03  0.29377093029E+03  0.00000000000E+00 0.  1.
          2   -1    0    0  501    0  0.00000000000E+00 -0.00000000000E+00 -0.19592349855E+03  0.19592349855E+03  0.00000000000E+00 0. -1.
         25    2    1    2    0    0  0.64418079465E+02  0.17366831908E+03  0.16830463592E+03  0.27979438904E+03  0.12509226856E+03 0.  0.
          5    1    3    3  502    0  0.79788034992E+02  0.10112222597E+03  0.46265085164E+02  0.13692978353E+03  0.41800000000E+01 0.  1.
         -5    1    3    3    0  502 -0.15369955527E+02  0.72546093111E+02  0.12203955076E+03  0.14286460551E+03  0.41800000000E+01 0.  1.
        -11    1    1    2    0    0 -0.66357573473E+02 -0.82192215544E+02 -0.45815998979E+02  0.11514336114E+03  0.00000000000E+00 0.  1.
         11    1    1    2    0    0  0.19394940075E+01 -0.91476103535E+02 -0.24641205213E+02  0.94756678653E+02  0.00000000000E+00 0. -1.
</event>
<event>
 7    1  0.2855090E-009  0.9670267E+02  0.7561462E-02  0.1287387E+00
          2   -1    0    0  501    0  0.00000000000E+00  0.00000000000E+00  0.93769313963E+03  0.93769313963E+03  0.00000000000E+00 0.  1.
         -2   -1    0    0    0  501 -0.00000000000E+00 -0.00000000000E+00 -0.13460747601E+02  0.13460747601E+02  0.00000000000E+00 0. -1.
         25    2    1    2    0    0 -0.16412331730E+02  0.12509046167E+02  0.63160731387E+03  0.64421046555E+03  0.12511388462E+03 0.  0.
          5    1    3    3  502    0 -0.59006330518E+02  0.27537906774E+02  0.51456597303E+03  0.51868651067E+03  0.41800000000E+01 0.  1.
         -5    1    3    3    0  502  0.42593998787E+02 -0.15028860607E+02  0.11704134084E+03  0.12552395488E+03  0.41800000000E+01 0.  1.
        -11    1    1    2    0    0 -0.32609897841E+02 -0.79221489580E+01  0.19208803941E+03  0.19499738656E+03  0.00000000000E+00 0.  1.
         11    1    1    2    0    0  0.49022229572E+02 -0.45868972092E+01  0.10053703875E+03  0.11194603512E+03  0.00000000000E+00 0. -1.
</event>
<event>
 7    1  0.2855090E-009  0.1133139E+03  0.7561462E-02  0.1254553E+00
         -3   -1    0    0    0  501 -0.00000000000E+00  0.00000000000E+00  0.94218410948E+02  0.94218410948E+02  0.00000000000E+00 0.  1.
          3   -1    0    0  501    0  0.00000000000E+00 -0.00000000000E+00 -0.20456085391E+03  0.20456085391E+03  0.00000000000E+00 0. -1.
         25    2    1    2    0    0  0.13840358358E+02  0.36604049745E+02 -0.11144698601E+03  0.17204690566E+03  0.12509314561E+03 0.  0.
          5    1    3    3  502    0  0.53502627851E+02 -0.25826891468E+01 -0.10207942412E+03  0.11535546237E+03  0.41800000000E+01 0. -1.
         -5    1    3    3    0  502 -0.39662269493E+02  0.39186738891E+02 -0.93675618903E+01  0.56691443288E+02  0.41800000000E+01 0. -1.
        -11    1    1    2    0    0 -0.62350637257E+02 -0.16662118647E+02 -0.23649283578E+02  0.68735120411E+02  0.00000000000E+00 0. -1.
         11    1    1    2    0    0  0.48510278899E+02 -0.19941931098E+02  0.24753826624E+02  0.57997238791E+02  0.00000000000E+00 0.  1.
</event>
<event>
 7    1  0.2855090E-009  0.1876221E+03  0.7561462E-02  0.1160624E+00
          2   -1    0    0  501    0  0.00000000000E+00  0.00000000000E+00  0.25247767485E+03  0.25247767485E+03  0.00000000000E+00 0. -1.
         -2   -1    0    0    0  501 -0.00000000000E+00 -0.00000000000E+00 -0.17777443343E+03  0.17777443343E+03  0.00000000000E+00 0.  1.
         25    2    1    2    0    0  0.13847277861E+03  0.93168850413E+02 -0.33127066066E+02  0.21118175848E+03  0.12508072395E+03 0.  0.
          5    1    3    3  502    0  0.56170819368E+02 -0.26259816990E+02 -0.20898358941E+02  0.65566399498E+02  0.41800000000E+01 0.  1.
         -5    1    3    3    0  502  0.82301959244E+02  0.11942866740E+03 -0.12228707125E+02  0.14561535898E+03  0.41800000000E+01 0.  1.
        -11    1    1    2    0    0 -0.91297782132E+02 -0.72081373994E+02  0.11877722463E+03  0.16624992809E+03  0.00000000000E+00 0.  1.
         11    1    1    2    0    0 -0.47174996479E+02 -0.21087476419E+02 -0.10946917153E+02  0.52820421710E+02  0.00000000000E+00 0. -1.
</event>
<event>
 7    1  0.2855090E-009  0.8741153E+02  0.7561462E-02  0.1309244E+00
         -4   -1    0    0    0  501 -0.00000000000E+00  0.00000000000E+00  0.30024669168E+03  0.30024669168E+03  0.00000000000E+00 0. -1.
          4   -1    0    0  501    0  0.00000000000E+00 -0.00000000000E+00 -0.61081414683E+02  0.61081414683E+02  0.00000000000E+00 0.  1.
         25    2    1    2    0    0  0.54793540001E+02 -0.29698674162E+02  0.19158148277E+03  0.23714176902E+03  0.12509360814E+03 0.  0.
          5    1    3    3  502    0  0.11332136357E+02  0.23516869137E+02  0.15864496000E+03  0.16083269624E+03  0.41800000000E+01 0. -1.
         -5    1    3    3    0  502  0.43461403644E+02 -0.53215543299E+02  0.32936522777E+02  0.76309072776E+02  0.41800000000E+01 0. -1.
        -11    1    1    2    0    0 -0.56465948435E+02  0.39946454575E+02 -0.61670830504E+01  0.69441741619E+02  0.00000000000E+00 0.  1.
         11    1    1    2    0    0  0.16724084340E+01 -0.10247780413E+02  0.53750877279E+02  0.54744595729E+02  0.00000000000E+00 0. -1.
</event>
<event>
 7    1  0.2855090E-009  0.1461504E+03  0.7561462E-02  0.1205285E+00
         -1   -1    0    0    0  501 -0.00000000000E+00  0.00000000000E+00  0.69263405442E+02  0.69263405442E+02  0.00000000000E+00 0.  1.
          1   -1    0    0  501    0  0.00000000000E+00 -0.00000000000E+00 -0.36826999086E+03  0.36826999086E+03  0.00000000000E+00 0. -1.
         25    2    1    2    0    0 -0.99699917662E+02  0.59182561425E+02 -0.14615786651E+03  0.22461598996E+03  0.12509025479E+03 0.  0.
          5    1    3    3  502    0 -0.12738179429E+03  0.45317424517E+02 -0.97312254541E+02  0.16663414345E+03  0.41800000000E+01 0.  1.
         -5    1    3    3    0  502  0.27681876627E+02  0.13865136908E+02 -0.48845611972E+02  0.57981846504E+02  0.41800000000E+01 0.  1.
        -11    1    1    2    0    0  0.39431470446E+02  0.25559179474E+01 -0.25265244431E+01  0.39594910075E+02  0.00000000000E+00 0.  1.
         11    1    1    2    0    0  0.60268447216E+02 -0.61738479373E+02 -0.15032219447E+03  0.17332249627E+03  0.00000000000E+00 0. -1.
</event>
<event>
 7    1  0.3150200E-009  0.6492665E+02  0.7561462E-02  0.1378248E+00
          1   -1    0    0  501    0  0.00000000000E+00  0.00000000000E+00  0.14609532776E+03  0.14609532776E+03  0.00000000000E+00 0. -1.
         -1   -1    0    0    0  501 -0.00000000000E+00 -0.00000000000E+00 -0.10475625965E+03  0.10475625965E+03  0.00000000000E+00 0.  1.
         25    2    1    2    0    0 -0.50870398286E+01  0.15971445443E+02  0.81736971143E+02  0.15036577841E+03  0.12509184555E+03 0.  0.
          5    1    3    3  502    0 -0.20334344899E+02  0.36673087056E+01 -0.30100346314E+02  0.36748305863E+02  0.41800000000E+01 0. -1.
         -5    1    3    3    0  502  0.15247305070E+02  0.12304136738E+02  0.11183731746E+03  0.11361747255E+03  0.41800000000E+01 0. -1.
        -11    1    1    2    0    0 -0.31128688048E+02  0.20554157482E+02 -0.30322262691E+02  0.48071906807E+02  0.00000000000E+00 0. -1.
         11    1    1    2    0    0  0.36215727877E+02 -0.36525602925E+02 -0.10075640345E+02  0.52413902193E+02  0.00000000000E+00 0.  1.
</event>
<event>
 7    1  0.2855090E-009  0.2450479E+03  0.7561462E-02  0.1116475E+00
         -2   -1    0    0    0  501 -0.00000000000E+00  0.00000000000E+00  0.51046625346E+03  0.51046625346E+03  0.00000000000E+00 0.  1.
          2   -1    0    0  501    0  0.00000000000E+00 -0.00000000000E+00 -0.12950804071E+03  0.12950804071E+03  0.00000000000E+00 0. -1.
         25    2    1    2    0    0 -0.44840264457E+02 -0.22730645553E+03  0.17297267986E+03  0.31503317279E+03  0.12508987943E+03 0.  0.
          5    1    3    3  502    0  0.77746888217E+00 -0.20857260872E+03  0.16252185154E+03  0.26445030193E+03  0.41800000000E+01 0.  1.
         -5    1    3    3    0  502 -0.45617733339E+02 -0.18733846815E+02  0.10450828320E+02  0.50582870856E+02  0.41800000000E+01 0.  1.
        -11    1    1    2    0    0  0.22920850491E+02  0.14558972913E+03  0.70186362310E+02  0.16324172282E+03  0.00000000000E+00 0.  1.
         11    1    1    2    0    0  0.21919413966E+02  0.81716726405E+02  0.13779917058E+03  0.16169939856E+03  0.00000000000E+00 0. -1.
</event>
<event>
 7    1  0.2855090E-009  0.1435020E+03  0.7561462E-02  0.1208693E+00
         -1   -1    0    0    0  501 -0.00000000000E+00  0.00000000000E+00  0.31809657643E+03  0.31809657643E+03  0.00000000000E+00 0.  1.
          1   -1    0    0  501    0  0.00000000000E+00 -0.00000000000E+00 -0.10236467368E+03  0.10236467368E+03  0.00000000000E+00 0. -1.
         25    2    1    2    0    0 -0.83593374588E+00  0.13939128546E+03  0.80491571223E+02  0.20385485276E+03  0.12508908309E+03 0.  0.
          5    1    3    3  502    0  0.20154816002E+02  0.89618343116E+02 -0.15865229368E+02  0.93310459939E+02  0.41800000000E+01 0.  1.
         -5    1    3    3    0  502 -0.20990749748E+02  0.49772942341E+02  0.96356800591E+02  0.11054439282E+03  0.41800000000E+01 0.  1.
        -11    1    1    2    0    0  0.86193236904E+01 -0.11374958121E+03  0.14805319706E+03  0.18690374294E+03  0.00000000000E+00 0.  1.
         11    1    1    2    0    0 -0.77833899445E+01 -0.25641704243E+02 -0.12812865534E+02  0.29702654405E+02  0.00000000000E+00 0. -1.
</event>
<event>
 7    1  0.2855090E-009  0.1560409E+03  0.7561462E-02  0.1193240E+00
         -2   -1    0    0    0  501 -0.00000000000E+00  0.00000000000E+00  0.17234860285E+03  0.17234860285E+03  0.00000000000E+00 0.  1.
          2   -1    0    0  501    0  0.00000000000E+00 -0.00000000000E+00 -0.19556457537E+03  0.19556457537E+03  0.00000000000E+00 0. -1.
         25    2    1    2    0    0  0.11818578627E+03  0.86711493169E+02  0.56152103271E+01  0.19278213056E+03  0.12508659462E+03 0.  0.
          5    1    3    3  502    0  0.15579587616E+02  0.33993701132E+02 -0.51668781085E+02  0.63917373271E+02  0.41800000000E+01 0.  1.
         -5    1    3    3    0  502  0.10260619866E+03  0.52717792037E+02  0.57283991413E+02  0.12886475729E+03  0.41800000000E+01 0.  1.
        -11    1    1    2    0    0 -0.71001231634E+02 -0.14039141965E+02  0.20762681240E+02  0.75295161418E+02  0.00000000000E+00 0.  1.
         11    1    1    2    0    0 -0.47184554640E+02 -0.72672351203E+02 -0.49593864091E+02  0.99835886241E+02  0.00000000000E+00 0. -1.
</event>
<event>
 7    1  0.2855090E-009  0.1140676E+03  0.7561462E-02  0.1253217E+00
         -2   -1    0    0    0  501 -0.00000000000E+00  0.00000000000E+00  0.43198229115E+02  0.43198229115E+02  0.00000000000E+00 0.  1.
          2   -1    0    0  501    0  0.00000000000E+00 -0.00000000000E+00 -0.41346598554E+03  0.41346598554E+03  0.00000000000E+00 0. -1.
         25    2    1    2    0    0  0.76097790336E+02 -0.21106302751E+01 -0.21316804179E+03  0.25861913026E+03  0.12509161459E+03 0.  0.
          5    1    3    3  502    0 -0.33291891325E+02  0.12484457819E+02 -0.46572536483E+02  0.58742533734E+02  0.41800000000E+01 0.  1.
         -5    1    3    3    0  502  0.10938968166E+03 -0.14595088094E+02 -0.16659550530E+03  0.19987659652E+03  0.41800000000E+01 0.  1.
        -11    1    1    2    0    0 -0.39151549547E+02 -0.14014923095E+02 -0.15179205046E+03  0.15738515967E+03  0.00000000000E+00 0. -1.
         11    1    1    2    0    0 -0.36946240788E+02  0.16125553370E+02 -0.53076641789E+01  0.40659924728E+02  0.00000000000E+00 0.  1.
</event>
<event>
 7    1  0.2855090E-009  0.1092991E+03  0.7561462E-02  0.1261873E+00
         -2   -1    0    0    0  501 -0.00000000000E+00  0.00000000000E+00  0.78463164952E+02  0.78463164952E+02  0.00000000000E+00 0.  1.
          2   -1    0    0  501    0  0.00000000000E+00 -0.00000000000E+00 -0.41647085733E+03  0.41647085733E+03  0.00000000000E+00 0. -1.
         25    2    1    2    0    0 -0.63977979153E+02 -0.58179557621E+02 -0.19708463107E+02  0.15334233631E+03  0.12508959128E+03 0.  0.
          5    1    3    3  502    0 -0.28456816220E+02 -0.51109798047E+02  0.48432939308E+02  0.76060659055E+02  0.41800000000E+01 0.  1.
         -5    1    3    3    0  502 -0.35521162933E+02 -0.70697595735E+01 -0.68141402415E+02  0.77281677257E+02  0.41800000000E+01 0.  1.
        -11    1    1    2    0    0 -0.18970000513E+02 -0.45354585701E+01 -0.62167713121E+02  0.65155627989E+02  0.00000000000E+00 0.  1.
         11    1    1    2    0    0  0.82947979666E+02  0.62715016191E+02 -0.25613151615E+03  0.27643605798E+03  0.00000000000E+00 0. -1.
</event>
<event>
 7    1  0.2855090E-009  0.1297471E+03  0.7561462E-02  0.1227832E+00
          2   -1    0    0  501    0  0.00000000000E+00  0.00000000000E+00  0.12151580513E+03  0.12151580513E+03  0.00000000000E+00 0.  1.
         -2   -1    0    0    0  501 -0.00000000000E+00 -0.00000000000E+00 -0.34827910674E+03  0.34827910674E+03  0.00000000000E+00 0. -1.
         25    2    1    2    0    0 -0.48023010240E+02  0.57118034961E+02 -0.29921290378E+03  0.33278350776E+03  0.12509125396E+03 0.  0.
          5    1    3    3  502    0 -0.88369910480E+02  0.51526165315E+02 -0.23858516422E+03  0.25962384285E+03  0.41800000000E+01 0.  1.
         -5    1    3    3    0  502  0.40346900239E+02  0.55918696462E+01 -0.60627739555E+02  0.73159664903E+02  0.41800000000E+01 0.  1.
        -11    1    1    2    0    0 -0.13853283429E+02 -0.52300514477E+02  0.30624268785E+02  0.62169953474E+02  0.00000000000E+00 0.  1.
         11    1    1    2    0    0  0.61876293670E+02 -0.48175204840E+01  0.41825333377E+02  0.74841450641E+02  0.00000000000E+00 0. -1.
</event>
<event>
 7    1  0.2855090E-009  0.1363649E+03  0.7561462E-02  0.1218306E+00
         -2   -1    0    0    0  501 -0.00000000000E+00  0.00000000000E+00  0.21629223625E+03  0.21629223625E+03  0.00000000000E+00 0.  1.
          2   -1    0    0  501    0  0.00000000000E+00 -0.00000000000E+00 -0.10408513920E+03  0.10408513920E+03  0.00000000000E+00 0. -1.
         25    2    1    2    0    0  0.44938973885E+02 -0.92170118419E+02  0.53253635383E+02  0.17028943933E+03  0.12509077249E+03 0.  0.
          5    1    3    3  502    0  0.11967498723E+02 -0.10200352091E+03 -0.45524151705E+01  0.10288895076E+03  0.41800000000E+01 0.  1.
         -5    1    3    3    0  502  0.32971475162E+02  0.98334024914E+01  0.57806050553E+02  0.67400488570E+02  0.41800000000E+01 0.  1.
        -11    1    1    2    0    0 -0.71783593983E+02  0.61526971954E+02  0.54447694610E+02  0.10910088951E+03  0.00000000000E+00 0.  1.
         11    1    1    2    0    0  0.26844620098E+02  0.30643146464E+02  0.45057670634E+01  0.40987046616E+02  0.00000000000E+00 0. -1.
</event>
<event>
 7    1  0.2855090E-009  0.1023159E+03  0.7561462E-02  0.1275500E+00
         -1   -1    0    0    0  501 -0.00000000000E+00  0.00000000000E+00  0.52662765690E+03  0.52662765690E+03  0.00000000000E+00 0.  1.
          1   -1    0    0  501    0  0.00000000000E+00 -0.00000000000E+00 -0.24379542992E+02  0.24379542992E+02  0.00000000000E+00 0. -1.
         25    2    1    2    0    0 -0.19598355711E+02  0.10960991449E+02  0.23326268139E+03  0.26563903777E+03  0.12509348895E+03 0.  0.
          5    1    3    3  502    0 -0.53809851126E+02 -0.38254531630E+02  0.13752654923E+03  0.15261039746E+03  0.41800000000E+01 0. -1.
         -5    1    3    3    0  502  0.34211495415E+02  0.49215523079E+02  0.95736132153E+02  0.11302864031E+03  0.41800000000E+01 0. -1.
        -11    1    1    2    0    0  0.22704203461E+02  0.29828493433E+02  0.21159904057E+03  0.21489386647E+03  0.00000000000E+00 0.  1.
         11    1    1    2    0    0 -0.31058477504E+01 -0.40789484882E+02  0.57386391949E+02  0.70474295656E+02  0.00000000000E+00 0. -1.
</event>
<event>
 7    1  0.2855090E-009  0.1091328E+03  0.7561462E-02  0.1262184E+00
          2   -1    0    0  501    0  0.00000000000E+00  0.00000000000E+00  0.22106866202E+03  0.22106866202E+03  0.00000000000E+00 0. -1.
         -2   -1    0    0    0  501 -0.00000000000E+00 -0.00000000000E+00 -0.78146137429E+02  0.78146137429E+02  0.00000000000E+00 0.  1.
         25    2    1    2    0    0  0.45062225242E+02  0.51018853976E+02  0.42671691722E+02  0.14866689100E+03  0.12508974219E+03 0.  0.
          5    1    3    3  502    0  0.23783103793E+02 -0.35489171260E+02  0.41158395214E+02  0.59469346721E+02  0.41800000000E+01 0. -1.
         -5    1    3    3    0  502  0.21279121449E+02  0.86508025236E+02  0.15132965073E+01  0.89197544284E+02  0.41800000000E+01 0. -1.
        -11    1    1    2    0    0 -0.56505855379E+02 -0.34994284785E+02  0.22234367873E+02  0.70084797028E+02  0.00000000000E+00 0.  1.
         11    1    1    2    0    0  0.11443630137E+02 -0.16024569191E+02  0.78016465000E+02  0.80463111421E+02  0.00000000000E+00 0. -1.
</event>
<event>
 7    1  0.2855090E-009  0.1143962E+03  0.7561462E-02  0.1252639E+00
         -1   -1    0    0    0  501 -0.00000000000E+00  0.00000000000E+00  0.71069285380E+02  0.71069285380E+02  0.00000000000E+00 0.  1.
          1   -1    0    0  501    0  0.00000000000E+00 -0.00000000000E+00 -0.30543400317E+03  0.30543400317E+03  0.00000000000E+00 0. -1.
         25    2    1    2    0    0 -0.20911708521E+02  0.10315624081E+03 -0.15227183301E+03  0.22341298461E+03  0.12509252973E+03 0.  0.
          5    1    3    3  502    0 -0.42768588161E+02  0.82902981057E+02 -0.30886705003E+02  0.98354040829E+02  0.41800000000E+01 0.  1.
         -5    1    3    3    0  502  0.21856879640E+02  0.20253259750E+02 -0.12138512801E+03  0.12505894378E+03  0.41800000000E+01 0.  1.
        -11    1    1    2    0    0  0.11471063765E+02 -0.65880075055E+02 -0.51445560580E+01  0.67068890330E+02  0.00000000000E+00 0.  1.
         11    1    1    2    0    0  0.94406447563E+01 -0.37276165753E+02 -0.76948328723E+02  0.86021413612E+02  0.00000000000E+00 0. -1.
</event>
<event>
 7    1  0.2855090E-009  0.1064245E+03  0.7561462E-02  0.1267338E+00
         -2   -1    0    0    0  501 -0.00000000000E+00  0.00000000000E+00  0.13476688160E+02  0.13476688160E+02  0.00000000000E+00 0.  1.
          2   -1    0    0  501    0  0.00000000000E+00 -0.00000000000E+00 -0.89596752919E+03  0.89596752919E+03  0.00000000000E+00 0. -1.
         25    2    1    2    0    0  0.75096197548E+01  0.17109386137E+02 -0.53720454269E+03  0.55189153087E+03  0.12508563338E+03 0.  0.
          5    1    3    3  502    0  0.22161818654E+02 -0.50799468260E+02 -0.19998421722E+03  0.20756418698E+03  0.41800000000E+01 0. -1.
         -5    1    3    3    0  502 -0.14652198900E+02  0.67908854397E+02 -0.33722032547E+03  0.34432734388E+03  0.41800000000E+01 0. -1.
        -11    1    1    2    0    0 -0.35200057073E+02 -0.38880138161E+02 -0.14502573543E+03  0.15421794026E+03  0.00000000000E+00 0.  1.
         11    1    1    2    0    0  0.27690437318E+02  0.21770752024E+02 -0.20026056291E+03  0.20333474622E+03  0.00000000000E+00 0. -1.
</event>
<event>
 7    1  0.2855090E-009  0.9236532E+02  0.7561462E-02  0.1297223E+00
          2   -1    0    0  501    0  0.00000000000E+00  0.00000000000E+00  0.27655325798E+03  0.27655325798E+03  0.00000000000E+00 0. -1.
         -2   -1    0    0    0  501 -0.00000000000E+00 -0.00000000000E+00 -0.53553351452E+02  0.53553351452E+02  0.00000000000E+00 0.  1.
         25    2    1    2    0    0 -0.37701360565E+02  0.37699840539E+02  0.15442666141E+03  0.20575727471E+03  0.12508313946E+03 0.  0.
          5    1    3    3  502    0 -0.29557810804E+02  0.54938056826E+02  0.16977834709E+03  0.18092543715E+03  0.41800000000E+01 0.  1.
         -5    1    3    3    0  502 -0.81435497615E+01 -0.17238216287E+02 -0.15351685679E+02  0.24831837561E+02  0.41800000000E+01 0.  1.
        -11    1    1    2    0    0 -0.26879184782E+02  0.18782433289E+01  0.10553421792E+02  0.28937744972E+02  0.00000000000E+00 0.  1.
         11    1    1    2    0    0  0.64580545347E+02 -0.39578083868E+02  0.58019823329E+02  0.95411589753E+02  0.00000000000E+00 0. -1.
</event>
<event>
 7    1  0.2855090E-009  0.9765074E+02  0.7561462E-02  0.1285315E+00
          1   -1    0    0  501    0  0.00000000000E+00  0.00000000000E+00  0.57951241205E+03  0.57951241205E+03  0.00000000000E+00 0. -1.
         -1   -1    0    0    0  501 -0.00000000000E+00 -0.00000000000E+00 -0.33921752154E+02  0.33921752154E+02  0.00000000000E+00 0.  1.
         25    2    1    2    0    0  0.45643346974E+02  0.26243453081E+02  0.45637206195E+03  0.47612771182E+03  0.12510038002E+03 0.  0.
          5    1    3    3  502    0 -0.30981420241E+02 -0.18802391755E+02  0.62846519886E+02  0.72667295241E+02  0.41800000000E+01 0. -1.
         -5    1    3    3    0  502  0.76624767215E+02  0.45045844836E+02  0.39352554207E+03  0.40346041658E+03  0.41800000000E+01 0. -1.
        -11    1    1    2    0    0 -0.15595182659E+02 -0.35185952031E+02 -0.42491983737E+01  0.38721010179E+02  0.00000000000E+00 0.  1.
         11    1    1    2    0    0 -0.30048164314E+02  0.89424989492E+01  0.93467796317E+02  0.98585442203E+02  0.00000000000E+00 0. -1.
</event>
<event>
 7    1  0.2855090E-009  0.2064504E+03  0.7561462E-02  0.1144408E+00
         -2   -1    0    0    0  501 -0.00000000000E+00  0.00000000000E+00  0.12026701003E+03  0.12026701003E+03  0.00000000000E+00 0.  1.
          2   -1    0    0  501    0  0.00000000000E+00 -0.00000000000E+00 -0.38716419688E+03  0.38716419688E+03  0.00000000000E+00 0. -1.
         25    2    1    2    0    0  0.18036002166E+03  0.38786050635E+02 -0.10782243244E+03  0.24760111653E+03  0.12508613365E+03 0.  0.
          5    1    3    3  502    0 -0.45752118144E+01  0.21745577715E+02 -0.46958511464E+02  0.52118872898E+02  0.41800000000E+01 0.  1.
         -5    1    3    3    0  502  0.18493523348E+03  0.17040472921E+02 -0.60863920972E+02  0.19548224363E+03  0.41800000000E+01 0.  1.
        -11    1    1    2    0    0 -0.12873769350E+03 -0.67597214865E+02 -0.12393655013E+03  0.19105770239E+03  0.00000000000E+00 0. -1.
         11    1    1    2    0    0 -0.51622328169E+02  0.28811164229E+02 -0.35138204289E+02  0.68772387995E+02  0.00000000000E+00 0.  1.
</event>
<event>
 7    1  0.2855090E-009  0.1667482E+03  0.7561462E-02  0.1181282E+00
         -1   -1    0    0    0  501 -0.00000000000E+00  0.00000000000E+00  0.21808455950E+03  0.21808455950E+03  0.00000000000E+00 0.  1.
          1   -1    0    0  501    0  0.00000000000E+00 -0.00000000000E+00 -0.15782876579E+03  0.15782876579E+03  0.00000000000E+00 0. -1.
         25    2    1    2    0    0 -0.13397163260E+03  0.43768793691E+02 -0.39279126396E+02  0.19249667323E+03  0.12509202129E+03 0.  0.
          5    1    3    3  502    0  0.22948477433E+02  0.14916388517E+02 -0.13569316878E+02  0.30833910285E+02  0.41800000000E+01 0. -1.
         -5    1    3    3    0  502 -0.15692011003E+03  0.28852405174E+02 -0.25709809518E+02  0.16166276294E+03  0.41800000000E+01 0. -1.
        -11    1    1    2    0    0  0.17307346660E+02  0.73851302001E+01 -0.40290600886E+01  0.19243641071E+02  0.00000000000E+00 0. -1.
         11    1    1    2    0    0  0.11666428594E+03 -0.51153923892E+02  0.10356398020E+03  0.16417301099E+03  0.00000000000E+00 0.  1.
</event>
<event>
 7    1  0.2855090E-009  0.1127675E+03  0.7561462E-02  0.1255529E+00
         -2   -1    0    0    0  501 -0.00000000000E+00  0.00000000000E+00  0.22229867340E+02  0.22229867340E+02  0.00000000000E+00 0.  1.
          2   -1    0    0  501    0  0.00000000000E+00 -0.00000000000E+00 -0.82290386509E+03  0.82290386509E+03  0.00000000000E+00 0. -1.
         25    2    1    2    0    0 -0.35255008682E+02 -0.89284027313E+02 -0.45095613705E+03  0.47772461602E+03  0.12507924705E+03 0.  0.
          5    1    3    3  502    0 -0.22866090705E+02 -0.20663196294E+00 -0.63544817109E+01  0.24098809903E+02  0.41800000000E+01 0.  1.
         -5    1    3    3    0  502 -0.12388917977E+02 -0.89077395350E+02 -0.44460165534E+03  0.45362580612E+03  0.41800000000E+01 0.  1.
        -11    1    1    2    0    0 -0.13411042049E+02  0.43200191580E+02 -0.12637567239E+03  0.13422713278E+03  0.00000000000E+00 0.  1.
         11    1    1    2    0    0  0.48666050731E+02  0.46083835733E+02 -0.22334218831E+03  0.23318198363E+03  0.00000000000E+00 0. -1.
</event>
<event>
 7    1  0.2855090E-009  0.9440354E+02  0.7561462E-02  0.1292525E+00
         -2   -1    0    0    0  501 -0.00000000000E+00  0.00000000000E+00  0.31808540808E+03  0.31808540808E+03  0.00000000000E+00 0.  1.
          2   -1    0    0  501    0  0.00000000000E+00 -0.00000000000E+00 -0.40257516335E+02  0.40257516335E+02  0.00000000000E+00 0. -1.
         25    2    1    2    0    0 -0.24971737525E+02  0.22970809122E+02  0.14462930411E+03  0.19420784571E+03  0.12509119066E+03 0.  0.
          5    1    3    3  502    0  0.18921454756E+02 -0.25411814586E+02  0.12013945264E+03  0.12431710361E+03  0.41800000000E+01 0. -1.
         -5    1    3    3    0  502 -0.43893192281E+02  0.48382623708E+02  0.24489851470E+02  0.69890742094E+02  0.41800000000E+01 0. -1.
        -11    1    1    2    0    0  0.20175236050E+02  0.31119814920E+02  0.30720009884E+02  0.48158094206E+02  0.00000000000E+00 0. -1.
         11    1    1    2    0    0  0.47965014750E+01 -0.54090624042E+02  0.10247857775E+03  0.11597698450E+03  0.00000000000E+00 0.  1.
</event>
<event>
 7    1  0.2855090E-009  0.1153118E+03  0.7561462E-02  0.1251038E+00
         -2   -1    0    0    0  501 -0.00000000000E+00  0.00000000000E+00  0.58386921872E+02  0.58386921872E+02  0.00000000000E+00 0.  1.
          2   -1    0    0  501    0  0.00000000000E+00 -0.00000000000E+00 -0.30176100679E+03  0.30176100679E+03  0.00000000000E+00 0. -1.
         25    2    1    2    0    0 -0.58093938551E+00  0.76203972061E+02 -0.14755702169E+03  0.20791303122E+03  0.12508945221E+03 0.  0.
          5    1    3    3  502    0  0.25399403770E+02 -0.28547137937E+02 -0.40591873635E+02  0.55903858556E+02  0.41800000000E+01 0.  1.
         -5    1    3    3    0  502 -0.25980343156E+02  0.10475111000E+03 -0.10696514805E+03  0.15200917266E+03  0.41800000000E+01 0.  1.
        -11    1    1    2    0    0 -0.17436183707E+02 -0.31954217389E+02  0.86021975577E+01  0.37404415702E+02  0.00000000000E+00 0.  1.
         11    1    1    2    0    0  0.18017123092E+02 -0.44249754672E+02 -0.10441926078E+03  0.11483048174E+03  0.00000000000E+00 0. -1.
</event>
<event>
 7    1  0.2855090E-009  0.2223276E+03  0.7561462E-02  0.1132160E+00
          1   -1    0    0  501    0  0.00000000000E+00  0.00000000000E+00  0.54340235261E+03  0.54340235261E+03  0.00000000000E+00 0. -1.
         -1   -1    0    0    0  501 -0.00000000000E+00 -0.00000000000E+00 -0.11414176786E+03  0.11414176786E+03  0.00000000000E+00 0.  1.
         25    2    1    2    0    0 -0.98979375053E+02  0.17540409981E+03  0.91203135401E+02  0.25402743357E+03  0.12509360569E+03 0.  0.
          5    1    3    3  502    0 -0.46098931215E+02  0.16408204291E+03  0.10207572678E+03  0.19870821488E+03  0.41800000000E+01 0. -1.
         -5    1    3    3    0  502 -0.52880443838E+02  0.11322056894E+02 -0.10872591375E+02  0.55319218686E+02  0.41800000000E+01 0. -1.
        -11    1    1    2    0    0  0.63622000495E+02 -0.30096645838E+02  0.97125606657E+02  0.11994561479E+03  0.00000000000E+00 0.  1.
         11    1    1    2    0    0  0.35357374558E+02 -0.14530745397E+03  0.24093184270E+03  0.28357107211E+03  0.00000000000E+00 0. -1.
</event>
<event>
 7    1  0.3571660E-009  0.1068348E+03  0.7561462E-02  0.1266546E+00
         -2   -1    0    0    0  501 -0.00000000000E+00  0.00000000000E+00  0.10943481837E+03  0.10943481837E+03  0.00000000000E+00 0.  1.
          2   -1    0    0  501    0  0.00000000000E+00 -0.00000000000E+00 -0.21840481493E+03  0.21840481493E+03  0.00000000000E+00 0. -1.
         25    2    1    2    0    0 -0.17952903641E+02  0.83503908632E+02 -0.13075744622E+03  0.20009421590E+03  0.12507987843E+03 0.  0.
          5    1    3    3  502    0  0.31473993693E+02  0.32247679152E+02  0.61983429474E+01  0.45677313241E+02  0.41800000000E+01 0. -1.
         -5    1    3    3    0  502 -0.49426897334E+02  0.51256229480E+02 -0.13695578917E+03  0.15441690266E+03  0.41800000000E+01 0. -1.
        -11    1    1    2    0    0 -0.70135528601E+01 -0.66525692774E+02  0.52230108822E+02  0.84869558678E+02  0.00000000000E+00 0.  1.
         11    1    1    2    0    0  0.24966456501E+02 -0.16978215858E+02 -0.30442659168E+02  0.42875858722E+02  0.00000000000E+00 0. -1.
</event>
<event>
 7    1  0.2855090E-009  0.8324925E+02  0.7561462E-02  0.1320075E+00
          2   -1    0    0  501    0  0.00000000000E+00  0.00000000000E+00  0.15650450536E+03  0.15650450536E+03  0.00000000000E+00 0. -1.
         -2   -1    0    0    0  501 -0.00000000000E+00 -0.00000000000E+00 -0.10117241098E+03  0.10117241098E+03  0.00000000000E+00 0.  1.
         25    2    1    2    0    0 -0.51460035974E+02  0.10661026018E+02 -0.57386533980E+01  0.13580206265E+03  0.12508986889E+03 0.  0.
          5    1    3    3  502    0 -0.63927829744E+02 -0.21181951202E+02  0.40076153721E+02  0.78479379263E+02  0.41800000000E+01 0. -1.
         -5    1    3    3    0  502  0.12467793770E+02  0.31842977220E+02 -0.45814807119E+02  0.57322683391E+02  0.41800000000E+01 0. -1.
        -11    1    1    2    0    0  0.46996550636E+02 -0.22364180208E+02 -0.71308117832E+01  0.52532664169E+02  0.00000000000E+00 0.  1.
         11    1    1    2    0    0  0.44634853381E+01  0.11703154191E+02  0.68201559561E+02  0.69342189509E+02  0.00000000000E+00 0. -1.
</event>
<event>
 7    1  0.2855090E-009  0.9522421E+02  0.7561462E-02  0.1290672E+00
          1   -1    0    0  501    0  0.00000000000E+00  0.00000000000E+00  0.47832257209E+02  0.47832257209E+02  0.00000000000E+00 0.  1.
         -1   -1    0    0    0  501 -0.00000000000E+00 -0.00000000000E+00 -0.45477791326E+03  0.45477791326E+03  0.00000000000E+00 0. -1.
         25    2    1    2    0    0 -0.24052790005E+02  0.51908224382E+02 -0.34799300733E+03  0.37419199232E+03  0.12509002159E+03 0.  0.
          5    1    3    3  502    0 -0.58832583676E+02  0.44894746675E+02 -0.32091574431E+03  0.32936484106E+03  0.41800000000E+01 0. -1.
         -5    1    3    3    0  502  0.34779793671E+02  0.70134777068E+01 -0.27077263018E+02  0.44827151258E+02  0.41800000000E+01 0. -1.
        -11    1    1    2    0    0  0.23081074004E+02  0.50550416598E+01  0.20068832090E+02  0.31000765230E+02  0.00000000000E+00 0.  1.
         11    1    1    2    0    0  0.97171600050E+00 -0.56963266042E+02 -0.79021480813E+02  0.97417412920E+02  0.00000000000E+00 0. -1.
</event>
<event>
 7    1  0.2855090E-009  0.6268676E+02  0.7561462E-02  0.1386890E+00
          1   -1    0    0  501    0  0.00000000000E+00  0.00000000000E+00  0.30966259128E+03  0.30966259128E+03  0.00000000000E+00 0. -1.
         -1   -1    0    0    0  501 -0.00000000000E+00 -0.00000000000E+00 -0.64764051072E+02  0.64764051072E+02  0.00000000000E+00 0.  1.
         25    2    1    2    0    0  0.12356592757E+02  0.64911887606E+01  0.23954910469E+03  0.27060354497E+03  0.12509070339E+03 0.  0.
          5    1    3    3  502    0  0.56372095933E+01 -0.23898187797E+02 -0.38359620395E+01  0.25200962615E+02  0.41800000000E+01 0. -1.
         -5    1    3    3    0  502  0.67193831639E+01  0.30389376558E+02  0.24338506673E+03  0.24540258235E+03  0.41800000000E+01 0. -1.
        -11    1    1    2    0    0 -0.18869028009E+02 -0.35031211870E+02 -0.35664384203E+02  0.53433831265E+02  0.00000000000E+00 0.  1.
         11    1    1    2    0    0  0.65124352521E+01  0.28540023109E+02  0.41013819714E+02  0.50389266114E+02  0.00000000000E+00 0. -1.
</event>
<event>
 7    1  0.2855090E-009  0.7860896E+02  0.7561462E-02  0.1333046E+00
         -1   -1    0    0    0  501 -0.00000000000E+00  0.00000000000E+00  0.30937253834E+02  0.30937253834E+02  0.00000000000E+00 0.  1.
          1   -1    0    0  501    0  0.00000000000E+00 -0.00000000000E+00 -0.42569358931E+03  0.42569358931E+03  0.00000000000E+00 0. -1.
         25    2    1    2    0    0 -0.15105340579E+02 -0.12890761123E+02 -0.32711720044E+03  0.35078142339E+03  0.12509037186E+03 0.  0.
          5    1    3    3  502    0  0.35990828197E+02 -0.32944322578E+02 -0.25706241539E+03  0.26168535670E+03  0.41800000000E+01 0. -1.
         -5    1    3    3    0  502 -0.51096168776E+02  0.20053561455E+02 -0.70054785057E+02  0.89096066692E+02  0.41800000000E+01 0. -1.
        -11    1    1    2    0    0  0.10839889476E+02  0.31912662081E+02  0.17747094920E+01  0.33750122944E+02  0.00000000000E+00 0.  1.
         11    1    1    2    0    0  0.42654511027E+01 -0.19021900958E+02 -0.69413844528E+02  0.72099296816E+02  0.00000000000E+00 0. -1.
</event>
<event>
 7    1  0.2855090E-009  0.1200227E+03  0.7561462E-02  0.1243060E+00
         -1   -1    0    0    0  501 -0.00000000000E+00  0.00000000000E+00  0.25259160727E+02  0.25259160727E+02  0.00000000000E+00 0.  1.
          1   -1    0    0  501    0  0.00000000000E+00 -0.00000000000E+00 -0.58127555001E+03  0.58127555001E+03  0.00000000000E+00 0. -1.
         25    2    1    2    0    0 -0.39921364858E+02 -0.38318449278E+02 -0.32594643115E+03  0.35348324932E+03  0.12508921873E+03 0.  0.
          5    1    3    3  502    0  0.40659108434E+02  0.80151931599E+01 -0.13115798718E+03  0.13761284977E+03  0.41800000000E+01 0. -1.
         -5    1    3    3    0  502 -0.80580473292E+02 -0.46333642438E+02 -0.19478844397E+03  0.21587039955E+03  0.41800000000E+01 0. -1.
        -11    1    1    2    0    0 -0.23602795334E+02  0.34379244309E+02 -0.93628599992E+02  0.10249555660E+03  0.00000000000E+00 0.  1.
         11    1    1    2    0    0  0.63524160192E+02  0.39392049697E+01 -0.13644135813E+03  0.15055590481E+03  0.00000000000E+00 0. -1.
</event>
<event>
 7    1  0.2855090E-009  0.1020756E+03  0.7561462E-02  0.1275991E+00
          1   -1    0    0  501    0  0.00000000000E+00  0.00000000000E+00  0.76103820068E+02  0.76103820068E+02  0.00000000000E+00 0. -1.
         -1   -1    0    0    0  501 -0.00000000000E+00 -0.00000000000E+00 -0.21693159168E+03  0.21693159168E+03  0.00000000000E+00 0.  1.
         25    2    1    2    0    0 -0.80469519862E+01 -0.32916320277E+01 -0.13803031477E+01  0.12539754633E+03  0.12508817334E+03 0.  0.
          5    1    3    3  502    0 -0.21022976170E+02 -0.60944045606E+02 -0.10519742889E+02  0.65454408655E+02  0.41800000000E+01 0. -1.
         -5    1    3    3    0  502  0.12976024183E+02  0.57652413579E+02  0.91394397408E+01  0.59943137671E+02  0.41800000000E+01 0. -1.
        -11    1    1    2    0    0  0.29736966329E+02 -0.28914148428E+02 -0.29123224994E+02  0.50680147788E+02  0.00000000000E+00 0. -1.
         11    1    1    2    0    0 -0.21690014343E+02  0.32205780456E+02 -0.11032424347E+03  0.11695771764E+03  0.00000000000E+00 0.  1.
</event>
<event>
 7    1  0.2855090E-009  0.5193421E+02  0.7561462E-02  0.1435180E+00
          2   -1    0    0  501    0  0.00000000000E+00  0.00000000000E+00  0.21509633677E+03  0.21509633677E+03  0.00000000000E+00 0. -1.
         -2   -1    0    0    0  501 -0.00000000000E+00 -0.00000000000E+00 -0.87242902444E+02  0.87242902444E+02  0.00000000000E+00 0.  1.
         25    2    1    2    0    0  0.26281896733E+02  0.34289544106E+02 -0.85722438616E+01  0.13261523352E+03  0.12508719305E+03 0.  0.
          5    1    3    3  502    0 -0.29851206552E+01  0.23997873738E+02  0.55842212594E+02  0.60996999899E+02  0.41800000000E+01 0.  1.
         -5    1    3    3    0  502  0.29267017388E+02  0.10291670367E+02 -0.64414456456E+02  0.71618233616E+02  0.41800000000E+01 0.  1.
        -11    1    1    2    0    0 -0.16000931585E+02 -0.46680703072E+01 -0.10361044797E+02  0.19625797851E+02  0.00000000000E+00 0.  1.
         11    1    1    2    0    0 -0.10280965147E+02 -0.29621473798E+02  0.14678672298E+03  0.15009820784E+03  0.00000000000E+00 0. -1.
</event>
<event>
 7    1  0.2855090E-009  0.1162273E+03  0.7561462E-02  0.1249454E+00
         -2   -1    0    0    0  501 -0.00000000000E+00  0.00000000000E+00  0.65889988659E+02  0.65889988659E+02  0.00000000000E+00 0.  1.
          2   -1    0    0  501    0  0.00000000000E+00 -0.00000000000E+00 -0.21390820457E+03  0.21390820457E+03  0.00000000000E+00 0. -1.
         25    2    1    2    0    0 -0.14945191367E+02 -0.42605271118E+02 -0.62955103436E+02  0.14713720047E+03  0.12508973916E+03 0.  0.
          5    1    3    3  502    0 -0.35339610051E+02  0.35963798281E+02 -0.33522477690E+02  0.60691941276E+02  0.41800000000E+01 0. -1.
         -5    1    3    3    0  502  0.20394418684E+02 -0.78569069399E+02 -0.29432625746E+02  0.86445259199E+02  0.41800000000E+01 0. -1.
        -11    1    1    2    0    0 -0.37813515713E+02  0.23214220480E+02 -0.27476960770E+02  0.52189514045E+02  0.00000000000E+00 0.  1.
         11    1    1    2    0    0  0.52758707080E+02  0.19391050638E+02 -0.57586151706E+02  0.80471478711E+02  0.00000000000E+00 0. -1.
</event>
<event>
 7    1  0.2855090E-009  0.1058939E+03  0.7561462E-02  0.1268368E+00
          2   -1    0    0  501    0  0.00000000000E+00  0.00000000000E+00  0.86331012694E+03  0.86331012694E+03  0.00000000000E+00 0. -1.
         -2   -1    0    0    0  501 -0.00000000000E+00 -0.00000000000E+00 -0.38320829153E+02  0.38320829153E+02  0.00000000000E+00 0.  1.
         25    2    1    2    0    0 -0.61800985980E+02 -0.71817525571E+02  0.70717443219E+03  0.72437650897E+03  0.12509408602E+03 0.  0.
          5    1    3    3  502    0 -0.12841985440E+02  0.40341833000E+01  0.29801471385E+01  0.14406418774E+02  0.41800000000E+01 0. -1.
         -5    1    3    3    0  502 -0.48959000540E+02 -0.75851708871E+02  0.70419428505E+03  0.70997009019E+03  0.41800000000E+01 0. -1.
        -11    1    1    2    0    0 -0.88606253653E+01  0.56316479277E+01 -0.11591100886E+02  0.15639046006E+02  0.00000000000E+00 0.  1.
         11    1    1    2    0    0  0.70661611345E+02  0.66185877644E+02  0.12940596648E+03  0.16161540112E+03  0.00000000000E+00 0. -1.
</event>
<event>
 7    1  0.2855090E-009  0.1272282E+03  0.7561462E-02  0.1231628E+00
          2   -1    0    0  501    0  0.00000000000E+00  0.00000000000E+00  0.37680373993E+03  0.37680373993E+03  0.00000000000E+00 0.  1.
         -2   -1    0    0    0  501 -0.00000000000E+00 -0.00000000000E+00 -0.64608778845E+02  0.64608778845E+02  0.00000000000E+00 0. -1.
         25    2    1    2    0    0 -0.93168701367E+02 -0.53220971180E+02  0.20881839875E+03  0.26601818566E+03  0.12509065815E+03 0.  0.
          5    1    3    3  502    0 -0.91944408278E+02 -0.26411893499E+02  0.56255296679E+02  0.11105626113E+03  0.41800000000E+01 0. -1.
         -5    1    3    3    0  502 -0.12242930889E+01 -0.26809077681E+02  0.15256310207E+03  0.15496192453E+03  0.41800000000E+01 0. -1.
        -11    1    1    2    0    0  0.29628454348E+02 -0.19116690564E+02  0.60439057628E+02  0.69972657889E+02  0.00000000000E+00 0. -1.
         11    1    1    2    0    0  0.63540247019E+02  0.72337661744E+02  0.42937504713E+02  0.10542167523E+03  0.00000000000E+00 0.  1.
</event>
<event>
 7    1  0.2855090E-009  0.1000556E+03  0.7561462E-02  0.1280179E+00
          1   -1    0    0  501    0  0.00000000000E+00  0.00000000000E+00  0.63748605479E+02  0.63748605479E+02  0.00000000000E+00 0. -1.
         -1   -1    0    0    0  501 -0.00000000000E+00 -0.00000000000E+00 -0.23582897694E+03  0.23582897694E+03  0.00000000000E+00 0.  1.
         25    2    1    2    0    0  0.41043775702E+01 -0.50522666841E+02 -0.10633225117E+03  0.17182327908E+03  0.12508919144E+03 0.  0.
          5    1    3    3  502    0  0.13311609040E+02  0.18691693381E+02 -0.98746714553E+02  0.10146410386E+03  0.41800000000E+01 0. -1.
         -5    1    3    3    0  502 -0.92072314694E+01 -0.69214360222E+02 -0.75855366131E+01  0.70359175223E+02  0.41800000000E+01 0. -1.
        -11    1    1    2    0    0 -0.48957415950E+02  0.30796316197E+02 -0.21413040920E+02  0.61674630029E+02  0.00000000000E+00 0.  1.
         11    1    1    2    0    0  0.44853038380E+02  0.19726350644E+02 -0.44335079380E+02  0.66079673314E+02  0.00000000000E+00 0. -1.
</event>
<event>
 7    1  0.2855090E-009  0.9799269E+02  0.7561462E-02  0.1284575E+00
          1   -1    0    0  501    0  0.00000000000E+00  0.00000000000E+00  0.62638772643E+03  0.62638772643E+03  0.00000000000E+00 0. -1.
         -1   -1    0    0    0  501 -0.00000000000E+00 -0.00000000000E+00 -0.39814201839E+02  0.39814201839E+02  0.00000000000E+00 0.  1.
         25    2    1    2    0    0  0.32001763623E+02  0.92715260395E+01  0.54806692747E+03  0.56314286615E+03  0.12506980707E+03 0.  0.
          5    1    3    3  502    0  0.26297232729E+02  0.52602553397E+02  0.12961675830E+03  0.14239574960E+03  0.41800000000E+01 0.  1.
         -5    1    3    3    0  502  0.57045308946E+01 -0.43331027357E+02  0.41845016917E+03  0.42074711655E+03  0.41800000000E+01 0.  1.
        -11    1    1    2    0    0 -0.10719681029E+02 -0.47864933953E+02  0.86031487450E+01  0.49799373812E+02  0.00000000000E+00 0. -1.
         11    1    1    2    0    0 -0.21282082595E+02  0.38593407914E+02  0.29903448381E+02  0.53259688312E+02  0.00000000000E+00 0.  1.
</event>
<event>
 7    1  0.2855090E-009  0.1103374E+03  0.7561462E-02  0.1259946E+00
         -1   -1    0    0    0  501 -0.00000000000E+00  0.00000000000E+00  0.83239285593E+02  0.83239285593E+02  0.00000000000E+00 0.  1.
          1   -1    0    0  501    0  0.00000000000E+00 -0.00000000000E+00 -0.22193493964E+03  0.22193493964E+03  0.00000000000E+00 0. -1.
         25    2    1    2    0    0 -0.64590949777E+02  0.26638704295E+02 -0.20910966305E+02  0.14479325465E+03  0.12508479812E+03 0.  0.
          5    1    3    3  502    0 -0.79705522342E+02  0.63496595174E+02 -0.64056803886E+01  0.10219243138E+03  0.41800000000E+01 0. -1.
         -5    1    3    3    0  502  0.15114572566E+02 -0.36857890879E+02 -0.14505285916E+02  0.42600823272E+02  0.41800000000E+01 0. -1.
        -11    1    1    2    0    0  0.12815248341E+02  0.90982833122E+01 -0.90419956636E+02  0.91775693445E+02  0.00000000000E+00 0. -1.
         11    1    1    2    0    0  0.51775701436E+02 -0.35736987607E+02 -0.27364731111E+02  0.68605277138E+02  0.00000000000E+00 0.  1.
</event>
<event>
 7    1  0.2855090E-009  0.1198249E+03  0.7561462E-02  0.1243386E+00
         -3   -1    0    0    0  501 -0.00000000000E+00  0.00000000000E+00  0.16678756986E+03  0.16678756986E+03  0.00000000000E+00 0.  1.
          3   -1    0    0  501    0  0.00000000000E+00 -0.00000000000E+00 -0.17306172523E+03  0.17306172523E+03  0.00000000000E+00 0. -1.
         25    2    1    2    0    0 -0.29117711789E+02  0.88049367187E+02  0.83764711695E+02  0.17681957406E+03  0.12509237644E+03 0.  0.
          5    1    3    3  502    0 -0.47994108264E+02  0.53912104833E+02  0.10854257183E+03  0.13041821872E+03  0.41800000000E+01 0. -1.
         -5    1    3    3    0  502  0.18876396476E+02  0.34137262355E+02 -0.24777860131E+02  0.46401355342E+02  0.41800000000E+01 0. -1.
        -11    1    1    2    0    0  0.55977853327E+01  0.18331509311E+02  0.34401805419E+01  0.19473424876E+02  0.00000000000E+00 0.  1.
         11    1    1    2    0    0  0.23519926456E+02 -0.10638087650E+03 -0.93479047606E+02  0.14355629616E+03  0.00000000000E+00 0. -1.
</event>
<event>
 7    1  0.2855090E-009  0.8397220E+02  0.7561462E-02  0.1318142E+00
         -1   -1    0    0    0  501 -0.00000000000E+00  0.00000000000E+00  0.13320558233E+03  0.13320558233E+03  0.00000000000E+00 0. -1.
          1   -1    0    0  501    0  0.00000000000E+00 -0.00000000000E+00 -0.12880339281E+03  0.12880339281E+03  0.00000000000E+00 0.  1.
         25    2    1    2    0    0 -0.53973376430E+02  0.15235748245E+02  0.53569786712E+02  0.14717893350E+03  0.12508662211E+03 0.  0.
          5    1    3    3  502    0 -0.46586562834E+02  0.27403447396E+02 -0.30234698376E+02  0.62071460042E+02  0.41800000000E+01 0.  1.
         -5    1    3    3    0  502 -0.73868135955E+01 -0.12167699150E+02  0.83804485087E+02  0.85107473458E+02  0.41800000000E+01 0.  1.
        -11    1    1    2    0    0 -0.41996807271E+01 -0.36664761423E+02 -0.35789753619E+02  0.51408642391E+02  0.00000000000E+00 0.  1.
         11    1    1    2    0    0  0.58173057157E+02  0.21429013177E+02 -0.13377843574E+02  0.63421399255E+02  0.00000000000E+00 0. -1.
</event>
<event>
 7    1  0.2855090E-009  0.9625438E+02  0.7561462E-02  0.1288376E+00
         -2   -1    0    0    0  501 -0.00000000000E+00  0.00000000000E+00  0.58297675857E+02  0.58297675857E+02  0.00000000000E+00 0.  1.
          2   -1    0    0  501    0  0.00000000000E+00 -0.00000000000E+00 -0.20836682327E+03  0.20836682327E+03  0.00000000000E+00 0. -1.
         25    2    1    2    0    0  0.19308155618E+02  0.62948200924E+01 -0.98080493479E+02  0.16025393260E+03  0.12509640314E+03 0.  0.
          5    1    3    3  502    0 -0.35676796624E+02  0.41260722982E+02 -0.19480985968E+02  0.58071182979E+02  0.41800000000E+01 0. -1.
         -5    1    3    3    0  502  0.54984952242E+02 -0.34965902890E+02 -0.78599507512E+02  0.10218274962E+03  0.41800000000E+01 0. -1.
        -11    1    1    2    0    0  0.23518028752E+02 -0.16191635498E+02  0.10144730671E+02  0.30301523013E+02  0.00000000000E+00 0.  1.
         11    1    1    2    0    0 -0.42826184371E+02  0.98968154055E+01 -0.62133384600E+02  0.76109043515E+02  0.00000000000E+00 0. -1.
</event>
<event>
 7    1  0.2855090E-009  0.8880809E+02  0.7561462E-02  0.1305764E+00
         -1   -1    0    0    0  501 -0.00000000000E+00  0.00000000000E+00  0.30234767540E+03  0.30234767540E+03  0.00000000000E+00 0.  1.
          1   -1    0    0  501    0  0.00000000000E+00 -0.00000000000E+00 -0.61985043895E+02  0.61985043895E+02  0.00000000000E+00 0. -1.
         25    2    1    2    0    0  0.21602878661E+02  0.39388055982E+02  0.37935894768E+02  0.13822807378E+03  0.12509902057E+03 0.  0.
          5    1    3    3  502    0  0.23887492117E+02 -0.29445695039E+02 -0.24366016352E+02  0.45264073931E+02  0.41800000000E+01 0.  1.
         -5    1    3    3    0  502 -0.22846134561E+01  0.68833751021E+02  0.62301911120E+02  0.92963999846E+02  0.41800000000E+01 0.  1.
        -11    1    1    2    0    0  0.67639668347E+01 -0.41479836301E+02  0.30720429086E+02  0.52058359849E+02  0.00000000000E+00 0. -1.
         11    1    1    2    0    0 -0.28366845496E+02  0.20917803191E+01  0.17170630765E+03  0.17404628567E+03  0.00000000000E+00 0.  1.
</event>
<event>
 7    1  0.3036055E-009  0.1657149E+03  0.7561462E-02  0.1182392E+00
         -2   -1    0    0    0  501 -0.00000000000E+00  0.00000000000E+00  0.21906619424E+02  0.21906619424E+02  0.00000000000E+00 0.  1.
          2   -1    0    0  501    0  0.00000000000E+00 -0.00000000000E+00 -0.19913105737E+04  0.19913105737E+04  0.00000000000E+00 0. -1.
         25    2    1    2    0    0 -0.27713942076E+01  0.16056388603E+03 -0.13980574768E+04  0.14127988539E+04  0.12508977235E+03 0.  0.
          5    1    3    3  502    0 -0.16187108853E+02  0.53802360780E+02 -0.96177902707E+03  0.96342777925E+03  0.41800000000E+01 0.  1.
         -5    1    3    3    0  502  0.13415714646E+02  0.10676152525E+03 -0.43627844971E+03  0.44937107468E+03  0.41800000000E+01 0.  1.
        -11    1    1    2    0    0  0.13917151535E+02 -0.11856225222E+02 -0.12827490977E+02  0.22333869081E+02  0.00000000000E+00 0.  1.
         11    1    1    2    0    0 -0.11145757328E+02 -0.14870766081E+03 -0.55851898652E+03  0.57808447012E+03  0.00000000000E+00 0. -1.
</event>
<event>
 7    1  0.2855090E-009  0.9750323E+02  0.7561462E-02  0.1285636E+00
         -1   -1    0    0    0  501 -0.00000000000E+00  0.00000000000E+00  0.61162486862E+02  0.61162486862E+02  0.00000000000E+00 0.  1.
          1   -1    0    0  501    0  0.00000000000E+00 -0.00000000000E+00 -0.43070802934E+03  0.43070802934E+03  0.00000000000E+00 0. -1.
         25    2    1    2    0    0  0.40724625202E+02  0.31095085342E+02 -0.34509956431E+02  0.13951326164E+03  0.12509042190E+03 0.  0.
          5    1    3    3  502    0  0.39205897481E+02 -0.17733662957E+02  0.34185127089E+02  0.55115156838E+02  0.41800000000E+01 0. -1.
         -5    1    3    3    0  502  0.15187277204E+01  0.48828748299E+02 -0.68695083520E+02  0.84398104802E+02  0.41800000000E+01 0. -1.
        -11    1    1    2    0    0 -0.13239771429E+02  0.31614389573E+02 -0.61742148199E+02  0.70617660962E+02  0.00000000000E+00 0.  1.
         11    1    1    2    0    0 -0.27484853773E+02 -0.62709474915E+02 -0.27329343784E+03  0.28173959360E+03  0.00000000000E+00 0. -1.
</event>
<event>
 7    1  0.2855090E-009  0.1466408E+03  0.7561462E-02  0.1204663E+00
          2   -1    0    0  501    0  0.00000000000E+00  0.00000000000E+00  0.39344074735E+03  0.39344074735E+03  0.00000000000E+00 0. -1.
         -2   -1    0    0    0  501 -0.00000000000E+00 -0.00000000000E+00 -0.69753872993E+02  0.69753872993E+02  0.00000000000E+00 0.  1.
         25    2    1    2    0    0 -0.54277305543E+02 -0.82746355774E+02  0.65938433608E+02  0.17258868107E+03  0.12508393388E+03 0.  0.
          5    1    3    3  502    0  0.17888510355E+02 -0.85196328187E+02  0.34921977358E+02  0.93890521576E+02  0.41800000000E+01 0. -1.
         -5    1    3    3    0  502 -0.72165815898E+02  0.24499724130E+01  0.31016456250E+02  0.78698159492E+02  0.41800000000E+01 0. -1.
        -11    1    1    2    0    0  0.19843406146E+02  0.95151564871E+02  0.19724392930E+03  0.21989258448E+03  0.00000000000E+00 0.  1.
         11    1    1    2    0    0  0.34433899397E+02 -0.12405209097E+02  0.60504511458E+02  0.70713354801E+02  0.00000000000E+00 0. -1.
</event>
<event>
 7    1  0.2855090E-009  0.7703040E+02  0.7561462E-02  0.1337696E+00
          2   -1    0    0  501    0  0.00000000000E+00  0.00000000000E+00  0.64108016611E+03  0.64108016611E+03  0.00000000000E+00 0.  1.
         -2   -1    0    0    0  501 -0.00000000000E+00 -0.00000000000E+00 -0.19102743898E+02  0.19102743898E+02  0.00000000000E+00 0. -1.
         25    2    1    2    0    0  0.20366288703E+02  0.38450831504E+01  0.40297947231E+03  0.42245586457E+03  0.12508769732E+03 0.  0.
          5    1    3    3  502    0  0.41415433936E+02  0.10783736410E+02  0.39848338163E+02  0.58624991202E+02  0.41800000000E+01 0.  1.
         -5    1    3    3    0  502 -0.21049145233E+02 -0.69386532598E+01  0.36313113415E+03  0.36383087336E+03  0.41800000000E+01 0.  1.
        -11    1    1    2    0    0  0.32363312344E+02 -0.13203684734E+02  0.12221955982E+03  0.12711940088E+03  0.00000000000E+00 0.  1.
         11    1    1    2    0    0 -0.52729601047E+02  0.93586015838E+01  0.96778390082E+02  0.11060764457E+03  0.00000000000E+00 0. -1.
</event>
<event>
 7    1  0.2855090E-009  0.6801735E+02  0.7561462E-02  0.1366968E+00
         -1   -1    0    0    0  501 -0.00000000000E+00  0.00000000000E+00  0.41758754104E+02  0.41758754104E+02  0.00000000000E+00 0.  1.
          1   -1    0    0  501    0  0.00000000000E+00 -0.00000000000E+00 -0.31089666097E+03  0.31089666097E+03  0.00000000000E+00 0. -1.
         25    2    1    2    0    0  0.21744656898E+02 -0.17721631591E+02 -0.18203772358E+03  0.22264542305E+03  0.12508543188E+03 0.  0.
          5    1    3    3  502    0 -0.14182020763E+02  0.22760738263E+02 -0.16280630822E+03  0.16505316511E+03  0.41800000000E+01 0.  1.
         -5    1    3    3    0  502  0.35926677661E+02 -0.40482369854E+02 -0.19231415361E+02  0.57592257931E+02  0.41800000000E+01 0.  1.
        -11    1    1    2    0    0  0.48062096897E+00  0.29465635650E+02  0.88913587588E+01  0.30781665669E+02  0.00000000000E+00 0.  1.
         11    1    1    2    0    0 -0.22225277867E+02 -0.11744004058E+02 -0.95991542051E+02  0.99228326364E+02  0.00000000000E+00 0. -1.
</event>
<event>
 7    1  0.2855090E-009  0.1100164E+03  0.7561462E-02  0.1260539E+00
         -2   -1    0    0    0  501 -0.00000000000E+00  0.00000000000E+00  0.26500541455E+02  0.26500541455E+02  0.00000000000E+00 0. -1.
          2   -1    0    0  501    0  0.00000000000E+00 -0.00000000000E+00 -0.77964813613E+03  0.77964813613E+03  0.00000000000E+00 0.  1.
         25    2    1    2    0    0  0.31452779786E+02  0.48256121123E+02 -0.62181900213E+03  0.63688643413E+03  0.12509007951E+03 0.  0.
          5    1    3    3  502    0 -0.27951831439E+02 -0.28137443845E+02 -0.14879804823E+03  0.15404983669E+03  0.41800000000E+01 0. -1.
         -5    1    3    3    0  502  0.59404611226E+02  0.76393564969E+02 -0.47302095390E+03  0.48283659744E+03  0.41800000000E+01 0. -1.
        -11    1    1    2    0    0 -0.15307281609E+02  0.12912265508E+02 -0.93351467634E+02  0.95475316078E+02  0.00000000000E+00 0.  1.
         11    1    1    2    0    0 -0.16145498177E+02 -0.61168386632E+02 -0.37977124912E+02  0.73786927373E+02  0.00000000000E+00 0. -1.
</event>
<event>
 7    1  0.2855090E-009  0.1204134E+03  0.7561462E-02  0.1242417E+00
          1   -1    0    0  501    0  0.00000000000E+00  0.00000000000E+00  0.13500438192E+03  0.13500438192E+03  0.00000000000E+00 0. -1.
         -1   -1    0    0    0  501 -0.00000000000E+00 -0.00000000000E+00 -0.22659132469E+03  0.22659132469E+03  0.00000000000E+00 0.  1.
         25    2    1    2    0    0 -0.27985361884E+02 -0.52558773174E+02  0.79234242253E+02  0.15959566958E+03  0.12508839868E+03 0.  0.
          5    1    3    3  502    0  0.43935062012E+02  0.42666134987E+01  0.40314266554E+02  0.59926673130E+02  0.41800000000E+01 0. -1.
         -5    1    3    3    0  502 -0.71920423896E+02 -0.56825386673E+02  0.38919975700E+02  0.99668996445E+02  0.41800000000E+01 0. -1.
        -11    1    1    2    0    0  0.27077888535E+02  0.76305519857E+02 -0.10910179795E+03  0.13586370642E+03  0.00000000000E+00 0. -1.
         11    1    1    2    0    0  0.90747334964E+00 -0.23746746683E+02 -0.61719387077E+02  0.66136330614E+02  0.00000000000E+00 0.  1.
</event>
<event>
 7    1  0.2869993E-009  0.6357004E+02  0.7561462E-02  0.1383433E+00
         -2   -1    0    0    0  501 -0.00000000000E+00  0.00000000000E+00  0.48877413987E+02  0.48877413987E+02  0.00000000000E+00 0.  1.
          2   -1    0    0  501    0  0.00000000000E+00 -0.00000000000E+00 -0.29027420428E+03  0.29027420428E+03  0.00000000000E+00 0. -1.
         25    2    1    2    0    0  0.31495676283E+02  0.17285769696E+02 -0.18432923171E+03  0.22564484148E+03  0.12509018092E+03 0.  0.
          5    1    3    3  502    0 -0.18419456465E+02  0.33618392495E+01  0.11946647906E+02  0.22600290613E+02  0.41800000000E+01 0. -1.
         -5    1    3    3    0  502  0.49915132748E+02  0.13923930446E+02 -0.19627587962E+03  0.20304455087E+03  0.41800000000E+01 0. -1.
        -11    1    1    2    0    0 -0.32032063187E+02  0.60719052997E+01  0.16341997747E+02  0.36468918223E+02  0.00000000000E+00 0.  1.
         11    1    1    2    0    0  0.53638690369E+00 -0.23357674996E+02 -0.73409556324E+02  0.77037858562E+02  0.00000000000E+00 0. -1.
</event>
<event>
 7    1  0.2855090E-009  0.1229348E+03  0.7561462E-02  0.1238333E+00
         -2   -1    0    0    0  501 -0.00000000000E+00  0.00000000000E+00  0.13713604485E+02  0.13713604485E+02  0.00000000000E+00 0.  1.
          2   -1    0    0  501    0  0.00000000000E+00 -0.00000000000E+00 -0.12228334266E+04  0.12228334266E+04  0.00000000000E+00 0. -1.
         25    2    1    2    0    0  0.14619967872E+01  0.68765241953E+02 -0.75192784302E+03  0.76535940970E+03  0.12509495981E+03 0.  0.
          5    1    3    3  502    0  0.21526744987E+02 -0.26883095750E+02 -0.34932312846E+03  0.35104162440E+03  0.41800000000E+01 0.  1.
         -5    1    3    3    0  502 -0.20064748200E+02  0.95648337703E+02 -0.40260471456E+03  0.41431778530E+03  0.41800000000E+01 0.  1.
        -11    1    1    2    0    0 -0.20674298192E+02  0.16188556958E+02 -0.86330707001E+02  0.90235729916E+02  0.00000000000E+00 0.  1.
         11    1    1    2    0    0  0.19212301404E+02 -0.84953798912E+02 -0.37086127205E+03  0.38095189143E+03  0.00000000000E+00 0. -1.
</event>
<event>
 7    1  0.2855090E-009  0.6278567E+02  0.7561462E-02  0.1386500E+00
         -2   -1    0    0    0  501 -0.00000000000E+00  0.00000000000E+00  0.47655073315E+02  0.47655073315E+02  0.00000000000E+00 0.  1.
          2   -1    0    0  501    0  0.00000000000E+00 -0.00000000000E+00 -0.26047527989E+03  0.26047527989E+03  0.00000000000E+00 0. -1.
         25    2    1    2    0    0  0.26438609006E+02  0.65609039542E+01 -0.14555023058E+03  0.19383851213E+03  0.12508578518E+03 0.  0.
          5    1    3    3  502    0  0.24146740547E+02  0.49050674280E+02 -0.14045656897E+03  0.15077981925E+03  0.41800000000E+01 0. -1.
         -5    1    3    3    0  502  0.22918684589E+01 -0.42489770326E+02 -0.50936616060E+01  0.43058692873E+02  0.41800000000E+01 0. -1.
        -11    1    1    2    0    0 -0.10246012292E+02  0.63113562232E+00  0.21471304651E+02  0.23799076106E+02  0.00000000000E+00 0.  1.
         11    1    1    2    0    0 -0.16192596714E+02 -0.71920395765E+01 -0.88741280646E+02  0.90492764972E+02  0.00000000000E+00 0. -1.
</event>
<event>
 7    1  0.2855090E-009  0.1087976E+03  0.7561462E-02  0.1262813E+00
          1   -1    0    0  501    0  0.00000000000E+00  0.00000000000E+00  0.25589258400E+02  0.25589258400E+02  0.00000000000E+00 0. -1.
         -1   -1    0    0    0  501 -0.00000000000E+00 -0.00000000000E+00 -0.97070580108E+03  0.97070580108E+03  0.00000000000E+00 0.  1.
         25    2    1    2    0    0  0.81420337582E+02  0.28813207931E+02 -0.74532319992E+03  0.76066676467E+03  0.12509109562E+03 0.  0.
          5    1    3    3  502    0  0.61244460586E+01 -0.10211029188E+02 -0.23240487958E+01  0.12831506513E+02  0.41800000000E+01 0.  1.
         -5    1    3    3    0  502  0.75295891523E+02  0.39024237118E+02 -0.74299915113E+03  0.74783525815E+03  0.41800000000E+01 0.  1.
        -11    1    1    2    0    0  0.17058488027E+02 -0.10099652058E+02 -0.13208661418E+02  0.23821497054E+02  0.00000000000E+00 0.  1.
         11    1    1    2    0    0 -0.98478825608E+02 -0.18713555873E+02 -0.18658468134E+03  0.21180679776E+03  0.00000000000E+00 0. -1.
</event>
<event>
 7    1  0.2855090E-009  0.1023958E+03  0.7561462E-02  0.1275337E+00
          2   -1    0    0  501    0  0.00000000000E+00  0.00000000000E+00  0.17985318091E+03  0.17985318091E+03  0.00000000000E+00 0. -1.
         -2   -1    0    0    0  501 -0.00000000000E+00 -0.00000000000E+00 -0.66999048831E+02  0.66999048831E+02  0.00000000000E+00 0.  1.
         25    2    1    2    0    0 -0.16587953322E+02 -0.60983567062E+01  0.73535658210E+02  0.14617654710E+03  0.12509092590E+03 0.  0.
          5    1    3    3  502    0 -0.56765642968E+02 -0.37823506790E+02  0.18296611414E+02  0.70747397667E+02  0.41800000000E+01 0. -1.
         -5    1    3    3    0  502  0.40177689646E+02  0.31725150084E+02  0.55239046796E+02  0.75429149432E+02  0.41800000000E+01 0. -1.
        -11    1    1    2    0    0  0.47527630634E+02 -0.12296761088E+02  0.41963681631E+02  0.64583562792E+02  0.00000000000E+00 0. -1.
         11    1    1    2    0    0 -0.30939677312E+02  0.18395117794E+02 -0.26452077654E+01  0.36092119846E+02  0.00000000000E+00 0.  1.
</event>
<event>
 7    1  0.2855090E-009  0.1324348E+03  0.7561462E-02  0.1223887E+00
          2   -1    0    0  501    0  0.00000000000E+00  0.00000000000E+00  0.16146363680E+03  0.16146363680E+03  0.00000000000E+00 0. -1.
         -2   -1    0    0    0  501 -0.00000000000E+00 -0.00000000000E+00 -0.13693028188E+03  0.13693028188E+03  0.00000000000E+00 0.  1.
         25    2    1    2    0    0  0.34817716728E+02  0.94271999587E+02  0.19745130835E+00  0.16045921607E+03  0.12509051815E+03 0.  0.
          5    1    3    3  502    0 -0.31479973414E+02  0.87785999519E+02 -0.51858810990E+01  0.93497252369E+02  0.41800000000E+01 0.  1.
         -5    1    3    3    0  502  0.66297690142E+02  0.64860000681E+01  0.53833324073E+01  0.66961963703E+02  0.41800000000E+01 0.  1.
        -11    1    1    2    0    0 -0.12248938994E+02 -0.59619793922E+01 -0.29203983752E+02  0.32225058133E+02  0.00000000000E+00 0.  1.
         11    1    1    2    0    0 -0.22568777735E+02 -0.88310020195E+02  0.53539887362E+02  0.10570964447E+03  0.00000000000E+00 0. -1.
</event>
<event>
 7    1  0.2855090E-009  0.1519818E+03  0.7561462E-02  0.1198059E+00
         -2   -1    0    0    0  501 -0.00000000000E+00  0.00000000000E+00  0.76458898299E+02  0.76458898299E+02  0.00000000000E+00 0.  1.
          2   -1    0    0  501    0  0.00000000000E+00 -0.00000000000E+00 -0.40589358485E+03  0.40589358485E+03  0.00000000000E+00 0. -1.
         25    2    1    2    0    0 -0.12696126879E+03 -0.48190000846E+02 -0.14009670721E+03  0.23174949717E+03  0.12505719538E+03 0.  0.
          5    1    3    3  502    0 -0.12742469751E+03 -0.70021834336E+02 -0.14860417036E+03  0.20794418161E+03  0.41800000000E+01 0.  1.
         -5    1    3    3    0  502  0.46342872352E+00  0.21831833490E+02  0.85074631462E+01  0.23805315560E+02  0.41800000000E+01 0.  1.
        -11    1    1    2    0    0  0.78115818682E+02  0.35518183944E+02 -0.17982711887E+03  0.19925213976E+03  0.00000000000E+00 0.  1.
         11    1    1    2    0    0  0.48845450104E+02  0.12671816902E+02 -0.95108604636E+01  0.51350846208E+02  0.00000000000E+00 0. -1.
</event>
<event>
 7    1  0.2855090E-009  0.1022699E+03  0.7561462E-02  0.1275594E+00
         -2   -1    0    0    0  501 -0.00000000000E+00  0.00000000000E+00  0.85068964673E+02  0.85068964673E+02  0.00000000000E+00 0.  1.
          2   -1    0    0  501    0  0.00000000000E+00 -0.00000000000E+00 -0.19634834833E+03  0.19634834833E+03  0.00000000000E+00 0. -1.
         25    2    1    2    0    0  0.41151214407E+02  0.96198937166E+01 -0.12345166598E+03  0.18072712405E+03  0.12504405115E+03 0.  0.
          5    1    3    3  502    0  0.22440554883E+02  0.53683656041E+02 -0.11892332159E+03  0.13246034217E+03  0.41800000000E+01 0. -1.
         -5    1    3    3    0  502  0.18710659524E+02 -0.44063762324E+02 -0.45283443972E+01  0.48266781879E+02  0.41800000000E+01 0. -1.
        -11    1    1    2    0    0 -0.60187772998E+02 -0.32487933022E+02 -0.37760301912E+00  0.68397195809E+02  0.00000000000E+00 0.  1.
         11    1    1    2    0    0  0.19036558591E+02  0.22868039305E+02  0.12549885343E+02  0.32292993153E+02  0.00000000000E+00 0. -1.
</event>
<event>
 7    1  0.2855090E-009  0.1073132E+03  0.7561462E-02  0.1265628E+00
          1   -1    0    0  501    0  0.00000000000E+00  0.00000000000E+00  0.42885556822E+03  0.42885556822E+03  0.00000000000E+00 0. -1.
         -1   -1    0    0    0  501 -0.00000000000E+00 -0.00000000000E+00 -0.39657211657E+02  0.39657211657E+02  0.00000000000E+00 0.  1.
         25    2    1    2    0    0  0.68582473209E+02 -0.20012717445E+01  0.20968679392E+03  0.25361979822E+03  0.12508752850E+03 0.  0.
          5    1    3    3  502    0  0.10217192539E+03  0.17249324319E+02  0.15463115595E+03  0.18618514527E+03  0.41800000000E+01 0. -1.
         -5    1    3    3    0  502 -0.33589452184E+02 -0.19250596063E+02  0.55055637966E+02  0.67434652951E+02  0.41800000000E+01 0. -1.
        -11    1    1    2    0    0 -0.37092800454E+02  0.11934193511E+02  0.17759381322E+03  0.18181821503E+03  0.00000000000E+00 0. -1.
         11    1    1    2    0    0 -0.31489672755E+02 -0.99329217662E+01  0.19177494268E+01  0.33074766634E+02  0.00000000000E+00 0.  1.
</event>
<event>
 7    1  0.2855090E-009  0.1326816E+03  0.7561462E-02  0.1223530E+00
          2   -1    0    0  501    0  0.00000000000E+00  0.00000000000E+00  0.11350635451E+04  0.11350635451E+04  0.00000000000E+00 0.  1.
         -2   -1    0    0    0  501 -0.00000000000E+00 -0.00000000000E+00 -0.18634905101E+02  0.18634905101E+02  0.00000000000E+00 0. -1.
         25    2    1    2    0    0 -0.88747296305E+02 -0.93859030503E+01  0.72822766078E+03  0.74426302113E+03  0.12509093061E+03 0.  0.
          5    1    3    3  502    0 -0.26934766540E+02 -0.58247472261E+02  0.19761251470E+03  0.20781344528E+03  0.41800000000E+01 0. -1.
         -5    1    3    3    0  502 -0.61812529765E+02  0.48861569211E+02  0.53061514608E+03  0.53644957585E+03  0.41800000000E+01 0. -1.
        -11    1    1    2    0    0  0.35125441125E+02  0.45515029126E+02  0.25460302889E+03  0.26101363338E+03  0.00000000000E+00 0.  1.
         11    1    1    2    0    0  0.53621855180E+02 -0.36129126076E+02  0.13359795036E+03  0.14842179572E+03  0.00000000000E+00 0. -1.
</event>
<event>
 7    1  0.2855090E-009  0.1705452E+03  0.7561462E-02  0.1177280E+00
          3   -1    0    0  501    0  0.00000000000E+00  0.00000000000E+00  0.84718055137E+02  0.84718055137E+02  0.00000000000E+00 0. -1.
         -3   -1    0    0    0  501 -0.00000000000E+00 -0.00000000000E+00 -0.51532057706E+03  0.51532057706E+03  0.00000000000E+00 0.  1.
         25    2    1    2    0    0  0.41467210298E+02 -0.13749149834E+03 -0.37610003733E+03  0.42157178655E+03  0.12509233186E+03 0.  0.
          5    1    3    3  502    0  0.36045987752E+00 -0.14250868193E+03 -0.23900677612E+03  0.27829941751E+03  0.41800000000E+01 0.  1.
         -5    1    3    3    0  502  0.41106750420E+02  0.50171835826E+01 -0.13709326121E+03  0.14327236904E+03  0.41800000000E+01 0.  1.
        -11    1    1    2    0    0  0.60350266518E+01  0.88330530550E+02 -0.64279382781E+02  0.10940997772E+03  0.00000000000E+00 0.  1.
         11    1    1    2    0    0 -0.47502236950E+02  0.49160967794E+02  0.97768981877E+01  0.69056867927E+02  0.00000000000E+00 0. -1.
</event>
<event>
 7    1  0.2855090E-009  0.9735839E+02  0.7561462E-02  0.1285951E+00
          3   -1    0    0  501    0  0.00000000000E+00  0.00000000000E+00  0.65571539065E+02  0.65571539065E+02  0.00000000000E+00 0. -1.
         -3   -1    0    0    0  501 -0.00000000000E+00 -0.00000000000E+00 -0.25589999225E+03  0.25589999225E+03  0.00000000000E+00 0.  1.
         25    2    1    2    0    0  0.14810708766E+02 -0.11951318341E+02 -0.18763298139E+03  0.22630721611E+03  0.12508648711E+03 0.  0.
          5    1    3    3  502    0 -0.15046027251E+02 -0.58459964524E+02 -0.14255331639E+03  0.15486403973E+03  0.41800000000E+01 0. -1.
         -5    1    3    3    0  502  0.29856736017E+02  0.46508646182E+02 -0.45079664996E+02  0.71443176381E+02  0.41800000000E+01 0. -1.
        -11    1    1    2    0    0 -0.19142086554E+02 -0.30554772004E+02  0.25332634005E+02  0.44065359587E+02  0.00000000000E+00 0. -1.
         11    1    1    2    0    0  0.43313777880E+01  0.42506090346E+02 -0.28028105803E+02  0.51098955615E+02  0.00000000000E+00 0.  1.
</event>
<event>
 7    1  0.2855090E-009  0.8213082E+02  0.7561462E-02  0.1323111E+00
         -2   -1    0    0    0  501 -0.00000000000E+00  0.00000000000E+00  0.13762254171E+03  0.13762254171E+03  0.00000000000E+00 0.  1.
          2   -1    0    0  501    0  0.00000000000E+00 -0.00000000000E+00 -0.13428655668E+03  0.13428655668E+03  0.00000000000E+00 0. -1.
         25    2    1    2    0    0 -0.61390361201E+02  0.35623093222E+02 -0.39260446036E+02  0.14908634300E+03  0.12509026272E+03 0.  0.
          5    1    3    3  502    0 -0.45368900576E+02  0.99777233086E+01 -0.83319459794E+02  0.95485584683E+02  0.41800000000E+01 0.  1.
         -5    1    3    3    0  502 -0.16021460625E+02  0.25645369914E+02  0.44059013758E+02  0.53600758315E+02  0.41800000000E+01 0.  1.
        -11    1    1    2    0    0  0.55548767662E+01 -0.30525722197E+02  0.57032901292E+02  0.64926329030E+02  0.00000000000E+00 0.  1.
         11    1    1    2    0    0  0.55835484435E+02 -0.50973710259E+01 -0.14436470225E+02  0.57896426366E+02  0.00000000000E+00 0. -1.
</event>
<event>
 7    1  0.3476517E-009  0.1181110E+03  0.7561462E-02  0.1246246E+00
          2   -1    0    0  501    0  0.00000000000E+00  0.00000000000E+00  0.95017859466E+02  0.95017859466E+02  0.00000000000E+00 0.  1.
         -2   -1    0    0    0  501 -0.00000000000E+00 -0.00000000000E+00 -0.19719908528E+03  0.19719908528E+03  0.00000000000E+00 0. -1.
         25    2    1    2    0    0  0.68910881710E+02 -0.44895992616E+02 -0.70378969070E+02  0.16542048425E+03  0.12508548097E+03 0.  0.
          5    1    3    3  502    0  0.24721305984E+02 -0.84385608028E+02 -0.55869235875E+02  0.10426369324E+03  0.41800000000E+01 0.  1.
         -5    1    3    3    0  502  0.44189575726E+02  0.39489615412E+02 -0.14509733195E+02  0.61156791002E+02  0.41800000000E+01 0.  1.
        -11    1    1    2    0    0 -0.56027716168E+02  0.17816906083E+02 -0.61156452345E+02  0.84833123159E+02  0.00000000000E+00 0. -1.
         11    1    1    2    0    0 -0.12883165542E+02  0.27079086533E+02  0.29354195598E+02  0.41963337344E+02  0.00000000000E+00 0.  1.
</event>
<event>
 7    1  0.2855090E-009  0.1015497E+03  0.7561462E-02  0.1277071E+00
         -1   -1    0    0    0  501 -0.00000000000E+00  0.00000000000E+00  0.88973329993E+02  0.88973329993E+02  0.00000000000E+00 0.  1.
          1   -1    0    0  501    0  0.00000000000E+00 -0.00000000000E+00 -0.22515838285E+03  0.22515838285E+03  0.00000000000E+00 0. -1.
         25    2    1    2    0    0  0.24501635159E+02  0.39547094111E+01 -0.17886293402E+03  0.21967146522E+03  0.12509050169E+03 0.  0.
          5    1    3    3  502    0 -0.89240884500E+01  0.56487529734E+02 -0.12384896456E+03  0.13647900495E+03  0.41800000000E+01 0. -1.
         -5    1    3    3    0  502  0.33425723609E+02 -0.52532820323E+02 -0.55013969462E+02  0.83192460271E+02  0.41800000000E+01 0. -1.
        -11    1    1    2    0    0  0.10399301272E+02 -0.35080221941E+02  0.11895481914E+02  0.38474276190E+02  0.00000000000E+00 0. -1.
         11    1    1    2    0    0 -0.34900936431E+02  0.31125512530E+02  0.30782399248E+02  0.55985971435E+02  0.00000000000E+00 0.  1.
</event>
<event>
 7    1  0.2855090E-009  0.7213433E+02  0.7561462E-02  0.1352982E+00
         -1   -1    0    0    0  501 -0.00000000000E+00  0.00000000000E+00  0.22415406084E+03  0.22415406084E+03  0.00000000000E+00 0.  1.
          1   -1    0    0  501    0  0.00000000000E+00 -0.00000000000E+00 -0.63947037323E+02  0.63947037323E+02  0.00000000000E+00 0. -1.
         25    2    1    2    0    0  0.79183608393E+01  0.34640163760E+02  0.13596202620E+03  0.18813841291E+03  0.12509096075E+03 0.  0.
          5    1    3    3  502    0  0.25994817795E+02  0.15658195915E+02  0.15336781961E+03  0.15639715516E+03  0.41800000000E+01 0. -1.
         -5    1    3    3    0  502 -0.18076456955E+02  0.18981967845E+02 -0.17405793409E+02  0.31741257750E+02  0.41800000000E+01 0. -1.
        -11    1    1    2    0    0  0.27928100571E+02 -0.42058251522E+02  0.35439426939E+02  0.61683290317E+02  0.00000000000E+00 0.  1.
         11    1    1    2    0    0 -0.35846461410E+02  0.74180877620E+01 -0.11194429624E+02  0.38279394931E+02  0.00000000000E+00 0. -1.
</event>
<event>
 7    1  0.2855090E-009  0.9767632E+02  0.7561462E-02  0.1285260E+00
          4   -1    0    0  501    0  0.00000000000E+00  0.00000000000E+00  0.10179447575E+03  0.10179447575E+03  0.00000000000E+00 0. -1.
         -4   -1    0    0    0  501 -0.00000000000E+00 -0.00000000000E+00 -0.16289082087E+03  0.16289082087E+03  0.00000000000E+00 0.  1.
         25    2    1    2    0    0 -0.39968838739E+02  0.22219912050E+02  0.75681887345E+00  0.13319233854E+03  0.12509353984E+03 0.  0.
          5    1    3    3  502    0 -0.75502117918E+02 -0.14035687772E+02 -0.17867422522E+02  0.78957504576E+02  0.41800000000E+01 0.  1.
         -5    1    3    3    0  502  0.35533279178E+02  0.36255599822E+02  0.18624241395E+02  0.54234833965E+02  0.41800000000E+01 0.  1.
        -11    1    1    2    0    0  0.50586223435E+02 -0.10448052214E+02 -0.87344109934E+02  0.10147473250E+03  0.00000000000E+00 0.  1.
         11    1    1    2    0    0 -0.10617384696E+02 -0.11771859836E+02  0.25490945943E+02  0.30018225578E+02  0.00000000000E+00 0. -1.
</event>
<event>
 7    1  0.2855090E-009  0.9316125E+02  0.7561462E-02  0.1295372E+00
         -1   -1    0    0    0  501 -0.00000000000E+00  0.00000000000E+00  0.25388390535E+02  0.25388390535E+02  0.00000000000E+00 0.  1.
          1   -1    0    0  501    0  0.00000000000E+00 -0.00000000000E+00 -0.49986692556E+03  0.49986692556E+03  0.00000000000E+00 0. -1.
         25    2    1    2    0    0 -0.14453484828E+02  0.55696149532E+01 -0.33021494753E+03  0.35345702619E+03  0.12510009575E+03 0.  0.
          5    1    3    3  502    0  0.19473801091E+02  0.47076159634E+02 -0.64210467243E+02  0.82072225743E+02  0.41800000000E+01 0. -1.
         -5    1    3    3    0  502 -0.33927285918E+02 -0.41506544681E+02 -0.26600448029E+03  0.27138480045E+03  0.41800000000E+01 0. -1.
        -11    1    1    2    0    0  0.74815900232E+01  0.37279402332E+02 -0.26660391418E+02  0.46438179315E+02  0.00000000000E+00 0.  1.
         11    1    1    2    0    0  0.69718948043E+01 -0.42849017286E+02 -0.11760319608E+03  0.12536011059E+03  0.00000000000E+00 0. -1.
</event>
<event>
 7    1  0.2855090E-009  0.1207574E+03  0.7561462E-02  0.1241853E+00
         -1   -1    0    0    0  501 -0.00000000000E+00  0.00000000000E+00  0.44089196856E+02  0.44089196856E+02  0.00000000000E+00 0.  1.
          1   -1    0    0  501    0  0.00000000000E+00 -0.00000000000E+00 -0.44016604502E+03  0.44016604502E+03  0.00000000000E+00 0. -1.
         25    2    1    2    0    0 -0.19644437698E+02 -0.78677472665E+02 -0.15900639013E+03  0.21796094415E+03  0.12509153622E+03 0.  0.
          5    1    3    3  502    0 -0.86682267046E+01  0.27839206409E+02 -0.78746319054E+02  0.84075054161E+02  0.41800000000E+01 0. -1.
         -5    1    3    3    0  502 -0.10976210993E+02 -0.10651667907E+03 -0.80260071075E+02  0.13388588999E+03  0.41800000000E+01 0. -1.
        -11    1    1    2    0    0 -0.86537527855E+01  0.75979076648E+02 -0.97773540098E+02  0.12412643823E+03  0.00000000000E+00 0.  1.
         11    1    1    2    0    0  0.28298190483E+02  0.26983960176E+01 -0.13929691793E+03  0.14216785949E+03  0.00000000000E+00 0. -1.
</event>
<event>
 7    1  0.2855090E-009  0.1050696E+03  0.7561462E-02  0.1269983E+00
         -1   -1    0    0    0  501 -0.00000000000E+00  0.00000000000E+00  0.27074099696E+03  0.27074099696E+03  0.00000000000E+00 0.  1.
          1   -1    0    0  501    0  0.00000000000E+00 -0.00000000000E+00 -0.73513932315E+02  0.73513932315E+02  0.00000000000E+00 0. -1.
         25    2    1    2    0    0 -0.13830470388E+02 -0.31768215247E+02  0.21246061890E+03  0.24897093168E+03  0.12508600572E+03 0.  0.
          5    1    3    3  502    0 -0.46485236978E+02  0.23947607981E+02  0.43863645698E+02  0.68380238365E+02  0.41800000000E+01 0. -1.
         -5    1    3    3    0  502  0.32654766590E+02 -0.55715823228E+02  0.16859697320E+03  0.18059069332E+03  0.41800000000E+01 0. -1.
        -11    1    1    2    0    0 -0.36723287897E+02  0.11260201673E+02  0.80793954435E+00  0.38419328234E+02  0.00000000000E+00 0.  1.
         11    1    1    2    0    0  0.50553758285E+02  0.20508013574E+02 -0.16041493804E+02  0.56864669356E+02  0.00000000000E+00 0. -1.
</event>
<event>
 7    1  0.2855090E-009  0.1452487E+03  0.7561462E-02  0.1206436E+00
         -1   -1    0    0    0  501 -0.00000000000E+00  0.00000000000E+00  0.28578633229E+03  0.28578633229E+03  0.00000000000E+00 0.  1.
          1   -1    0    0  501    0  0.00000000000E+00 -0.00000000000E+00 -0.86836867541E+02  0.86836867541E+02  0.00000000000E+00 0. -1.
         25    2    1    2    0    0  0.10284300577E+03  0.43635350520E+02  0.93323063799E+02  0.19193143427E+03  0.12509098119E+03 0.  0.
          5    1    3    3  502    0  0.13410080442E+02  0.53144062072E+02 -0.89299768667E+01  0.55689662217E+02  0.41800000000E+01 0. -1.
         -5    1    3    3    0  502  0.89432925328E+02 -0.95087115515E+01  0.10225304067E+03  0.13624177206E+03  0.41800000000E+01 0. -1.
        -11    1    1    2    0    0 -0.78745071132E+02 -0.73089863703E+02  0.67846548944E+02  0.12706718147E+03  0.00000000000E+00 0. -1.
         11    1    1    2    0    0 -0.24097934638E+02  0.29454513183E+02  0.37779852010E+02  0.53624584087E+02  0.00000000000E+00 0.  1.
</event>
<event>
 7    1  0.2855090E-009  0.1984120E+03  0.7561462E-02  0.1151086E+00
         -2   -1    0    0    0  501 -0.00000000000E+00  0.00000000000E+00  0.60278060666E+02  0.60278060666E+02  0.00000000000E+00 0. -1.
          2   -1    0    0  501    0  0.00000000000E+00 -0.00000000000E+00 -0.71179091380E+03  0.71179091380E+03  0.00000000000E+00 0.  1.
         25    2    1    2    0    0  0.10975281657E+03  0.13430993663E+03 -0.28966644282E+03  0.36005811893E+03  0.12510140321E+03 0.  0.
          5    1    3    3  502    0  0.20697931398E+02  0.10978977672E+03 -0.21043759262E+03  0.23829320641E+03  0.41800000000E+01 0. -1.
         -5    1    3    3    0  502  0.89054885172E+02  0.24520159915E+02 -0.79228850203E+02  0.12176491252E+03  0.41800000000E+01 0. -1.
        -11    1    1    2    0    0  0.82597574352E+01 -0.41800803797E+02 -0.12117887315E+03  0.12845174226E+03  0.00000000000E+00 0. -1.
         11    1    1    2    0    0 -0.11801257401E+03 -0.92509132833E+02 -0.24066753716E+03  0.28355911328E+03  0.00000000000E+00 0.  1.
</event>
<event>
 7    1  0.2855090E-009  0.9794044E+02  0.7561462E-02  0.1284687E+00
          1   -1    0    0  501    0  0.00000000000E+00  0.00000000000E+00  0.29462794957E+02  0.29462794957E+02  0.00000000000E+00 0. -1.
         -1   -1    0    0    0  501 -0.00000000000E+00 -0.00000000000E+00 -0.47362557390E+03  0.47362557390E+03  0.00000000000E+00 0.  1.
         25    2    1    2    0    0  0.76421412532E+01  0.47122536790E+02 -0.24241064504E+03  0.27693544656E+03  0.12510549522E+03 0.  0.
          5    1    3    3  502    0  0.48893331467E+02  0.22610257804E+01 -0.19062083951E+03  0.19684879211E+03  0.41800000000E+01 0. -1.
         -5    1    3    3    0  502 -0.41251190214E+02  0.44861511010E+02 -0.51789805538E+02  0.80086654455E+02  0.41800000000E+01 0. -1.
        -11    1    1    2    0    0 -0.16727210187E+02  0.15252078910E+02 -0.12405331951E+03  0.12610175080E+03  0.00000000000E+00 0.  1.
         11    1    1    2    0    0  0.90850689341E+01 -0.62374615700E+02 -0.77698814384E+02  0.10005117150E+03  0.00000000000E+00 0. -1.
</event>
<event>
 7    1  0.2855090E-009  0.1256675E+03  0.7561462E-02  0.1234030E+00
         -2   -1    0    0    0  501 -0.00000000000E+00  0.00000000000E+00  0.57208293714E+02  0.57208293714E+02  0.00000000000E+00 0. -1.
          2   -1    0    0  501    0  0.00000000000E+00 -0.00000000000E+00 -0.35163170002E+03  0.35163170002E+03  0.00000000000E+00 0.  1.
         25    2    1    2    0    0  0.78222902880E+02 -0.17498302688E+02 -0.10465284511E+03  0.18172719695E+03  0.12509013945E+03 0.  0.
          5    1    3    3  502    0 -0.30068508115E+02 -0.22493875917E+02 -0.41810964856E+02  0.56353516449E+02  0.41800000000E+01 0.  1.
         -5    1    3    3    0  502  0.10829141099E+03  0.49955732286E+01 -0.62841880259E+02  0.12537368050E+03  0.41800000000E+01 0.  1.
        -11    1    1    2    0    0 -0.15404592399E+02  0.36349372794E+02 -0.13805929135E+03  0.14359298833E+03  0.00000000000E+00 0.  1.
         11    1    1    2    0    0 -0.62818310481E+02 -0.18851070105E+02 -0.51711269836E+02  0.83519808452E+02  0.00000000000E+00 0. -1.
</event>
<event>
 6    1  0.4121357E-009  0.1571783E+03  0.7561462E-02  0.1191920E+00
          3   -1    0    0  501    0  0.00000000000E+00  0.00000000000E+00  0.86747033250E+03  0.86747033250E+03  0.00000000000E+00 0. -1.
         -3   -1    0    0    0  501 -0.00000000000E+00 -0.00000000000E+00 -0.37226337891E+02  0.37226337891E+02  0.00000000000E+00 0.  1.
          5    1    1    2  502    0 -0.89431995460E+01 -0.11594307374E+03  0.12227592496E+03  0.16879470190E+03  0.41800000000E+01 0. -1.
         -5    1    1    2    0  502 -0.43856258163E+02 -0.96963418064E+00  0.15633340886E+03  0.16242511720E+03  0.41800000000E+01 0. -1.
        -11    1    1    2    0    0 -0.11941054783E+02  0.76898348093E+02  0.22448731982E+03  0.23759314277E+03  0.00000000000E+00 0.  1.
         11    1    1    2    0    0  0.64740512493E+02  0.40014359825E+02  0.32714734096E+03  0.33588370852E+03  0.00000000000E+00 0. -1.
</event>
<event>
 7    1  0.2855090E-009  0.1294638E+03  0.7561462E-02  0.1228253E+00
          1   -1    0    0  501    0  0.00000000000E+00  0.00000000000E+00  0.13701404972E+03  0.13701404972E+03  0.00000000000E+00 0. -1.
         -1   -1    0    0    0  501 -0.00000000000E+00 -0.00000000000E+00 -0.13760685548E+03  0.13760685548E+03  0.00000000000E+00 0.  1.
         25    2    1    2    0    0  0.13973833091E+02  0.82005401320E+02 -0.12450969523E+02  0.15074090144E+03  0.12509052269E+03 0.  0.
          5    1    3    3  502    0  0.52703597612E+02  0.93184041149E+02  0.34835295639E+01  0.10719394621E+03  0.41800000000E+01 0.  1.
         -5    1    3    3    0  502 -0.38729764522E+02 -0.11178639829E+02 -0.15934499087E+02  0.43546955226E+02  0.41800000000E+01 0.  1.
        -11    1    1    2    0    0  0.26421888708E+02 -0.91553283181E+01 -0.20334943039E+02  0.34575224480E+02  0.00000000000E+00 0.  1.
         11    1    1    2    0    0 -0.40395721798E+02 -0.72850073002E+02  0.32193106804E+02  0.89304779276E+02  0.00000000000E+00 0. -1.
</event>
<event>
 7    1  0.2855090E-009  0.2209197E+03  0.7561462E-02  0.1133199E+00
          2   -1    0    0  501    0  0.00000000000E+00  0.00000000000E+00  0.10933969465E+04  0.10933969465E+04  0.00000000000E+00 0.  1.
         -2   -1    0    0    0  501 -0.00000000000E+00 -0.00000000000E+00 -0.46669488090E+02  0.46669488090E+02  0.00000000000E+00 0. -1.
         25    2    1    2    0    0 -0.81033575166E+02  0.17477524628E+03  0.51246648159E+03  0.56158794031E+03  0.12508514270E+03 0.  0.
          5    1    3    3  502    0 -0.40604496336E+02 -0.75452038370E+01  0.71274879860E+02  0.82481732054E+02  0.41800000000E+01 0. -1.
         -5    1    3    3    0  502 -0.40429078830E+02  0.18232045011E+03  0.44119160173E+03  0.47910620825E+03  0.41800000000E+01 0. -1.
        -11    1    1    2    0    0  0.18266774552E+02 -0.14114912662E+03  0.27540849144E+03  0.31001062587E+03  0.00000000000E+00 0. -1.
         11    1    1    2    0    0  0.62766800614E+02 -0.33626119654E+02  0.25885248540E+03  0.26846786843E+03  0.00000000000E+00 0.  1.
</event>
<event>
 7    1  0.2855090E-009  0.1429380E+03  0.7561462E-02  0.1209429E+00
         -2   -1    0    0    0  501 -0.00000000000E+00  0.00000000000E+00  0.19776079629E+03  0.19776079629E+03  0.00000000000E+00 0.  1.
          2   -1    0    0  501    0  0.00000000000E+00 -0.00000000000E+00 -0.11616335732E+03  0.11616335732E+03  0.00000000000E+00 0. -1.
         25    2    1    2    0    0 -0.63994699982E+02  0.74312377496E+02  0.25780715015E+01  0.15897076467E+03  0.12508959386E+03 0.  0.
          5    1    3    3  502    0 -0.98019049208E+02  0.40985200334E+02 -0.16302337907E+02  0.10756746383E+03  0.41800000000E+01 0.  1.
         -5    1    3    3    0  502  0.34024349225E+02  0.33327177161E+02  0.18880409408E+02  0.51403300839E+02  0.41800000000E+01 0.  1.
        -11    1    1    2    0    0  0.96547857937E+01  0.20387392081E+02  0.51764479819E+01  0.23144248925E+02  0.00000000000E+00 0.  1.
         11    1    1    2    0    0  0.54339914189E+02 -0.94699769577E+02  0.73842919490E+02  0.13180914001E+03  0.00000000000E+00 0. -1.
</event>
<event>
 7    1  0.2855090E-009  0.1819125E+03  0.7561462E-02  0.1165965E+00
         -2   -1    0    0    0  501 -0.00000000000E+00  0.00000000000E+00  0.10673864201E+03  0.10673864201E+03  0.00000000000E+00 0.  1.
          2   -1    0    0  501    0  0.00000000000E+00 -0.00000000000E+00 -0.34099453226E+03  0.34099453226E+03  0.00000000000E+00 0. -1.
         25    2    1    2    0    0 -0.40081889844E+02 -0.14532757567E+03 -0.73800612456E+02  0.20932733574E+03  0.12507893886E+03 0.  0.
          5    1    3    3  502    0 -0.20648833017E+02 -0.16344652072E+03 -0.47027828040E+02  0.17137744440E+03  0.41800000000E+01 0. -1.
         -5    1    3    3    0  502 -0.19433056827E+02  0.18118945049E+02 -0.26772784416E+02  0.37949891340E+02  0.41800000000E+01 0. -1.
        -11    1    1    2    0    0 -0.19530630469E+01  0.12574028935E+03 -0.92398661195E+02  0.15605110513E+03  0.00000000000E+00 0.  1.
         11    1    1    2    0    0  0.42034952890E+02  0.19587286321E+02 -0.68056616607E+02  0.82354733403E+02  0.00000000000E+00 0. -1.
</event>
<event>
 7    1  0.2855090E-009  0.1887724E+03  0.7561462E-02  0.1159573E+00
         -2   -1    0    0    0  501 -0.00000000000E+00  0.00000000000E+00  0.85620403904E+02  0.85620403904E+02  0.00000000000E+00 0.  1.
          2   -1    0    0  501    0  0.00000000000E+00 -0.00000000000E+00 -0.47691519740E+03  0.47691519740E+03  0.00000000000E+00 0. -1.
         25    2    1    2    0    0 -0.37795336048E+02  0.16482299825E+03 -0.22315719937E+03  0.30666164596E+03  0.12508845387E+03 0.  0.
          5    1    3    3  502    0  0.42312884514E+02  0.78865239728E+02 -0.12323763236E+03  0.15236499816E+03  0.41800000000E+01 0. -1.
         -5    1    3    3    0  502 -0.80108220563E+02  0.85957758520E+02 -0.99919567007E+02  0.15429664780E+03  0.41800000000E+01 0. -1.
        -11    1    1    2    0    0  0.20412776116E+02 -0.12844410802E+03 -0.65536236503E+02  0.14563505282E+03  0.00000000000E+00 0.  1.
         11    1    1    2    0    0  0.17382559932E+02 -0.36378890224E+02 -0.10260135762E+03  0.11023890253E+03  0.00000000000E+00 0. -1.
</event>
<event>
 7    1  0.2855090E-009  0.1182864E+03  0.7561462E-02  0.1245951E+00
          2   -1    0    0  501    0  0.00000000000E+00  0.00000000000E+00  0.17245519285E+03  0.17245519285E+03  0.00000000000E+00 0. -1.
         -2   -1    0    0    0  501 -0.00000000000E+00 -0.00000000000E+00 -0.82752192737E+02  0.82752192737E+02  0.00000000000E+00 0.  1.
         25    2    1    2    0    0  0.46872347779E+02  0.13170195235E+02  0.36265001989E+02  0.13904378821E+03  0.12509018203E+03 0.  0.
          5    1    3    3  502    0  0.38144166019E+02 -0.53655319172E+02  0.25231908998E+02  0.70625719879E+02  0.41800000000E+01 0. -1.
         -5    1    3    3    0  502  0.87281817600E+01  0.66825514407E+02  0.11033092992E+02  0.68418068327E+02  0.41800000000E+01 0. -1.
        -11    1    1    2    0    0  0.22442179809E+01  0.34539111765E+02  0.16127926136E+02  0.38185033158E+02  0.00000000000E+00 0.  1.
         11    1    1    2    0    0 -0.49116565760E+02 -0.47709306999E+02  0.37310071986E+02  0.77978564222E+02  0.00000000000E+00 0. -1.
</event>
<event>
 7    1  0.2855090E-009  0.8256828E+02  0.7561462E-02  0.1321917E+00
         -1   -1    0    0    0  501 -0.00000000000E+00  0.00000000000E+00  0.24765513304E+03  0.24765513304E+03  0.00000000000E+00 0.  1.
          1   -1    0    0  501    0  0.00000000000E+00 -0.00000000000E+00 -0.57382900451E+02  0.57382900451E+02  0.00000000000E+00 0. -1.
         25    2    1    2    0    0 -0.17453244604E+02 -0.25204873730E+02  0.15463899475E+03  0.20124727036E+03  0.12508934296E+03 0.  0.
          5    1    3    3  502    0 -0.38757514663E+02 -0.24347516750E+02  0.88900870106E+00  0.45969655766E+02  0.41800000000E+01 0. -1.
         -5    1    3    3    0  502  0.21304270059E+02 -0.85735697927E+00  0.15374998605E+03  0.15527761460E+03  0.41800000000E+01 0. -1.
        -11    1    1    2    0    0 -0.23238832127E+02  0.46158285265E+02  0.17524841243E+02  0.54568770170E+02  0.00000000000E+00 0. -1.
         11    1    1    2    0    0  0.40692076731E+02 -0.20953411535E+02  0.18108396594E+02  0.49221992959E+02  0.00000000000E+00 0.  1.
</event>
<event>
 7    1  0.2855090E-009  0.2600897E+03  0.7561462E-02  0.1107089E+00
         -2   -1    0    0    0  501 -0.00000000000E+00  0.00000000000E+00  0.21547147079E+03  0.21547147079E+03  0.00000000000E+00 0.  1.
          2   -1    0    0  501    0  0.00000000000E+00 -0.00000000000E+00 -0.37236548797E+03  0.37236548797E+03  0.00000000000E+00 0. -1.
         25    2    1    2    0    0  0.20221294536E+03 -0.12841563288E+03 -0.18848102301E+03  0.32947588296E+03  0.12509440986E+03 0.  0.
          5    1    3    3  502    0  0.21228893650E+03 -0.13449857780E+03 -0.19223888884E+03  0.31643280925E+03  0.41800000000E+01 0.  1.
         -5    1    3    3    0  502 -0.10075991136E+02  0.60829449141E+01  0.37578658295E+01  0.13043073710E+02  0.41800000000E+01 0.  1.
        -11    1    1    2    0    0 -0.14725988069E+03  0.13650960001E+03  0.22116624372E+02  0.20201358476E+03  0.00000000000E+00 0.  1.
         11    1    1    2    0    0 -0.54953064677E+02 -0.80939671236E+01  0.94703814656E+01  0.56347491038E+02  0.00000000000E+00 0. -1.
</event>
<event>
 7    1  0.2855090E-009  0.1090770E+03  0.7561462E-02  0.1262289E+00
         -2   -1    0    0    0  501 -0.00000000000E+00  0.00000000000E+00  0.47835403669E+02  0.47835403669E+02  0.00000000000E+00 0.  1.
          2   -1    0    0  501    0  0.00000000000E+00 -0.00000000000E+00 -0.27557855778E+03  0.27557855778E+03  0.00000000000E+00 0. -1.
         25    2    1    2    0    0  0.24350626529E+02  0.19721835095E+02 -0.95869754278E+02  0.16068591867E+03  0.12508817243E+03 0.  0.
          5    1    3    3  502    0  0.55290415620E+02 -0.34998053811E+02 -0.42695312529E+02  0.78244846105E+02  0.41800000000E+01 0.  1.
         -5    1    3    3    0  502 -0.30939789091E+02  0.54719888905E+02 -0.53174441749E+02  0.82441072568E+02  0.41800000000E+01 0.  1.
        -11    1    1    2    0    0  0.20586034036E+02  0.20662721617E+02 -0.71934713779E+02  0.77623037228E+02  0.00000000000E+00 0.  1.
         11    1    1    2    0    0 -0.44936660565E+02 -0.40384556712E+02 -0.59938686050E+02  0.85105005546E+02  0.00000000000E+00 0. -1.
</event>
<event>
 7    1  0.2855090E-009  0.1711242E+03  0.7561462E-02  0.1176681E+00
         -1   -1    0    0    0  501 -0.00000000000E+00  0.00000000000E+00  0.16719464243E+03  0.16719464243E+03  0.00000000000E+00 0.  1.
          1   -1    0    0  501    0  0.00000000000E+00 -0.00000000000E+00 -0.20519769281E+03  0.20519769281E+03  0.00000000000E+00 0. -1.
         25    2    1    2    0    0 -0.36015429184E+02 -0.14469071406E+03 -0.50489077604E+01  0.19468734096E+03  0.12508059557E+03 0.  0.
          5    1    3    3  502    0 -0.61228295051E+02 -0.30582292529E+02 -0.30448648074E+02  0.75025151121E+02  0.41800000000E+01 0.  1.
         -5    1    3    3    0  502  0.25212865867E+02 -0.11410842153E+03  0.25399740314E+02  0.11966218984E+03  0.41800000000E+01 0.  1.
        -11    1    1    2    0    0 -0.10917340194E+02  0.48514394897E+02 -0.48621286900E+02  0.69547569109E+02  0.00000000000E+00 0. -1.
         11    1    1    2    0    0  0.46932769379E+02  0.96176319164E+02  0.15667144284E+02  0.10815742517E+03  0.00000000000E+00 0.  1.
</event>
<event>
 7    1  0.2855090E-009  0.1534746E+03  0.7561462E-02  0.1196267E+00
          1   -1    0    0  501    0  0.00000000000E+00  0.00000000000E+00  0.11488930089E+04  0.11488930089E+04  0.00000000000E+00 0. -1.
         -1   -1    0    0    0  501 -0.00000000000E+00 -0.00000000000E+00 -0.21485414532E+02  0.21485414532E+02  0.00000000000E+00 0.  1.
         25    2    1    2    0    0 -0.59777811509E+02  0.96345773580E+02  0.64728495950E+03  0.66894028988E+03  0.12508955909E+03 0.  0.
          5    1    3    3  502    0 -0.88832983549E+02  0.36251441977E+02  0.29115382404E+03  0.30658357370E+03  0.41800000000E+01 0. -1.
         -5    1    3    3    0  502  0.29055172040E+02  0.60094331602E+02  0.35613113546E+03  0.36235671617E+03  0.41800000000E+01 0. -1.
        -11    1    1    2    0    0 -0.23113231262E+02 -0.29930691235E+02  0.10669770235E+03  0.11320100452E+03  0.00000000000E+00 0.  1.
         11    1    1    2    0    0  0.82891042771E+02 -0.66415082345E+02  0.37342493250E+03  0.38823712901E+03  0.00000000000E+00 0. -1.
</event>
<event>
 7    1  0.2855090E-009  0.1143330E+03  0.7561462E-02  0.1252750E+00
          2   -1    0    0  501    0  0.00000000000E+00  0.00000000000E+00  0.16781629894E+04  0.16781629894E+04  0.00000000000E+00 0. -1.
         -2   -1    0    0    0  501 -0.00000000000E+00 -0.00000000000E+00 -0.26067801074E+02  0.26067801074E+02  0.00000000000E+00 0.  1.
         25    2    1    2    0    0  0.79307122440E+02 -0.39770404307E+02  0.14953519367E+04  0.15031952251E+04  0.12508863016E+03 0.  0.
          5    1    3    3  502    0  0.75495783707E+02  0.20940399911E+02  0.51426861586E+03  0.52021898789E+03  0.41800000000E+01 0. -1.
         -5    1    3    3    0  502  0.38113387332E+01 -0.60710804218E+02  0.98108332087E+03  0.98297623722E+03  0.41800000000E+01 0. -1.
        -11    1    1    2    0    0 -0.19754359961E+02  0.54166461400E+01 -0.84106829922E+01  0.22143043632E+02  0.00000000000E+00 0.  1.
         11    1    1    2    0    0 -0.59552762479E+02  0.34353758167E+02  0.16515393455E+03  0.17889252169E+03  0.00000000000E+00 0. -1.
</event>
<event>
 7    1  0.2855090E-009  0.1099648E+03  0.7561462E-02  0.1260635E+00
         -1   -1    0    0    0  501 -0.00000000000E+00  0.00000000000E+00  0.41986611942E+03  0.41986611942E+03  0.00000000000E+00 0.  1.
          1   -1    0    0  501    0  0.00000000000E+00 -0.00000000000E+00 -0.30979519601E+02  0.30979519601E+02  0.00000000000E+00 0. -1.
         25    2    1    2    0    0 -0.33193232338E+02 -0.14085286741E+02  0.24402317367E+03  0.27657625730E+03  0.12508769260E+03 0.  0.
          5    1    3    3  502    0  0.38580095217E+02 -0.35944329425E+02  0.12611365549E+03  0.13675724868E+03  0.41800000000E+01 0.  1.
         -5    1    3    3    0  502 -0.71773327554E+02  0.21859042684E+02  0.11790951818E+03  0.13981900862E+03  0.41800000000E+01 0.  1.
        -11    1    1    2    0    0 -0.28754668277E+02  0.24500091502E+01  0.22382264771E+02  0.36521216694E+02  0.00000000000E+00 0. -1.
         11    1    1    2    0    0  0.61947900615E+02  0.11635277590E+02  0.12248116138E+03  0.13774816503E+03  0.00000000000E+00 0.  1.
</event>
<event>
 7    1  0.2855090E-009  0.1061821E+03  0.7561462E-02  0.1267808E+00
          1   -1    0    0  501    0  0.00000000000E+00  0.00000000000E+00  0.20938507893E+03  0.20938507893E+03  0.00000000000E+00 0. -1.
         -1   -1    0    0    0  501 -0.00000000000E+00 -0.00000000000E+00 -0.92168022657E+02  0.92168022657E+02  0.00000000000E+00 0.  1.
         25    2    1    2    0    0 -0.83090005882E+02 -0.19242540910E+02  0.84308189080E+02  0.17329010732E+03  0.12508943238E+03 0.  0.
          5    1    3    3  502    0 -0.19843240850E+02 -0.51905967054E+02  0.85402683609E+02  0.10197585200E+03  0.41800000000E+01 0. -1.
         -5    1    3    3    0  502 -0.63246765031E+02  0.32663426144E+02 -0.10944945289E+01  0.71314255326E+02  0.41800000000E+01 0. -1.
        -11    1    1    2    0    0  0.29624037705E+02  0.55368324399E+01 -0.31395536304E+02  0.43519189138E+02  0.00000000000E+00 0.  1.
         11    1    1    2    0    0  0.53465968177E+02  0.13705708470E+02  0.64304403494E+02  0.84743805122E+02  0.00000000000E+00 0. -1.
</event>
<event>
 7    1  0.2855090E-009  0.1441236E+03  0.7561462E-02  0.1207886E+00
         -2   -1    0    0    0  501 -0.00000000000E+00  0.00000000000E+00  0.22795275805E+02  0.22795275805E+02  0.00000000000E+00 0.  1.
          2   -1    0    0  501    0  0.00000000000E+00 -0.00000000000E+00 -0.93479912536E+03  0.93479912536E+03  0.00000000000E+00 0. -1.
         25    2    1    2    0    0  0.28278041023E+01 -0.95421948143E+02 -0.42973661561E+03  0.45763996138E+03  0.12508969100E+03 0.  0.
          5    1    3    3  502    0 -0.19927272180E+02 -0.12071368680E+03 -0.35205575181E+03  0.37273263224E+03  0.41800000000E+01 0. -1.
         -5    1    3    3    0  502  0.22755076282E+02  0.25291738654E+02 -0.77680863803E+02  0.84907329141E+02  0.41800000000E+01 0. -1.
        -11    1    1    2    0    0  0.82933654410E+01  0.11160633622E+03 -0.39853503508E+03  0.41395039362E+03  0.00000000000E+00 0.  1.
         11    1    1    2    0    0 -0.11121169543E+02 -0.16184388074E+02 -0.83732198869E+02  0.86004046165E+02  0.00000000000E+00 0. -1.
</event>
<event>
 7    1  0.2855090E-009  0.1113137E+03  0.7561462E-02  0.1258156E+00
          1   -1    0    0  501    0  0.00000000000E+00  0.00000000000E+00  0.43461356755E+03  0.43461356755E+03  0.00000000000E+00 0. -1.
         -1   -1    0    0    0  501 -0.00000000000E+00 -0.00000000000E+00 -0.10897188142E+03  0.10897188142E+03  0.00000000000E+00 0.  1.
         25    2    1    2    0    0  0.44205408084E+02 -0.47012258008E+02  0.39387324067E+03  0.41827929762E+03  0.12512861618E+03 0.  0.
          5    1    3    3  502    0  0.36426131123E+02  0.39133564895E+02  0.16920071580E+03  0.17749550292E+03  0.41800000000E+01 0. -1.
         -5    1    3    3    0  502  0.77792769608E+01 -0.86145822903E+02  0.22467252488E+03  0.24078379470E+03  0.41800000000E+01 0. -1.
        -11    1    1    2    0    0 -0.18636703593E+02  0.52967785214E+02 -0.44428987252E+01  0.56326302385E+02  0.00000000000E+00 0. -1.
         11    1    1    2    0    0 -0.25568704491E+02 -0.59555272060E+01 -0.63788655811E+02  0.68979848969E+02  0.00000000000E+00 0.  1.
</event>
<event>
 7    1  0.2855090E-009  0.1167810E+03  0.7561462E-02  0.1248504E+00
          1   -1    0    0  501    0  0.00000000000E+00  0.00000000000E+00  0.68659103201E+02  0.68659103201E+02  0.00000000000E+00 0. -1.
         -1   -1    0    0    0  501 -0.00000000000E+00 -0.00000000000E+00 -0.24333008308E+03  0.24333008308E+03  0.00000000000E+00 0.  1.
         25    2    1    2    0    0 -0.57197392870E+02 -0.31036344286E+02 -0.66745546088E+02  0.15596826266E+03  0.12504533025E+03 0.  0.
          5    1    3    3  502    0 -0.56578510720E+02  0.27867595420E+02 -0.73024100291E+02  0.96580134464E+02  0.41800000000E+01 0. -1.
         -5    1    3    3    0  502 -0.61888215048E+00 -0.58903939706E+02  0.62785542028E+01  0.59388128198E+02  0.41800000000E+01 0. -1.
        -11    1    1    2    0    0  0.77398925382E+02  0.39376221229E+01 -0.63452771707E+02  0.10016163315E+03  0.00000000000E+00 0. -1.
         11    1    1    2    0    0 -0.20201532512E+02  0.27098722163E+02 -0.44472662085E+02  0.55859290469E+02  0.00000000000E+00 0.  1.
</event>
<event>
 7    1  0.2855090E-009  0.9169953E+02  0.7561462E-02  0.1298787E+00
          1   -1    0    0  501    0  0.00000000000E+00  0.00000000000E+00  0.54157575580E+02  0.54157575580E+02  0.00000000000E+00 0.  1.
         -1   -1    0    0    0  501 -0.00000000000E+00 -0.00000000000E+00 -0.25601370754E+03  0.25601370754E+03  0.00000000000E+00 0. -1.
         25    2    1    2    0    0 -0.38436637875E+02  0.11975978855E+02 -0.77365694633E+02  0.15249340584E+03  0.12509192187E+03 0.  0.
          5    1    3    3  502    0 -0.61329263885E+02  0.54746177724E+02 -0.54323658405E+02  0.98625325584E+02  0.41800000000E+01 0. -1.
         -5    1    3    3    0  502  0.22892626010E+02 -0.42770198868E+02 -0.23042036229E+02  0.53868080256E+02  0.41800000000E+01 0. -1.
        -11    1    1    2    0    0  0.16429382518E+02 -0.22611112681E+02  0.27744334312E+01  0.28087087913E+02  0.00000000000E+00 0.  1.
         11    1    1    2    0    0  0.22007255357E+02  0.10635133825E+02 -0.12726487076E+03  0.12959078937E+03  0.00000000000E+00 0. -1.
</event>
<event>
 7    1  0.2855090E-009  0.4885031E+02  0.7561462E-02  0.1451643E+00
         -2   -1    0    0    0  501 -0.00000000000E+00  0.00000000000E+00  0.13096877565E+03  0.13096877565E+03  0.00000000000E+00 0.  1.
          2   -1    0    0  501    0  0.00000000000E+00 -0.00000000000E+00 -0.11089589843E+03  0.11089589843E+03  0.00000000000E+00 0. -1.
         25    2    1    2    0    0  0.19347244593E+02  0.16821385598E+02  0.59774168093E+02  0.14098874102E+03  0.12509036349E+03 0.  0.
          5    1    3    3  502    0  0.40150446443E+01  0.15986580380E+02 -0.38156148486E+02  0.41773860284E+02  0.41800000000E+01 0. -1.
         -5    1    3    3    0  502  0.15332199948E+02  0.83480521808E+00  0.97930316579E+02  0.99214880740E+02  0.41800000000E+01 0. -1.
        -11    1    1    2    0    0 -0.31369747456E+02 -0.32403944113E+02  0.11056279900E+02  0.46436170974E+02  0.00000000000E+00 0.  1.
         11    1    1    2    0    0  0.12022502863E+02  0.15582558515E+02 -0.50757570773E+02  0.54439762084E+02  0.00000000000E+00 0. -1.
</event>
<event>
 7    1  0.2855090E-009  0.9555939E+02  0.7561462E-02  0.1289921E+00
         -1   -1    0    0    0  501 -0.00000000000E+00  0.00000000000E+00  0.12922898019E+02  0.12922898019E+02  0.00000000000E+00 0.  1.
          1   -1    0    0  501    0  0.00000000000E+00 -0.00000000000E+00 -0.16721090564E+04  0.16721090564E+04  0.00000000000E+00 0. -1.
         25    2    1    2    0    0 -0.54589164914E+02  0.24487138307E+02 -0.13671110567E+04  0.13741254839E+04  0.12509439329E+03 0.  0.
          5    1    3    3  502    0 -0.24028717322E+02 -0.42423621741E+02 -0.89144303147E+03  0.89278513299E+03  0.41800000000E+01 0.  1.
         -5    1    3    3    0  502 -0.30560447591E+02  0.66910760048E+02 -0.47566802527E+03  0.48134035093E+03  0.41800000000E+01 0.  1.
        -11    1    1    2    0    0  0.38925173430E+02 -0.32683559723E+02 -0.28840651181E+03  0.29285098644E+03  0.00000000000E+00 0. -1.
         11    1    1    2    0    0  0.15663991483E+02  0.81964214161E+01 -0.36685898267E+01  0.18055484057E+02  0.00000000000E+00 0.  1.
</event>
<event>
 7    1  0.2855090E-009  0.8697412E+02  0.7561462E-02  0.1310349E+00
          2   -1    0    0  501    0  0.00000000000E+00  0.00000000000E+00  0.26618822452E+03  0.26618822452E+03  0.00000000000E+00 0. -1.
         -2   -1    0    0    0  501 -0.00000000000E+00 -0.00000000000E+00 -0.54161993388E+02  0.54161993388E+02  0.00000000000E+00 0.  1.
         25    2    1    2    0    0  0.43303452542E+02  0.27185142231E+02  0.10328242855E+03  0.17008951977E+03  0.12509581819E+03 0.  0.
          5    1    3    3  502    0  0.13764681932E+02  0.56191506702E+02 -0.78802854427E+00  0.58009010362E+02  0.41800000000E+01 0.  1.
         -5    1    3    3    0  502  0.29538770610E+02 -0.29006364471E+02  0.10407045710E+03  0.11208050941E+03  0.41800000000E+01 0.  1.
        -11    1    1    2    0    0 -0.35627240808E+02 -0.43545600639E+02  0.11742788679E+03  0.13021070700E+03  0.00000000000E+00 0. -1.
         11    1    1    2    0    0 -0.76762117343E+01  0.16360458407E+02 -0.86840842100E+01  0.20049991134E+02  0.00000000000E+00 0.  1.
</event>
<event>
 7    1  0.2855090E-009  0.9874448E+02  0.7561462E-02  0.1282959E+00
         -2   -1    0    0    0  501 -0.00000000000E+00  0.00000000000E+00  0.51378475892E+02  0.51378475892E+02  0.00000000000E+00 0.  1.
          2   -1    0    0  501    0  0.00000000000E+00 -0.00000000000E+00 -0.32980001752E+03  0.32980001752E+03  0.00000000000E+00 0. -1.
         25    2    1    2    0    0 -0.72916009039E-01  0.66829008915E+02 -0.19310804094E+03  0.23958092428E+03  0.12506870932E+03 0.  0.
          5    1    3    3  502    0 -0.33454106227E+02 -0.18793311771E+02 -0.10631805080E+03  0.11310776329E+03  0.41800000000E+01 0.  1.
         -5    1    3    3    0  502  0.33381190218E+02  0.85622320687E+02 -0.86789990142E+02  0.12647316098E+03  0.41800000000E+01 0.  1.
        -11    1    1    2    0    0 -0.14261350673E+01 -0.39919109187E+02  0.11124127373E+02  0.41464627689E+02  0.00000000000E+00 0.  1.
         11    1    1    2    0    0  0.14990510763E+01 -0.26909899728E+02 -0.96437628058E+02  0.10013294145E+03  0.00000000000E+00 0. -1.
</event>
<event>
 7    1  0.2855090E-009  0.1361210E+03  0.7561462E-02  0.1218646E+00
          2   -1    0    0  501    0  0.00000000000E+00  0.00000000000E+00  0.98676889206E+02  0.98676889206E+02  0.00000000000E+00 0.  1.
         -2   -1    0    0    0  501 -0.00000000000E+00 -0.00000000000E+00 -0.23257567152E+03  0.23257567152E+03  0.00000000000E+00 0. -1.
         25    2    1    2    0    0  0.89207331813E+02  0.35588297575E+02 -0.24275268046E+02  0.15954505134E+03  0.12506342309E+03 0.  0.
          5    1    3    3  502    0  0.11052500594E+03  0.17689482787E+02 -0.48831760456E+02  0.12219127616E+03  0.41800000000E+01 0. -1.
         -5    1    3    3    0  502 -0.21317674130E+02  0.17898814788E+02  0.24556492410E+02  0.37353775186E+02  0.41800000000E+01 0. -1.
        -11    1    1    2    0    0 -0.16572606781E+02 -0.54553332657E+02 -0.44468702310E+02  0.72306174595E+02  0.00000000000E+00 0. -1.
         11    1    1    2    0    0 -0.72634725032E+02  0.18965035081E+02 -0.65154811956E+02  0.99401334785E+02  0.00000000000E+00 0.  1.
</event>
<event>
 7    1  0.2855090E-009  0.1535276E+03  0.7561462E-02  0.1196204E+00
         -1   -1    0    0    0  501 -0.00000000000E+00  0.00000000000E+00  0.26066045006E+02  0.26066045006E+02  0.00000000000E+00 0.  1.
          1   -1    0    0  501    0  0.00000000000E+00 -0.00000000000E+00 -0.10945853910E+04  0.10945853910E+04  0.00000000000E+00 0. -1.
         25    2    1    2    0    0  0.81990061120E+02 -0.76080945378E+02 -0.35317330458E+03  0.39101099019E+03  0.12509009156E+03 0.  0.
          5    1    3    3  502    0  0.10083414639E+03 -0.13821731991E+02 -0.23313164298E+03  0.25441383750E+03  0.41800000000E+01 0. -1.
         -5    1    3    3    0  502 -0.18844085274E+02 -0.62259213388E+02 -0.12004166160E+03  0.13659715269E+03  0.41800000000E+01 0. -1.
        -11    1    1    2    0    0  0.24011472822E+01 -0.15378128385E+02 -0.39942965007E+02  0.42868319240E+02  0.00000000000E+00 0.  1.
         11    1    1    2    0    0 -0.84391208402E+02  0.91459073763E+02 -0.67540307644E+03  0.68677212662E+03  0.00000000000E+00 0. -1.
</event>
<event>
 7    1  0.2855090E-009  0.1029680E+03  0.7561462E-02  0.1274176E+00
         -2   -1    0    0    0  501 -0.00000000000E+00  0.00000000000E+00  0.34330489143E+02  0.34330489143E+02  0.00000000000E+00 0.  1.
          2   -1    0    0  501    0  0.00000000000E+00 -0.00000000000E+00 -0.46407122198E+03  0.46407122198E+03  0.00000000000E+00 0. -1.
         25    2    1    2    0    0  0.57870562010E+02 -0.20767323463E+02 -0.17350597092E+03  0.22255736390E+03  0.12508866699E+03 0.  0.
          5    1    3    3  502    0  0.81352255242E+02 -0.34261306559E+02 -0.17399382320E+03  0.19514955668E+03  0.41800000000E+01 0. -1.
         -5    1    3    3    0  502 -0.23481693232E+02  0.13493983096E+02  0.48785227470E+00  0.27407807222E+02  0.41800000000E+01 0. -1.
        -11    1    1    2    0    0 -0.29065398056E+02  0.44287431414E+02 -0.20963780864E+03  0.21622716008E+03  0.00000000000E+00 0. -1.
         11    1    1    2    0    0 -0.28805163954E+02 -0.23520107951E+02 -0.46596953275E+02  0.59617187144E+02  0.00000000000E+00 0.  1.
</event>
<event>
 7    1  0.2855090E-009  0.1228091E+03  0.7561462E-02  0.1238534E+00
         -2   -1    0    0    0  501 -0.00000000000E+00  0.00000000000E+00  0.51903639233E+03  0.51903639233E+03  0.00000000000E+00 0.  1.
          2   -1    0    0  501    0  0.00000000000E+00 -0.00000000000E+00 -0.73185632664E+02  0.73185632664E+02  0.00000000000E+00 0. -1.
         25    2    1    2    0    0  0.11993649260E+03  0.60497730442E+01  0.39572087372E+03  0.43204653829E+03  0.12509132398E+03 0.  0.
          5    1    3    3  502    0  0.84416481909E+02  0.11710373718E+02  0.89368646211E+02  0.12356173597E+03  0.41800000000E+01 0.  1.
         -5    1    3    3    0  502  0.35520010691E+02 -0.56606006739E+01  0.30635222751E+03  0.30848480232E+03  0.41800000000E+01 0.  1.
        -11    1    1    2    0    0 -0.43520296076E+02 -0.17315546606E+02 -0.24422811310E+02  0.52823461048E+02  0.00000000000E+00 0. -1.
         11    1    1    2    0    0 -0.76416196523E+02  0.11265773562E+02  0.74552697253E+02  0.10735202566E+03  0.00000000000E+00 0.  1.
</event>
<event>
 7    1  0.3164019E-009  0.1120382E+03  0.7561462E-02  0.1256841E+00
          2   -1    0    0  501    0  0.00000000000E+00  0.00000000000E+00  0.52898896704E+03  0.52898896704E+03  0.00000000000E+00 0. -1.
         -2   -1    0    0    0  501 -0.00000000000E+00 -0.00000000000E+00 -0.43546730964E+02  0.43546730964E+02  0.00000000000E+00 0.  1.
         25    2    1    2    0    0 -0.10074266736E+02 -0.84552483027E+02  0.38114910761E+03  0.41008894035E+03  0.12509070120E+03 0.  0.
          5    1    3    3  502    0 -0.33802414406E+02 -0.84732553362E+02  0.13634829853E+03  0.16410527027E+03  0.41800000000E+01 0. -1.
         -5    1    3    3    0  502  0.23728147670E+02  0.18007033506E+00  0.24480080908E+03  0.24598367008E+03  0.41800000000E+01 0. -1.
        -11    1    1    2    0    0 -0.23824814610E+02  0.65667541693E+02  0.10193034390E+03  0.12357039625E+03  0.00000000000E+00 0. -1.
         11    1    1    2    0    0  0.33899081346E+02  0.18884941334E+02  0.23627845703E+01  0.38876361406E+02  0.00000000000E+00 0.  1.
</event>
<event>
 7    1  0.2855090E-009  0.1484188E+03  0.7561462E-02  0.1202430E+00
         -2   -1    0    0    0  501 -0.00000000000E+00  0.00000000000E+00  0.17939982016E+02  0.17939982016E+02  0.00000000000E+00 0.  1.
          2   -1    0    0  501    0  0.00000000000E+00 -0.00000000000E+00 -0.15389965908E+04  0.15389965908E+04  0.00000000000E+00 0. -1.
         25    2    1    2    0    0 -0.46772448529E+02  0.10919908669E+03 -0.10215813254E+04  0.10360444496E+04  0.12509034631E+03 0.  0.
          5    1    3    3  502    0 -0.54065269746E+02  0.15713191414E+02 -0.16617412922E+03  0.17550290994E+03  0.41800000000E+01 0. -1.
         -5    1    3    3    0  502  0.72928212173E+01  0.93485895280E+02 -0.85540719614E+03  0.86054153965E+03  0.41800000000E+01 0. -1.
        -11    1    1    2    0    0 -0.23913992607E+02 -0.13242780462E+02 -0.68836860255E+02  0.74065940934E+02  0.00000000000E+00 0. -1.
         11    1    1    2    0    0  0.70686441135E+02 -0.95956306231E+02 -0.43063842320E+03  0.44682618231E+03  0.00000000000E+00 0.  1.
</event>
<event>
 7    1  0.2855090E-009  0.1205879E+03  0.7561462E-02  0.1242130E+00
         -2   -1    0    0    0  501 -0.00000000000E+00  0.00000000000E+00  0.16207310287E+03  0.16207310287E+03  0.00000000000E+00 0.  1.
          2   -1    0    0  501    0  0.00000000000E+00 -0.00000000000E+00 -0.10645742479E+03  0.10645742479E+03  0.00000000000E+00 0. -1.
         25    2    1    2    0    0  0.47912890502E+02 -0.55161924124E+02  0.37858889959E+02  0.14973430660E+03  0.12509430073E+03 0.  0.
          5    1    3    3  502    0  0.55560747532E+02  0.25894252555E+02  0.28323890005E+02  0.67655185512E+02  0.41800000000E+01 0.  1.
         -5    1    3    3    0  502 -0.76478570301E+01 -0.81056176679E+02  0.95349999545E+01  0.82079121091E+02  0.41800000000E+01 0.  1.
        -11    1    1    2    0    0  0.39036125259E+01  0.45296344342E+02  0.40938419928E+02  0.61179663514E+02  0.00000000000E+00 0.  1.
         11    1    1    2    0    0 -0.51816503028E+02  0.98655797824E+01 -0.23181631806E+02  0.57616557548E+02  0.00000000000E+00 0. -1.
</event>
<event>
 7    1  0.2855090E-009  0.1212850E+03  0.7561462E-02  0.1240992E+00
         -2   -1    0    0    0  501 -0.00000000000E+00  0.00000000000E+00  0.14234655767E+02  0.14234655767E+02  0.00000000000E+00 0.  1.
          2   -1    0    0  501    0  0.00000000000E+00 -0.00000000000E+00 -0.11877858044E+04  0.11877858044E+04  0.00000000000E+00 0. -1.
         25    2    1    2    0    0  0.58446074915E+02  0.77070893024E+02 -0.73984961103E+03  0.75655758795E+03  0.12508425451E+03 0.  0.
          5    1    3    3  502    0  0.88080541530E+02  0.54968317525E+02 -0.66392739243E+03  0.67200948844E+03  0.41800000000E+01 0. -1.
         -5    1    3    3    0  502 -0.29634466615E+02  0.22102575499E+02 -0.75922218594E+02  0.84548099514E+02  0.41800000000E+01 0. -1.
        -11    1    1    2    0    0 -0.60584387118E+02 -0.63680960046E+02 -0.36478376130E+03  0.37522383339E+03  0.00000000000E+00 0.  1.
         11    1    1    2    0    0  0.21383122030E+01 -0.13389932978E+02 -0.68917776267E+02  0.70239038788E+02  0.00000000000E+00 0. -1.
</event>
<event>
 7    1  0.2855090E-009  0.1436930E+03  0.7561462E-02  0.1208444E+00
         -2   -1    0    0    0  501 -0.00000000000E+00  0.00000000000E+00  0.68373566230E+02  0.68373566230E+02  0.00000000000E+00 0.  1.
          2   -1    0    0  501    0  0.00000000000E+00 -0.00000000000E+00 -0.62774538360E+03  0.62774538360E+03  0.00000000000E+00 0. -1.
         25    2    1    2    0    0 -0.10079430185E+03 -0.65213632961E+02 -0.76057124836E+02  0.18931833595E+03  0.12507772335E+03 0.  0.
          5    1    3    3  502    0 -0.11152717862E+03 -0.21502511246E+02 -0.16961602999E+02  0.11491665649E+03  0.41800000000E+01 0.  1.
         -5    1    3    3    0  502  0.10732876777E+02 -0.43711121716E+02 -0.59095521837E+02  0.74401679462E+02  0.41800000000E+01 0.  1.
        -11    1    1    2    0    0  0.89798958056E+02  0.35010468512E+02 -0.45114298436E+03  0.46132372377E+03  0.00000000000E+00 0. -1.
         11    1    1    2    0    0  0.10995343790E+02  0.30203164449E+02 -0.32171708179E+02  0.45476890119E+02  0.00000000000E+00 0.  1.
</event>
<event>
 7    1  0.2855090E-009  0.1039843E+03  0.7561462E-02  0.1272134E+00
         -2   -1    0    0    0  501 -0.00000000000E+00  0.00000000000E+00  0.69553226661E+02  0.69553226661E+02  0.00000000000E+00 0.  1.
          2   -1    0    0  501    0  0.00000000000E+00 -0.00000000000E+00 -0.26892426619E+03  0.26892426619E+03  0.00000000000E+00 0. -1.
         25    2    1    2    0    0 -0.66190935868E+02 -0.17736881565E+02 -0.51714367526E+02  0.15171518966E+03  0.12508911226E+03 0.  0.
          5    1    3    3  502    0 -0.98785003056E+02 -0.30995418800E+02 -0.23080833565E+02  0.10615738360E+03  0.41800000000E+01 0.  1.
         -5    1    3    3    0  502  0.32594067188E+02  0.13258537236E+02 -0.28633533961E+02  0.45557806055E+02  0.41800000000E+01 0.  1.
        -11    1    1    2    0    0  0.53338612921E+02  0.17234008358E+02 -0.15963255691E+03  0.16918797800E+03  0.00000000000E+00 0. -1.
         11    1    1    2    0    0  0.12852322947E+02  0.50287320720E+00  0.11975884911E+02  0.17574325193E+02  0.00000000000E+00 0.  1.
</event>
<event>
 7    1  0.2855090E-009  0.1082682E+03  0.7561462E-02  0.1263811E+00
          2   -1    0    0  501    0  0.00000000000E+00  0.00000000000E+00  0.67039147209E+03  0.67039147209E+03  0.00000000000E+00 0. -1.
         -2   -1    0    0    0  501 -0.00000000000E+00 -0.00000000000E+00 -0.22013055793E+02  0.22013055793E+02  0.00000000000E+00 0.  1.
         25    2    1    2    0    0  0.55425100001E+01 -0.34909972168E+02  0.49122984339E+03  0.50813777865E+03  0.12509123662E+03 0.  0.
          5    1    3    3  502    0  0.54633793788E+02  0.13143309352E+02  0.15469598283E+03  0.16463874850E+03  0.41800000000E+01 0. -1.
         -5    1    3    3    0  502 -0.49091283788E+02 -0.48053281521E+02  0.33653386056E+03  0.34349903014E+03  0.41800000000E+01 0. -1.
        -11    1    1    2    0    0  0.39442325288E+02  0.15738869246E+02  0.44753684689E+02  0.61695229333E+02  0.00000000000E+00 0.  1.
         11    1    1    2    0    0 -0.44984835288E+02  0.19171102922E+02  0.11239488822E+03  0.12257151990E+03  0.00000000000E+00 0. -1.
</event>
<event>
 7    1  0.2855090E-009  0.9071374E+02  0.7561462E-02  0.1301132E+00
          2   -1    0    0  501    0  0.00000000000E+00  0.00000000000E+00  0.39438406449E+03  0.39438406449E+03  0.00000000000E+00 0. -1.
         -2   -1    0    0    0  501 -0.00000000000E+00 -0.00000000000E+00 -0.27385224974E+02  0.27385224974E+02  0.00000000000E+00 0.  1.
         25    2    1    2    0    0 -0.21515021756E+01 -0.86126584218E+01  0.20565712394E+03  0.24087852351E+03  0.12509517822E+03 0.  0.
          5    1    3    3  502    0 -0.58546662865E+01  0.57809454815E+02  0.10666593581E+03  0.12153725538E+03  0.41800000000E+01 0.  1.
         -5    1    3    3    0  502  0.37031641109E+01 -0.66422113236E+02  0.98991188132E+02  0.11934126813E+03  0.41800000000E+01 0.  1.
        -11    1    1    2    0    0  0.27530174809E+01 -0.23869617011E+02  0.98730677297E+01  0.25977205159E+02  0.00000000000E+00 0.  1.
         11    1    1    2    0    0 -0.60151530531E+00  0.32482275433E+02  0.15146864785E+03  0.15491356080E+03  0.00000000000E+00 0. -1.
</event>
<event>
 7    1  0.2855090E-009  0.1901151E+03  0.7561462E-02  0.1158358E+00
         -2   -1    0    0    0  501 -0.00000000000E+00  0.00000000000E+00  0.51349956431E+02  0.51349956431E+02  0.00000000000E+00 0.  1.
          2   -1    0    0  501    0  0.00000000000E+00 -0.00000000000E+00 -0.13643016996E+04  0.13643016996E+04  0.00000000000E+00 0. -1.
         25    2    1    2    0    0 -0.12869706512E+03 -0.13789480717E+03 -0.10762467108E+04  0.10997869434E+04  0.12508567471E+03 0.  0.
          5    1    3    3  502    0 -0.36941040018E+02 -0.62233923747E+02 -0.73142463358E+03  0.73500827799E+03  0.41800000000E+01 0. -1.
         -5    1    3    3    0  502 -0.91756025104E+02 -0.75660883428E+02 -0.34482207719E+03  0.36477866542E+03  0.41800000000E+01 0. -1.
        -11    1    1    2    0    0  0.26971904456E+02  0.25063589555E+02 -0.11638894360E+03  0.12207396669E+03  0.00000000000E+00 0. -1.
         11    1    1    2    0    0  0.10172516067E+03  0.11283121762E+03 -0.12031608877E+03  0.19379074590E+03  0.00000000000E+00 0.  1.
</event>
<event>
 7    1  0.2855090E-009  0.8291621E+02  0.7561462E-02  0.1320974E+00
         -3   -1    0    0    0  501 -0.00000000000E+00  0.00000000000E+00  0.18394361717E+03  0.18394361717E+03  0.00000000000E+00 0.  1.
          3   -1    0    0  501    0  0.00000000000E+00 -0.00000000000E+00 -0.80148718635E+02  0.80148718635E+02  0.00000000000E+00 0. -1.
         25    2    1    2    0    0 -0.42962834942E+02  0.21187058836E+02  0.11880694116E+03  0.17904528693E+03  0.12508968324E+03 0.  0.
          5    1    3    3  502    0 -0.17353777769E+02 -0.41320210686E+02  0.32502703534E+01  0.45128151650E+02  0.41800000000E+01 0.  1.
         -5    1    3    3    0  502 -0.25609057173E+02  0.62507269522E+02  0.11555667081E+03  0.13391713528E+03  0.41800000000E+01 0.  1.
        -11    1    1    2    0    0  0.13865391214E+02 -0.19591074897E+02 -0.40007435726E+02  0.46654626808E+02  0.00000000000E+00 0. -1.
         11    1    1    2    0    0  0.29097443727E+02 -0.15959839392E+01  0.24995393100E+02  0.38392422070E+02  0.00000000000E+00 0.  1.
</event>
<event>
 7    1  0.2855090E-009  0.9820076E+02  0.7561462E-02  0.1284126E+00
         -1   -1    0    0    0  501 -0.00000000000E+00  0.00000000000E+00  0.42354201400E+02  0.42354201400E+02  0.00000000000E+00 0.  1.
          1   -1    0    0  501    0  0.00000000000E+00 -0.00000000000E+00 -0.36705322372E+03  0.36705322372E+03  0.00000000000E+00 0. -1.
         25    2    1    2    0    0 -0.14396980880E+01  0.47337454115E+02 -0.12148976046E+03  0.18069418672E+03  0.12509084669E+03 0.  0.
          5    1    3    3  502    0 -0.20044076765E+02  0.78408184044E+02 -0.37821828791E+02  0.89429142183E+02  0.41800000000E+01 0. -1.
         -5    1    3    3    0  502  0.18604378677E+02 -0.31070729930E+02 -0.83667931668E+02  0.91265044535E+02  0.41800000000E+01 0. -1.
        -11    1    1    2    0    0 -0.30772243807E+02 -0.20425059934E+02 -0.17325087963E+03  0.17714395659E+03  0.00000000000E+00 0. -1.
         11    1    1    2    0    0  0.32211941895E+02 -0.26912394181E+02 -0.29958382229E+02  0.51569281816E+02  0.00000000000E+00 0.  1.
</event>
<event>
 7    1  0.2855090E-009  0.1588447E+03  0.7561462E-02  0.1190007E+00
         -1   -1    0    0    0  501 -0.00000000000E+00  0.00000000000E+00  0.68224894133E+03  0.68224894133E+03  0.00000000000E+00 0.  1.
          1   -1    0    0  501    0  0.00000000000E+00 -0.00000000000E+00 -0.38446733685E+02  0.38446733685E+02  0.00000000000E+00 0. -1.
         25    2    1    2    0    0 -0.40869909067E+02  0.11128161176E+03  0.38533772390E+03  0.42212212187E+03  0.12509187715E+03 0.  0.
          5    1    3    3  502    0 -0.23832772088E+02 -0.24857817065E+02  0.66884619287E+02  0.75345449709E+02  0.41800000000E+01 0.  1.
         -5    1    3    3    0  502 -0.17037136979E+02  0.13613942883E+03  0.31845310461E+03  0.34677667216E+03  0.41800000000E+01 0.  1.
        -11    1    1    2    0    0 -0.74517353218E+00 -0.10337165128E+03  0.15037380178E+03  0.18247885859E+03  0.00000000000E+00 0. -1.
         11    1    1    2    0    0  0.41615082599E+02 -0.79099604809E+01  0.10809068197E+03  0.11609469455E+03  0.00000000000E+00 0.  1.
</event>
<event>
 7    1  0.2855090E-009  0.9368622E+02  0.7561462E-02  0.1294163E+00
         -2   -1    0    0    0  501 -0.00000000000E+00  0.00000000000E+00  0.15418770138E+03  0.15418770138E+03  0.00000000000E+00 0.  1.
          2   -1    0    0  501    0  0.00000000000E+00 -0.00000000000E+00 -0.85089722509E+02  0.85089722509E+02  0.00000000000E+00 0. -1.
         25    2    1    2    0    0  0.28612526980E+02  0.13253006493E+02  0.20502702726E+02  0.13066411098E+03  0.12513364934E+03 0.  0.
          5    1    3    3  502    0 -0.19665640599E+02 -0.24156375536E+02  0.52801908094E+02  0.61447390486E+02  0.41800000000E+01 0. -1.
         -5    1    3    3    0  502  0.48278167579E+02  0.37409382029E+02 -0.32299205368E+02  0.69216720494E+02  0.41800000000E+01 0. -1.
        -11    1    1    2    0    0 -0.24777177824E+02  0.36888648239E+02  0.34871166578E+02  0.56486097124E+02  0.00000000000E+00 0.  1.
         11    1    1    2    0    0 -0.38353491565E+01 -0.50141654732E+02  0.13724109571E+02  0.52127215789E+02  0.00000000000E+00 0. -1.
</event>
<event>
 7    1  0.2855090E-009  0.1352725E+03  0.7561462E-02  0.1219835E+00
         -3   -1    0    0    0  501 -0.00000000000E+00  0.00000000000E+00  0.24645147260E+03  0.24645147260E+03  0.00000000000E+00 0.  1.
          3   -1    0    0  501    0  0.00000000000E+00 -0.00000000000E+00 -0.10294980589E+03  0.10294980589E+03  0.00000000000E+00 0. -1.
         25    2    1    2    0    0  0.53244194106E+02  0.10281929673E+03  0.10757902388E+03  0.20156879029E+03  0.12509987552E+03 0.  0.
          5    1    3    3  502    0  0.17976867631E+01  0.10272315950E+03  0.27743883896E+02  0.10650105478E+03  0.41800000000E+01 0.  1.
         -5    1    3    3    0  502  0.51446507343E+02  0.96137236331E-01  0.79835139984E+02  0.95067735517E+02  0.41800000000E+01 0.  1.
        -11    1    1    2    0    0 -0.49046065872E+02 -0.88485750412E+02 -0.79558126114E+01  0.10148172031E+03  0.00000000000E+00 0. -1.
         11    1    1    2    0    0 -0.41981282337E+01 -0.14333546321E+02  0.43878455451E+02  0.46350767885E+02  0.00000000000E+00 0.  1.
</event>
<event>
 7    1  0.2855090E-009  0.1700965E+03  0.7561462E-02  0.1177747E+00
         -2   -1    0    0    0  501 -0.00000000000E+00  0.00000000000E+00  0.95707753014E+02  0.95707753014E+02  0.00000000000E+00 0.  1.
          2   -1    0    0  501    0  0.00000000000E+00 -0.00000000000E+00 -0.36361906767E+03  0.36361906767E+03  0.00000000000E+00 0. -1.
         25    2    1    2    0    0 -0.75061640151E+02  0.12833855140E+03 -0.10581778965E+03  0.22124976427E+03  0.12509604304E+03 0.  0.
          5    1    3    3  502    0  0.16212508605E+02  0.82897682875E+02 -0.17655841028E+02  0.86394863179E+02  0.41800000000E+01 0. -1.
         -5    1    3    3    0  502 -0.91274148756E+02  0.45440868523E+02 -0.88161948618E+02  0.13485490109E+03  0.41800000000E+01 0. -1.
        -11    1    1    2    0    0  0.42573052926E+02 -0.36219237536E+02 -0.11867921425E+03  0.13118328361E+03  0.00000000000E+00 0. -1.
         11    1    1    2    0    0  0.32488587225E+02 -0.92119313862E+02 -0.43414310758E+02  0.10689377281E+03  0.00000000000E+00 0.  1.
</event>
<event>
 7    1  0.2855090E-009  0.1097193E+03  0.7561462E-02  0.1261091E+00
         -1   -1    0    0    0  501 -0.00000000000E+00  0.00000000000E+00  0.12567980628E+04  0.12567980628E+04  0.00000000000E+00 0.  1.
          1   -1    0    0  501    0  0.00000000000E+00 -0.00000000000E+00 -0.23434709638E+02  0.23434709638E+02  0.00000000000E+00 0. -1.
         25    2    1    2    0    0  0.68827735289E+02 -0.84206256473E+00  0.10658607030E+04  0.10753810798E+04  0.12508981678E+03 0.  0.
          5    1    3    3  502    0  0.22692366464E+02  0.51401512282E+02  0.23788089933E+03  0.24446237671E+03  0.41800000000E+01 0. -1.
         -5    1    3    3    0  502  0.46135368825E+02 -0.52243574847E+02  0.82797980368E+03  0.83091870305E+03  0.41800000000E+01 0. -1.
        -11    1    1    2    0    0 -0.11233567618E+02  0.27575466604E+02  0.12486982477E+03  0.12837083990E+03  0.00000000000E+00 0.  1.
         11    1    1    2    0    0 -0.57594167671E+02 -0.26733404040E+02  0.42632825379E+02  0.76480852774E+02  0.00000000000E+00 0. -1.
</event>
<event>
 7    1  0.2855090E-009  0.1254868E+03  0.7561462E-02  0.1234310E+00
          1   -1    0    0  501    0  0.00000000000E+00  0.00000000000E+00  0.54848581474E+02  0.54848581474E+02  0.00000000000E+00 0. -1.
         -1   -1    0    0    0  501 -0.00000000000E+00 -0.00000000000E+00 -0.30636738232E+03  0.30636738232E+03  0.00000000000E+00 0.  1.
         25    2    1    2    0    0  0.55204549458E+02  0.32986767327E+02 -0.18171480718E+03  0.22977372551E+03  0.12506008431E+03 0.  0.
          5    1    3    3  502    0  0.95516815267E+02  0.19862314139E+02 -0.11860372678E+03  0.15363036785E+03  0.41800000000E+01 0.  1.
         -5    1    3    3    0  502 -0.40312265808E+02  0.13124453189E+02 -0.63111080401E+02  0.76143357658E+02  0.41800000000E+01 0.  1.
        -11    1    1    2    0    0 -0.45862365457E+02 -0.63772684762E+02 -0.55805935419E+02  0.96356703530E+02  0.00000000000E+00 0.  1.
         11    1    1    2    0    0 -0.93421840010E+01  0.30785917435E+02 -0.13998058252E+02  0.35085534755E+02  0.00000000000E+00 0. -1.
</event>
<event>
 7    1  0.2855090E-009  0.6890954E+02  0.7561462E-02  0.1363841E+00
         -4   -1    0    0    0  501 -0.00000000000E+00  0.00000000000E+00  0.14326454712E+03  0.14326454712E+03  0.00000000000E+00 0. -1.
          4   -1    0    0  501    0  0.00000000000E+00 -0.00000000000E+00 -0.84809108601E+02  0.84809108601E+02  0.00000000000E+00 0.  1.
         25    2    1    2    0    0  0.17351506546E+02  0.11701294033E+02  0.11735304322E+02  0.12736832127E+03  0.12508787645E+03 0.  0.
          5    1    3    3  502    0  0.26241024681E+02  0.30998049807E+02 -0.48477849933E+02  0.63380160951E+02  0.41800000000E+01 0.  1.
         -5    1    3    3    0  502 -0.88895181349E+01 -0.19296755773E+02  0.60213154254E+02  0.63988160321E+02  0.41800000000E+01 0.  1.
        -11    1    1    2    0    0  0.24678336436E+02 -0.20869393599E+02 -0.57793966415E+01  0.32832199195E+02  0.00000000000E+00 0. -1.
         11    1    1    2    0    0 -0.42029842981E+02  0.91680995654E+01  0.52499530835E+02  0.67873135249E+02  0.00000000000E+00 0.  1.
</event>
<event>
 7    1  0.2855090E-009  0.1943492E+03  0.7561462E-02  0.1154596E+00
         -2   -1    0    0    0  501 -0.00000000000E+00  0.00000000000E+00  0.20821231486E+03  0.20821231486E+03  0.00000000000E+00 0.  1.
          2   -1    0    0  501    0  0.00000000000E+00 -0.00000000000E+00 -0.24093111814E+03  0.24093111814E+03  0.00000000000E+00 0. -1.
         25    2    1    2    0    0 -0.20169324775E+02  0.19027166841E+03  0.24269799373E+02  0.22988387334E+03  0.12508981813E+03 0.  0.
          5    1    3    3  502    0  0.11037016440E+02  0.91416904640E+02 -0.47535622108E+02  0.10371101173E+03  0.41800000000E+01 0.  1.
         -5    1    3    3    0  502 -0.31206341215E+02  0.98854763771E+02  0.71805421480E+02  0.12617286161E+03  0.41800000000E+01 0.  1.
        -11    1    1    2    0    0 -0.53733077625E+01 -0.37491635723E+02  0.23623960009E+02  0.44638399075E+02  0.00000000000E+00 0.  1.
         11    1    1    2    0    0  0.25542632538E+02 -0.15278003269E+03 -0.80612562663E+02  0.17462116059E+03  0.00000000000E+00 0. -1.
</event>
<event>
 7    1  0.2855090E-009  0.1263428E+03  0.7561462E-02  0.1232985E+00
          2   -1    0    0  501    0  0.00000000000E+00  0.00000000000E+00  0.10522564989E+04  0.10522564989E+04  0.00000000000E+00 0.  1.
         -2   -1    0    0    0  501 -0.00000000000E+00 -0.00000000000E+00 -0.17533711646E+02  0.17533711646E+02  0.00000000000E+00 0. -1.
         25    2    1    2    0    0 -0.67530867584E+02 -0.86365411224E+01  0.74424887853E+03  0.75775272632E+03  0.12509113934E+03 0.  0.
          5    1    3    3  502    0  0.26975407055E+02 -0.33933053859E+02  0.27127477300E+03  0.27474824766E+03  0.41800000000E+01 0. -1.
         -5    1    3    3    0  502 -0.94506274639E+02  0.25296512737E+02  0.47297410553E+03  0.48300447866E+03  0.41800000000E+01 0. -1.
        -11    1    1    2    0    0 -0.82602962491E+01 -0.26438885606E+02  0.46036573159E+02  0.53727211303E+02  0.00000000000E+00 0. -1.
         11    1    1    2    0    0  0.75791163833E+02  0.35075426728E+02  0.24443733555E+03  0.25831027290E+03  0.00000000000E+00 0.  1.
</event>
<event>
 7    1  0.2855090E-009  0.9838487E+02  0.7561462E-02  0.1283729E+00
          4   -1    0    0  501    0  0.00000000000E+00  0.00000000000E+00  0.44064604351E+02  0.44064604351E+02  0.00000000000E+00 0. -1.
         -4   -1    0    0    0  501 -0.00000000000E+00 -0.00000000000E+00 -0.48749545864E+03  0.48749545864E+03  0.00000000000E+00 0.  1.
         25    2    1    2    0    0 -0.44301185932E+02 -0.60811836306E+00 -0.39599775545E+03  0.41764137153E+03  0.12508848070E+03 0.  0.
          5    1    3    3  502    0  0.52387522728E+01 -0.56104883910E+02 -0.20439384911E+03  0.21206018127E+03  0.41800000000E+01 0. -1.
         -5    1    3    3    0  502 -0.49539938204E+02  0.55496765547E+02 -0.19160390634E+03  0.20558119026E+03  0.41800000000E+01 0. -1.
        -11    1    1    2    0    0  0.24439137032E+02 -0.23919021461E+02  0.19893418477E+02  0.39561839002E+02  0.00000000000E+00 0. -1.
         11    1    1    2    0    0  0.19862048900E+02  0.24527139824E+02 -0.67326517313E+02  0.74356852461E+02  0.00000000000E+00 0.  1.
</event>
<event>
 7    1  0.2855090E-009  0.1053616E+03  0.7561462E-02  0.1269409E+00
         -4   -1    0    0    0  501 -0.00000000000E+00  0.00000000000E+00  0.20202193479E+03  0.20202193479E+03  0.00000000000E+00 0.  1.
          4   -1    0    0  501    0  0.00000000000E+00 -0.00000000000E+00 -0.68324783736E+02  0.68324783736E+02  0.00000000000E+00 0. -1.
         25    2    1    2    0    0  0.33220848866E+02  0.22409056771E+02  0.51530834572E+02  0.14109680808E+03  0.12508833564E+03 0.  0.
          5    1    3    3  502    0 -0.39688493270E+02 -0.22558238121E+01 -0.11425335745E+02  0.41572538243E+02  0.41800000000E+01 0. -1.
         -5    1    3    3    0  502  0.72909342136E+02  0.24664880583E+02  0.62956170317E+02  0.99524269833E+02  0.41800000000E+01 0. -1.
        -11    1    1    2    0    0 -0.55911871689E+02 -0.36674831757E+02  0.76951092435E+02  0.10194435397E+03  0.00000000000E+00 0.  1.
         11    1    1    2    0    0  0.22691022823E+02  0.14265774986E+02  0.52152240500E+01  0.27305556478E+02  0.00000000000E+00 0. -1.
</event>
<event>
 7    1  0.2855090E-009  0.1019893E+03  0.7561462E-02  0.1276167E+00
         -2   -1    0    0    0  501 -0.00000000000E+00  0.00000000000E+00  0.16052488970E+02  0.16052488970E+02  0.00000000000E+00 0.  1.
          2   -1    0    0  501    0  0.00000000000E+00 -0.00000000000E+00 -0.75634983921E+03  0.75634983921E+03  0.00000000000E+00 0. -1.
         25    2    1    2    0    0 -0.55925294606E+01  0.27410006260E+02 -0.46596210841E+03  0.48326905496E+03  0.12508280530E+03 0.  0.
          5    1    3    3  502    0  0.58269363731E+02  0.60837005602E+01 -0.25957500435E+03  0.26613715533E+03  0.41800000000E+01 0. -1.
         -5    1    3    3    0  502 -0.63861893191E+02  0.21326305700E+02 -0.20638710405E+03  0.21713189963E+03  0.41800000000E+01 0. -1.
        -11    1    1    2    0    0 -0.31948153291E+02 -0.24255203594E+02 -0.21598491353E+03  0.21967813335E+03  0.00000000000E+00 0.  1.
         11    1    1    2    0    0  0.37540682751E+02 -0.31548026658E+01 -0.58350328309E+02  0.69455139875E+02  0.00000000000E+00 0. -1.
</event>
<event>
 7    1  0.2855090E-009  0.9743630E+02  0.7561462E-02  0.1285781E+00
         -3   -1    0    0    0  501 -0.00000000000E+00  0.00000000000E+00  0.20147779317E+03  0.20147779317E+03  0.00000000000E+00 0.  1.
          3   -1    0    0  501    0  0.00000000000E+00 -0.00000000000E+00 -0.70772065332E+02  0.70772065332E+02  0.00000000000E+00 0. -1.
         25    2    1    2    0    0 -0.23028141182E+02  0.20403750035E+02  0.11443162818E+03  0.17230370328E+03  0.12508940936E+03 0.  0.
          5    1    3    3  502    0 -0.15029620988E+02 -0.37530675606E+02 -0.33021913872E+01  0.40777665290E+02  0.41800000000E+01 0. -1.
         -5    1    3    3    0  502 -0.79985201940E+01  0.57934425642E+02  0.11773381957E+03  0.13152603799E+03  0.41800000000E+01 0. -1.
        -11    1    1    2    0    0  0.35814098651E+02  0.28045039326E+02  0.20019904675E+02  0.49698797532E+02  0.00000000000E+00 0. -1.
         11    1    1    2    0    0 -0.12785957468E+02 -0.48448789361E+02 -0.37458050209E+01  0.50247357684E+02  0.00000000000E+00 0.  1.
</event>
<event>
 7    1  0.2855090E-009  0.1287678E+03  0.7561462E-02  0.1229296E+00
          1   -1    0    0  501    0  0.00000000000E+00  0.00000000000E+00  0.45192877023E+03  0.45192877023E+03  0.00000000000E+00 0. -1.
         -1   -1    0    0    0  501 -0.00000000000E+00 -0.00000000000E+00 -0.11351293550E+03  0.11351293550E+03  0.00000000000E+00 0.  1.
         25    2    1    2    0    0  0.36651486447E+02 -0.10907631968E+03 -0.25096634489E+02  0.17180878076E+03  0.12508973223E+03 0.  0.
          5    1    3    3  502    0  0.15908176510E+02 -0.92321909620E+02  0.39534345008E+02  0.10176857035E+03  0.41800000000E+01 0. -1.
         -5    1    3    3    0  502  0.20743309937E+02 -0.16754410061E+02 -0.64630979497E+02  0.70040210411E+02  0.41800000000E+01 0. -1.
        -11    1    1    2    0    0 -0.52472535733E+02  0.10897324387E+03  0.35625536293E+03  0.37622655210E+03  0.00000000000E+00 0. -1.
         11    1    1    2    0    0  0.15821049286E+02  0.10307580752E+00  0.72571062873E+01  0.17406372879E+02  0.00000000000E+00 0.  1.
</event>
<event>
 7    1  0.2855090E-009  0.1203490E+03  0.7561462E-02  0.1242522E+00
         -1   -1    0    0    0  501 -0.00000000000E+00  0.00000000000E+00  0.21562642128E+02  0.21562642128E+02  0.00000000000E+00 0.  1.
          1   -1    0    0  501    0  0.00000000000E+00 -0.00000000000E+00 -0.95795632064E+03  0.95795632064E+03  0.00000000000E+00 0. -1.
         25    2    1    2    0    0  0.84832645378E+02 -0.31228774047E+02 -0.42521922507E+03  0.45236156805E+03  0.12509110610E+03 0.  0.
          5    1    3    3  502    0  0.87384920469E+02 -0.27534671614E+01 -0.13618919254E+03  0.16189093387E+03  0.41800000000E+01 0. -1.
         -5    1    3    3    0  502 -0.25522750910E+01 -0.28475306886E+02 -0.28903003254E+03  0.29047063418E+03  0.41800000000E+01 0. -1.
        -11    1    1    2    0    0  0.97429059423E+01  0.27999022767E+02 -0.71273234621E+02  0.77192897765E+02  0.00000000000E+00 0.  1.
         11    1    1    2    0    0 -0.94575551320E+02  0.32297512797E+01 -0.43990121882E+03  0.44996449696E+03  0.00000000000E+00 0. -1.
</event>
<event>
 7    1  0.2855090E-009  0.1144657E+03  0.7561462E-02  0.1252517E+00
          1   -1    0    0  501    0  0.00000000000E+00  0.00000000000E+00  0.80800161560E+03  0.80800161560E+03  0.00000000000E+00 0. -1.
         -1   -1    0    0    0  501 -0.00000000000E+00 -0.00000000000E+00 -0.18324413094E+02  0.18324413094E+02  0.00000000000E+00 0.  1.
         25    2    1    2    0    0  0.51585693885E+02  0.21112472633E+02  0.45144929267E+03  0.47176326449E+03  0.12508914243E+03 0.  0.
          5    1    3    3  502    0  0.71804565186E+02  0.58968440875E+02  0.33141906745E+03  0.34422266525E+03  0.41800000000E+01 0.  1.
         -5    1    3    3    0  502 -0.20218871301E+02 -0.37855968241E+02  0.12003022522E+03  0.12754059924E+03  0.41800000000E+01 0.  1.
        -11    1    1    2    0    0 -0.15735964006E+01 -0.39489418214E+02  0.64094577932E+02  0.75299437427E+02  0.00000000000E+00 0.  1.
         11    1    1    2    0    0 -0.50012097484E+02  0.18376945580E+02  0.27413333190E+03  0.27926332677E+03  0.00000000000E+00 0. -1.
</event>
<event>
 7    1  0.2855090E-009  0.3275390E+03  0.7561462E-02  0.1072231E+00
         -1   -1    0    0    0  501 -0.00000000000E+00  0.00000000000E+00  0.56548042897E+03  0.56548042897E+03  0.00000000000E+00 0.  1.
          1   -1    0    0  501    0  0.00000000000E+00 -0.00000000000E+00 -0.27318936208E+03  0.27318936208E+03  0.00000000000E+00 0. -1.
         25    2    1    2    0    0  0.87550557795E+02  0.30672515912E+03 -0.68602084619E+02  0.34942524203E+03  0.12508529229E+03 0.  0.
          5    1    3    3  502    0 -0.87562294681E+01  0.83739773180E+02  0.26764565162E+02  0.88446794826E+02  0.41800000000E+01 0. -1.
         -5    1    3    3    0  502  0.96306787263E+02  0.22298538594E+03 -0.95366649781E+02  0.26097844721E+03  0.41800000000E+01 0. -1.
        -11    1    1    2    0    0 -0.14434773251E+01 -0.14171446087E+03  0.18601750658E+03  0.23385376798E+03  0.00000000000E+00 0. -1.
         11    1    1    2    0    0 -0.86107080470E+02 -0.16501069826E+03  0.17487564494E+03  0.25539078103E+03  0.00000000000E+00 0.  1.
</event>
<event>
 6    1  0.2855090E-009  0.1093748E+03  0.7561462E-02  0.1261732E+00
         -1   -1    0    0    0  501 -0.00000000000E+00  0.00000000000E+00  0.13111940294E+02  0.13111940294E+02  0.00000000000E+00 0.  1.
          1   -1    0    0  501    0  0.00000000000E+00 -0.00000000000E+00 -0.11688716006E+04  0.11688716006E+04  0.00000000000E+00 0. -1.
          5    1    1    2  502    0  0.38041526587E+02  0.20805399443E+02 -0.35408728006E+03  0.35675663510E+03  0.41800000000E+01 0.  1.
         -5    1    1    2    0  502 -0.54937588679E+02 -0.68816226924E+02 -0.44841080296E+03  0.45699401785E+03  0.41800000000E+01 0.  1.
        -11    1    1    2    0    0  0.26909792183E+02 -0.95916871456E+01 -0.37703740046E+02  0.47304433102E+02  0.00000000000E+00 0.  1.
         11    1    1    2    0    0 -0.10013730091E+02  0.57602514627E+02 -0.31555783722E+03  0.32092845482E+03  0.00000000000E+00 0. -1.
</event>
<event>
 7    1  0.2855090E-009  0.2069976E+03  0.7561462E-02  0.1143966E+00
         -2   -1    0    0    0  501 -0.00000000000E+00  0.00000000000E+00  0.17155648442E+03  0.17155648442E+03  0.00000000000E+00 0.  1.
          2   -1    0    0  501    0  0.00000000000E+00 -0.00000000000E+00 -0.27613690653E+03  0.27613690653E+03  0.00000000000E+00 0. -1.
         25    2    1    2    0    0  0.16240292377E+03  0.94788198247E+02 -0.53323462703E+02  0.23205686204E+03  0.12508990114E+03 0.  0.
          5    1    3    3  502    0 -0.18775353862E+02 -0.33957552062E+01 -0.74087902334E+01  0.20890371916E+02  0.41800000000E+01 0. -1.
         -5    1    3    3    0  502  0.18117827763E+03  0.98183953453E+02 -0.45914672469E+02  0.21116649012E+03  0.41800000000E+01 0. -1.
        -11    1    1    2    0    0 -0.11743532250E+03 -0.74020006383E+02  0.72165472697E+01  0.13900393833E+03  0.00000000000E+00 0.  1.
         11    1    1    2    0    0 -0.44967601268E+02 -0.20768191864E+02 -0.58473506671E+02  0.76632590583E+02  0.00000000000E+00 0. -1.
</event>
<event>
 7    1  0.2855090E-009  0.9449350E+02  0.7561462E-02  0.1292321E+00
          3   -1    0    0  501    0  0.00000000000E+00  0.00000000000E+00  0.61218579773E+03  0.61218579773E+03  0.00000000000E+00 0. -1.
         -3   -1    0    0    0  501 -0.00000000000E+00 -0.00000000000E+00 -0.23889731760E+02  0.23889731760E+02  0.00000000000E+00 0.  1.
         25    2    1    2    0    0 -0.41385142217E+02  0.14723329012E+02  0.25229899491E+03  0.28501292192E+03  0.12509227160E+03 0.  0.
          5    1    3    3  502    0  0.13802016331E+02 -0.18606415319E+02  0.20138440423E+03  0.20275562881E+03  0.41800000000E+01 0. -1.
         -5    1    3    3    0  502 -0.55187158548E+02  0.33329744331E+02  0.50914590684E+02  0.82257293113E+02  0.41800000000E+01 0. -1.
        -11    1    1    2    0    0 -0.16603706864E+01  0.35019057230E+02  0.95512957610E+02  0.10174387584E+03  0.00000000000E+00 0.  1.
         11    1    1    2    0    0  0.43045512903E+02 -0.49742386242E+02  0.24048411345E+03  0.24931873173E+03  0.00000000000E+00 0. -1.
</event>
<event>
 7    1  0.2855090E-009  0.1932636E+03  0.7561462E-02  0.1155550E+00
         -1   -1    0    0    0  501 -0.00000000000E+00  0.00000000000E+00  0.30033500177E+03  0.30033500177E+03  0.00000000000E+00 0.  1.
          1   -1    0    0  501    0  0.00000000000E+00 -0.00000000000E+00 -0.15595388616E+03  0.15595388616E+03  0.00000000000E+00 0. -1.
         25    2    1    2    0    0  0.11973189390E+03 -0.13730891905E+03  0.11930221125E+03  0.25113749703E+03  0.12509020401E+03 0.  0.
          5    1    3    3  502    0  0.51620404748E+02 -0.66054185555E+01 -0.12149239939E+02  0.53603863403E+02  0.41800000000E+01 0. -1.
         -5    1    3    3    0  502  0.68111489155E+02 -0.13070350049E+03  0.13145145119E+03  0.19753363363E+03  0.41800000000E+01 0. -1.
        -11    1    1    2    0    0 -0.94612838963E+02  0.12986365671E+03  0.50723232496E+02  0.16849037048E+03  0.00000000000E+00 0.  1.
         11    1    1    2    0    0 -0.25119054940E+02  0.74452623391E+01 -0.25644328135E+02  0.36661020415E+02  0.00000000000E+00 0. -1.
</event>
<event>
 7    1  0.2855090E-009  0.1083974E+03  0.7561462E-02  0.1263567E+00
         -4   -1    0    0    0  501 -0.00000000000E+00  0.00000000000E+00  0.46006411500E+03  0.46006411500E+03  0.00000000000E+00 0.  1.
          4   -1    0    0  501    0  0.00000000000E+00 -0.00000000000E+00 -0.36552153483E+02  0.36552153483E+02  0.00000000000E+00 0. -1.
         25    2    1    2    0    0  0.45762349644E+02  0.24999175774E+02  0.13157676648E+03  0.18889967871E+03  0.12510592194E+03 0.  0.
          5    1    3    3  502    0  0.42343571521E+02  0.66245261698E+02  0.39985678715E+02  0.88304811017E+02  0.41800000000E+01 0.  1.
         -5    1    3    3    0  502  0.34187781232E+01 -0.41246085924E+02  0.91591087763E+02  0.10059486769E+03  0.41800000000E+01 0.  1.
        -11    1    1    2    0    0 -0.45573004100E+02 -0.52181557743E+02  0.19067731827E+03  0.20287349106E+03  0.00000000000E+00 0.  1.
         11    1    1    2    0    0 -0.18934554330E+00  0.27182381969E+02  0.10125787677E+03  0.10484309872E+03  0.00000000000E+00 0. -1.
</event>
<event>
 7    1  0.2855090E-009  0.2337108E+03  0.7561462E-02  0.1124055E+00
          2   -1    0    0  501    0  0.00000000000E+00  0.00000000000E+00  0.18380003371E+04  0.18380003371E+04  0.00000000000E+00 0. -1.
         -2   -1    0    0    0  501 -0.00000000000E+00 -0.00000000000E+00 -0.45589437587E+02  0.45589437587E+02  0.00000000000E+00 0.  1.
         25    2    1    2    0    0 -0.67563048773E+02  0.19812762804E+03  0.14596030244E+04  0.14798339690E+04  0.12509302321E+03 0.  0.
          5    1    3    3  502    0 -0.56293362489E+02  0.21284336472E+03  0.12391177781E+04  0.12585315176E+04  0.41800000000E+01 0. -1.
         -5    1    3    3    0  502 -0.11269686284E+02 -0.14715736675E+02  0.22048524634E+03  0.22130245139E+03  0.41800000000E+01 0. -1.
        -11    1    1    2    0    0  0.39628744094E+02 -0.14067523101E+02  0.52639935786E+02  0.67374293348E+02  0.00000000000E+00 0.  1.
         11    1    1    2    0    0  0.27934304679E+02 -0.18406010494E+03  0.28016793933E+03  0.33638151233E+03  0.00000000000E+00 0. -1.
</event>
<event>
 7    1  0.2855090E-009  0.9404291E+02  0.7561462E-02  0.1293346E+00
         -1   -1    0    0    0  501 -0.00000000000E+00  0.00000000000E+00  0.22377833717E+02  0.22377833717E+02  0.00000000000E+00 0.  1.
          1   -1    0    0  501    0  0.00000000000E+00 -0.00000000000E+00 -0.73749897454E+03  0.73749897454E+03  0.00000000000E+00 0. -1.
         25    2    1    2    0    0 -0.47313116171E+02  0.14453270347E+00 -0.54951685276E+03  0.56556082166E+03  0.12510683304E+03 0.  0.
          5    1    3    3  502    0 -0.20655662958E+02  0.54590308407E+02 -0.14271935272E+03  0.15424994077E+03  0.41800000000E+01 0.  1.
         -5    1    3    3    0  502 -0.26657453213E+02 -0.54445775704E+02 -0.40679750004E+03  0.41131088090E+03  0.41800000000E+01 0.  1.
        -11    1    1    2    0    0  0.15307307499E+02 -0.24290317456E+02 -0.14760019261E+03  0.15036671854E+03  0.00000000000E+00 0. -1.
         11    1    1    2    0    0  0.32005808672E+02  0.24145784753E+02 -0.18004095447E+02  0.43949268059E+02  0.00000000000E+00 0.  1.
</event>
<event>
 7    1  0.2855090E-009  0.3003476E+03  0.7561462E-02  0.1085067E+00
          2   -1    0    0  501    0  0.00000000000E+00  0.00000000000E+00  0.54028469468E+03  0.54028469468E+03  0.00000000000E+00 0.  1.
         -2   -1    0    0    0  501 -0.00000000000E+00 -0.00000000000E+00 -0.23491471426E+03  0.23491471426E+03  0.00000000000E+00 0. -1.
         25    2    1    2    0    0 -0.28524871800E+03  0.61833785080E+02  0.34196902649E+03  0.46666992784E+03  0.12509100037E+03 0.  0.
          5    1    3    3  502    0 -0.28015848241E+03  0.65009172453E+02  0.27055593399E+03  0.39488346836E+03  0.41800000000E+01 0.  1.
         -5    1    3    3    0  502 -0.50902355852E+01 -0.31753873727E+01  0.71413092500E+02  0.71786459473E+02  0.41800000000E+01 0.  1.
        -11    1    1    2    0    0  0.27335628945E+03 -0.79294469197E+02 -0.38932127921E+02  0.28727510232E+03  0.00000000000E+00 0.  1.
         11    1    1    2    0    0  0.11892428549E+02  0.17460684116E+02  0.23330818498E+01  0.21254378784E+02  0.00000000000E+00 0. -1.
</event>
<event>
 7    1  0.2855090E-009  0.1140046E+03  0.7561462E-02  0.1253329E+00
          3   -1    0    0  501    0  0.00000000000E+00  0.00000000000E+00  0.46897418049E+02  0.46897418049E+02  0.00000000000E+00 0. -1.
         -3   -1    0    0    0  501 -0.00000000000E+00 -0.00000000000E+00 -0.46903299755E+03  0.46903299755E+03  0.00000000000E+00 0.  1.
         25    2    1    2    0    0  0.58343842927E+01 -0.68068920068E+02 -0.35636261248E+03  0.38380419434E+03  0.12507569748E+03 0.  0.
          5    1    3    3  502    0 -0.47432288607E+02 -0.58289169231E+02 -0.28100757907E+03  0.29091266928E+03  0.41800000000E+01 0. -1.
         -5    1    3    3    0  502  0.53266672900E+02 -0.97797508373E+01 -0.75355033411E+02  0.92891525063E+02  0.41800000000E+01 0. -1.
        -11    1    1    2    0    0 -0.36541530392E+02  0.20766830102E+02 -0.62909856274E+02  0.75658407942E+02  0.00000000000E+00 0.  1.
         11    1    1    2    0    0  0.30707146100E+02  0.47302089966E+02 -0.28631107412E+01  0.56467813309E+02  0.00000000000E+00 0. -1.
</event>
<event>
 7    1  0.2855090E-009  0.1255808E+03  0.7561462E-02  0.1234164E+00
          1   -1    0    0  501    0  0.00000000000E+00  0.00000000000E+00  0.10425157104E+04  0.10425157104E+04  0.00000000000E+00 0. -1.
         -1   -1    0    0    0  501 -0.00000000000E+00 -0.00000000000E+00 -0.21509535921E+02  0.21509535921E+02  0.00000000000E+00 0.  1.
         25    2    1    2    0    0  0.50863548171E+02 -0.71361499169E+02  0.35902436437E+03  0.39015804252E+03  0.12508093315E+03 0.  0.
          5    1    3    3  502    0  0.42504423352E+02 -0.92606050264E+02  0.35113507373E+03  0.36564438866E+03  0.41800000000E+01 0. -1.
         -5    1    3    3    0  502  0.83591248192E+01  0.21244551095E+02  0.78892906338E+01  0.24513653863E+02  0.41800000000E+01 0. -1.
        -11    1    1    2    0    0 -0.34702218803E+02 -0.15221293853E+02  0.19218608894E+03  0.19588625413E+03  0.00000000000E+00 0.  1.
         11    1    1    2    0    0 -0.16161329368E+02  0.86582793021E+02  0.46979572113E+03  0.47798094962E+03  0.00000000000E+00 0. -1.
</event>
<event>
 7    1  0.2855090E-009  0.1122939E+03  0.7561462E-02  0.1256380E+00
         -1   -1    0    0    0  501 -0.00000000000E+00  0.00000000000E+00  0.36503330277E+02  0.36503330277E+02  0.00000000000E+00 0.  1.
          1   -1    0    0  501    0  0.00000000000E+00 -0.00000000000E+00 -0.49198176374E+03  0.49198176374E+03  0.00000000000E+00 0. -1.
         25    2    1    2    0    0 -0.14363424229E+02 -0.75891295727E+02 -0.28531590691E+03  0.32096497711E+03  0.12509017976E+03 0.  0.
          5    1    3    3  502    0  0.38538816149E+02 -0.83589308768E+02 -0.19988305518E+03  0.22009798055E+03  0.41800000000E+01 0. -1.
         -5    1    3    3    0  502 -0.52902240378E+02  0.76980130418E+01 -0.85432851726E+02  0.10086699656E+03  0.41800000000E+01 0. -1.
        -11    1    1    2    0    0  0.12955395163E+02  0.27354200338E+02  0.30817495660E+00  0.30268622561E+02  0.00000000000E+00 0.  1.
         11    1    1    2    0    0  0.14080290661E+01  0.48537095389E+02 -0.17047070151E+03  0.17725149434E+03  0.00000000000E+00 0. -1.
</event>
<event>
 7    1  0.2855090E-009  0.3190729E+03  0.7561462E-02  0.1076077E+00
         -3   -1    0    0    0  501 -0.00000000000E+00  0.00000000000E+00  0.52851911338E+02  0.52851911338E+02  0.00000000000E+00 0.  1.
          3   -1    0    0  501    0  0.00000000000E+00 -0.00000000000E+00 -0.20070717093E+04  0.20070717093E+04  0.00000000000E+00 0. -1.
         25    2    1    2    0    0 -0.17963842965E+03  0.24861966851E+03 -0.95945866211E+03  0.10150324593E+04  0.12509302160E+03 0.  0.
          5    1    3    3  502    0 -0.50865523745E+01 -0.85117073298E+01 -0.10951898194E+03  0.11004636288E+03  0.41800000000E+01 0. -1.
         -5    1    3    3    0  502 -0.17455187728E+03  0.25713137584E+03 -0.84993968017E+03  0.90498609637E+03  0.41800000000E+01 0.  1.
        -11    1    1    2    0    0  0.95430921591E+02 -0.19401141407E+03 -0.60721042840E+03  0.64455565620E+03  0.00000000000E+00 0.  1.
         11    1    1    2    0    0  0.84207508060E+02 -0.54608254433E+02 -0.38755070742E+03  0.40033550515E+03  0.00000000000E+00 0. -1.
</event>
<event>
 7    1  0.2855090E-009  0.1047340E+03  0.7561462E-02  0.1270645E+00
         -1   -1    0    0    0  501 -0.00000000000E+00  0.00000000000E+00  0.84688616805E+02  0.84688616805E+02  0.00000000000E+00 0.  1.
          1   -1    0    0  501    0  0.00000000000E+00 -0.00000000000E+00 -0.17148394309E+03  0.17148394309E+03  0.00000000000E+00 0. -1.
         25    2    1    2    0    0 -0.14706934633E+02  0.30675635333E+02 -0.11491049918E+02  0.13013870349E+03  0.12508696730E+03 0.  0.
          5    1    3    3  502    0  0.57185787285E+01 -0.47347339241E+02  0.34867061395E+01  0.48001064526E+02  0.41800000000E+01 0. -1.
         -5    1    3    3    0  502 -0.20425513361E+02  0.78022974574E+02 -0.14977756058E+02  0.82137638960E+02  0.41800000000E+01 0. -1.
        -11    1    1    2    0    0  0.21343583558E+02  0.20283171987E+02 -0.68035009293E+02  0.74133110784E+02  0.00000000000E+00 0. -1.
         11    1    1    2    0    0 -0.66366489248E+01 -0.50958807320E+02 -0.72692670706E+01  0.51900745622E+02  0.00000000000E+00 0.  1.
</event>
<event>
 7    1  0.2855090E-009  0.9358349E+02  0.7561462E-02  0.1294399E+00
          2   -1    0    0  501    0  0.00000000000E+00  0.00000000000E+00  0.64098188585E+03  0.64098188585E+03  0.00000000000E+00 0. -1.
         -2   -1    0    0    0  501 -0.00000000000E+00 -0.00000000000E+00 -0.21859125052E+02  0.21859125052E+02  0.00000000000E+00 0.  1.
         25    2    1    2    0    0  0.28327136795E+02  0.45046893674E+02  0.34894406156E+03  0.37448750629E+03  0.12508910807E+03 0.  0.
          5    1    3    3  502    0  0.46106559684E+01  0.60225915784E+02  0.63912821398E+02  0.88038288372E+02  0.41800000000E+01 0.  1.
         -5    1    3    3    0  502  0.23716480827E+02 -0.15179022109E+02  0.28503124016E+03  0.28644921791E+03  0.41800000000E+01 0.  1.
        -11    1    1    2    0    0 -0.45590073647E+02 -0.59972147253E+02  0.17591207583E+03  0.19136397697E+03  0.00000000000E+00 0.  1.
         11    1    1    2    0    0  0.17262936851E+02  0.14925253579E+02  0.94266623410E+02  0.96989527642E+02  0.00000000000E+00 0. -1.
</event>
<event>
 7    1  0.2855090E-009  0.1483441E+03  0.7561462E-02  0.1202523E+00
         -2   -1    0    0    0  501 -0.00000000000E+00  0.00000000000E+00  0.13962556254E+03  0.13962556254E+03  0.00000000000E+00 0. -1.
          2   -1    0    0  501    0  0.00000000000E+00 -0.00000000000E+00 -0.20904696812E+03  0.20904696812E+03  0.00000000000E+00 0.  1.
         25    2    1    2    0    0  0.12727289673E+03  0.12290861271E+02 -0.67764598296E+02  0.19128997003E+03  0.12510138423E+03 0.  0.
          5    1    3    3  502    0  0.42519456426E+02  0.32150369542E+02  0.29194626569E+02  0.60920842550E+02  0.41800000000E+01 0. -1.
         -5    1    3    3    0  502  0.84753440307E+02 -0.19859508271E+02 -0.96959224865E+02  0.13036912748E+03  0.41800000000E+01 0. -1.
        -11    1    1    2    0    0 -0.43861582521E+02  0.38541439621E+02 -0.10415453149E+02  0.59310729667E+02  0.00000000000E+00 0.  1.
         11    1    1    2    0    0 -0.83411314212E+02 -0.50832300892E+02  0.87586458617E+01  0.98071830970E+02  0.00000000000E+00 0. -1.
</event>
<event>
 7    1  0.2855090E-009  0.1087480E+03  0.7561462E-02  0.1262906E+00
          2   -1    0    0  501    0  0.00000000000E+00  0.00000000000E+00  0.13054819622E+03  0.13054819622E+03  0.00000000000E+00 0. -1.
         -2   -1    0    0    0  501 -0.00000000000E+00 -0.00000000000E+00 -0.19974932373E+03  0.19974932373E+03  0.00000000000E+00 0.  1.
         25    2    1    2    0    0 -0.79753733546E+02 -0.32746207958E+02  0.44822860208E+02  0.15839632585E+03  0.12508930848E+03 0.  0.
          5    1    3    3  502    0 -0.75653645802E+02 -0.34933242731E+02 -0.25927838891E+02  0.87370079549E+02  0.41800000000E+01 0.  1.
         -5    1    3    3    0  502 -0.41000877441E+01  0.21870347732E+01  0.70750699099E+02  0.71026246301E+02  0.41800000000E+01 0.  1.
        -11    1    1    2    0    0  0.87881375141E+02  0.55303527743E+02 -0.99816472248E+02  0.14403105363E+03  0.00000000000E+00 0.  1.
         11    1    1    2    0    0 -0.81276415949E+01 -0.22557319785E+02 -0.14207515470E+02  0.27870140467E+02  0.00000000000E+00 0. -1.
</event>
<event>
 7    1  0.2855090E-009  0.1046092E+03  0.7561462E-02  0.1270891E+00
          2   -1    0    0  501    0  0.00000000000E+00  0.00000000000E+00  0.37491261439E+03  0.37491261439E+03  0.00000000000E+00 0. -1.
         -2   -1    0    0    0  501 -0.00000000000E+00 -0.00000000000E+00 -0.32725809834E+02  0.32725809834E+02  0.00000000000E+00 0.  1.
         25    2    1    2    0    0  0.23523173365E+02  0.10334563798E+02  0.21832429875E+03  0.25292838905E+03  0.12508847936E+03 0.  0.
          5    1    3    3  502    0  0.72423672696E+02 -0.66829828765E+01  0.15307768970E+03  0.16952905978E+03  0.41800000000E+01 0.  1.
         -5    1    3    3    0  502 -0.48900499330E+02  0.17017546675E+02  0.65246609043E+02  0.83399329262E+02  0.41800000000E+01 0.  1.
        -11    1    1    2    0    0 -0.49464264334E+02 -0.24134863198E+02  0.46835056167E+02  0.72268440926E+02  0.00000000000E+00 0.  1.
         11    1    1    2    0    0  0.25941090969E+02  0.13800299400E+02  0.77027449643E+02  0.82441594251E+02  0.00000000000E+00 0. -1.
</event>
<event>
 7    1  0.2855090E-009  0.1111871E+03  0.7561462E-02  0.1258387E+00
         -3   -1    0    0    0  501 -0.00000000000E+00  0.00000000000E+00  0.32940715978E+02  0.32940715978E+02  0.00000000000E+00 0.  1.
          3   -1    0    0  501    0  0.00000000000E+00 -0.00000000000E+00 -0.75812405417E+03  0.75812405417E+03  0.00000000000E+00 0. -1.
         25    2    1    2    0    0 -0.10010997764E+03  0.25536949672E+02 -0.51171746880E+03  0.53682089363E+03  0.12509100904E+03 0.  0.
          5    1    3    3  502    0 -0.62727559390E+02 -0.20735700052E+01 -0.47012217935E+03  0.47431148238E+03  0.41800000000E+01 0. -1.
         -5    1    3    3    0  502 -0.37382418245E+02  0.27610519677E+02 -0.41595289455E+02  0.62509411256E+02  0.41800000000E+01 0. -1.
        -11    1    1    2    0    0  0.77195630677E+02 -0.38735038025E+02 -0.21062839824E+03  0.22764861236E+03  0.00000000000E+00 0. -1.
         11    1    1    2    0    0  0.22914346958E+02  0.13198088353E+02 -0.28374711475E+01  0.26595264150E+02  0.00000000000E+00 0.  1.
</event>
<event>
 7    1  0.2855090E-009  0.6850768E+02  0.7561462E-02  0.1365243E+00
         -3   -1    0    0    0  501 -0.00000000000E+00  0.00000000000E+00  0.22031422057E+02  0.22031422057E+02  0.00000000000E+00 0.  1.
          3   -1    0    0  501    0  0.00000000000E+00 -0.00000000000E+00 -0.59375754328E+03  0.59375754328E+03  0.00000000000E+00 0. -1.
         25    2    1    2    0    0 -0.18843465388E+02 -0.26971987490E+02 -0.37268379580E+03  0.39448810590E+03  0.12508033318E+03 0.  0.
          5    1    3    3  502    0 -0.68792233142E+01  0.54467409528E+01 -0.35556602537E+03  0.35569883539E+03  0.41800000000E+01 0.  1.
         -5    1    3    3    0  502 -0.11964242074E+02 -0.32418728443E+02 -0.17117770431E+02  0.38789270512E+02  0.41800000000E+01 0.  1.
        -11    1    1    2    0    0 -0.29497173214E+02 -0.10515330470E+02 -0.39331080740E+02  0.50275136148E+02  0.00000000000E+00 0.  1.
         11    1    1    2    0    0  0.48340638602E+02  0.37487317960E+02 -0.15971124469E+03  0.17102572329E+03  0.00000000000E+00 0. -1.
</event>
<event>
 7    1  0.3026453E-009  0.1294011E+03  0.7561462E-02  0.1228347E+00
          2   -1    0    0  501    0  0.00000000000E+00  0.00000000000E+00  0.22040703152E+04  0.22040703152E+04  0.00000000000E+00 0. -1.
         -2   -1    0    0    0  501 -0.00000000000E+00 -0.00000000000E+00 -0.94991939229E+01  0.94991939229E+01  0.00000000000E+00 0.  1.
         25    2    1    2    0    0  0.66928776677E+02  0.29518257702E+02  0.16579691437E+04  0.16642897017E+04  0.12509093144E+03 0.  0.
          5    1    3    3  502    0  0.62620590845E+02 -0.39358750686E+02  0.73028071159E+03  0.73402850065E+03  0.41800000000E+01 0.  1.
         -5    1    3    3    0  502  0.43081858316E+01  0.68877008388E+02  0.92768843213E+03  0.93026120110E+03  0.41800000000E+01 0.  1.
        -11    1    1    2    0    0 -0.50992536328E+02 -0.61476499730E+02  0.32402761874E+03  0.33372667932E+03  0.00000000000E+00 0.  1.
         11    1    1    2    0    0 -0.15936240349E+02  0.31958242028E+02  0.21257435877E+03  0.21555312801E+03  0.00000000000E+00 0. -1.
</event>
<event>
 7    1  0.2855090E-009  0.8895873E+02  0.7561462E-02  0.1305393E+00
          2   -1    0    0  501    0  0.00000000000E+00  0.00000000000E+00  0.86061485780E+03  0.86061485780E+03  0.00000000000E+00 0. -1.
         -2   -1    0    0    0  501 -0.00000000000E+00 -0.00000000000E+00 -0.17063204460E+02  0.17063204460E+02  0.00000000000E+00 0.  1.
         25    2    1    2    0    0  0.27460655536E+02 -0.38282574068E+02  0.37508099449E+03  0.39818778370E+03  0.12509242814E+03 0.  0.
          5    1    3    3  502    0 -0.36007994903E+01 -0.43858205476E+02  0.36045449505E+03  0.36315482008E+03  0.41800000000E+01 0. -1.
         -5    1    3    3    0  502  0.31061455026E+02  0.55756314073E+01  0.14626499439E+02  0.35032963617E+02  0.41800000000E+01 0. -1.
        -11    1    1    2    0    0 -0.43972273352E+02 -0.14715657061E+02  0.19428274030E+03  0.19973956685E+03  0.00000000000E+00 0.  1.
         11    1    1    2    0    0  0.16511617816E+02  0.52998231130E+02  0.27418791855E+03  0.27975071172E+03  0.00000000000E+00 0. -1.
</event>
<event>
 7    1  0.2855090E-009  0.1282809E+03  0.7561462E-02  0.1230029E+00
         -1   -1    0    0    0  501 -0.00000000000E+00  0.00000000000E+00  0.82772279888E+02  0.82772279888E+02  0.00000000000E+00 0. -1.
          1   -1    0    0  501    0  0.00000000000E+00 -0.00000000000E+00 -0.30839919748E+03  0.30839919748E+03  0.00000000000E+00 0.  1.
         25    2    1    2    0    0 -0.43061348508E+02 -0.10524315539E+03 -0.16285789117E+03  0.23472952544E+03  0.12507939841E+03 0.  0.
          5    1    3    3  502    0 -0.49428101468E+01 -0.35873198133E+02 -0.15007911169E+03  0.15444264269E+03  0.41800000000E+01 0. -1.
         -5    1    3    3    0  502 -0.38118538361E+02 -0.69369957258E+02 -0.12778779483E+02  0.80286882751E+02  0.41800000000E+01 0. -1.
        -11    1    1    2    0    0 -0.25248328628E+02  0.26500328529E+02 -0.29524702509E+02  0.47026094553E+02  0.00000000000E+00 0.  1.
         11    1    1    2    0    0  0.68309677136E+02  0.78742826861E+02 -0.33244323913E+02  0.10941585737E+03  0.00000000000E+00 0. -1.
</event>
<event>
 7    1  0.2855090E-009  0.1284026E+03  0.7561462E-02  0.1229845E+00
          2   -1    0    0  501    0  0.00000000000E+00  0.00000000000E+00  0.75125846380E+03  0.75125846380E+03  0.00000000000E+00 0.  1.
         -2   -1    0    0    0  501 -0.00000000000E+00 -0.00000000000E+00 -0.32113386291E+02  0.32113386291E+02  0.00000000000E+00 0. -1.
         25    2    1    2    0    0 -0.56000160419E+02 -0.64246481951E+02  0.56813491095E+03  0.58795184512E+03  0.12508583745E+03 0.  0.
          5    1    3    3  502    0  0.29808262248E+02 -0.12410519437E+02  0.46564474003E+02  0.56817920853E+02  0.41800000000E+01 0.  1.
         -5    1    3    3    0  502 -0.85808422667E+02 -0.51835962514E+02  0.52157043695E+03  0.53113392427E+03  0.41800000000E+01 0.  1.
        -11    1    1    2    0    0 -0.12774870088E+02  0.52633285847E+02  0.61660499744E+02  0.82069953780E+02  0.00000000000E+00 0. -1.
         11    1    1    2    0    0  0.68775030507E+02  0.11613196104E+02  0.89349666816E+02  0.11335005119E+03  0.00000000000E+00 0.  1.
</event>
<event>
 7    1  0.2855090E-009  0.1088282E+03  0.7561462E-02  0.1262755E+00
          1   -1    0    0  501    0  0.00000000000E+00  0.00000000000E+00  0.81867940305E+03  0.81867940305E+03  0.00000000000E+00 0. -1.
         -1   -1    0    0    0  501 -0.00000000000E+00 -0.00000000000E+00 -0.24080946001E+02  0.24080946001E+02  0.00000000000E+00 0.  1.
         25    2    1    2    0    0 -0.80293429568E+02 -0.35610764984E+02  0.47901165207E+03  0.50280610984E+03  0.12508660941E+03 0.  0.
          5    1    3    3  502    0 -0.24965906091E+02  0.42511330559E+01  0.80293491135E+01  0.26894450103E+02  0.41800000000E+01 0.  1.
         -5    1    3    3    0  502 -0.55327523477E+02 -0.39861898040E+02  0.47098230296E+03  0.47591165974E+03  0.41800000000E+01 0.  1.
        -11    1    1    2    0    0  0.45381478895E+02  0.64148028710E+02  0.23251488270E+03  0.24543353253E+03  0.00000000000E+00 0.  1.
         11    1    1    2    0    0  0.34911950673E+02 -0.28537263727E+02  0.83071922271E+02  0.94520706677E+02  0.00000000000E+00 0. -1.
</event>
<event>
 7    1  0.2855090E-009  0.9026813E+02  0.7561462E-02  0.1302204E+00
         -2   -1    0    0    0  501 -0.00000000000E+00  0.00000000000E+00  0.46371747333E+03  0.46371747333E+03  0.00000000000E+00 0.  1.
          2   -1    0    0  501    0  0.00000000000E+00 -0.00000000000E+00 -0.70739085069E+02  0.70739085069E+02  0.00000000000E+00 0. -1.
         25    2    1    2    0    0  0.12067055930E+02 -0.25773136879E+02  0.41747254378E+03  0.43673905110E+03  0.12509118882E+03 0.  0.
          5    1    3    3  502    0 -0.87646243158E+01  0.43167920751E+02  0.25721164752E+03  0.26098963972E+03  0.41800000000E+01 0. -1.
         -5    1    3    3    0  502  0.20831680245E+02 -0.68941057630E+02  0.16026089626E+03  0.17574941137E+03  0.41800000000E+01 0. -1.
        -11    1    1    2    0    0  0.35400716396E+01  0.41699880841E+02  0.21169939450E+02  0.46899664238E+02  0.00000000000E+00 0.  1.
         11    1    1    2    0    0 -0.15607127569E+02 -0.15926743962E+02 -0.45664094970E+02  0.50817843063E+02  0.00000000000E+00 0. -1.
</event>
<event>
 7    1  0.2855090E-009  0.1048308E+03  0.7561462E-02  0.1270453E+00
         -1   -1    0    0    0  501 -0.00000000000E+00  0.00000000000E+00  0.38445292334E+02  0.38445292334E+02  0.00000000000E+00 0.  1.
          1   -1    0    0  501    0  0.00000000000E+00 -0.00000000000E+00 -0.34015250833E+03  0.34015250833E+03  0.00000000000E+00 0. -1.
         25    2    1    2    0    0  0.31097230838E+02 -0.30638907113E+02 -0.16965929521E+03  0.21526624494E+03  0.12509795908E+03 0.  0.
          5    1    3    3  502    0  0.74800928271E+02 -0.38781905472E+02 -0.86191214546E+02  0.12060519444E+03  0.41800000000E+01 0.  1.
         -5    1    3    3    0  502 -0.43703697433E+02  0.81429983590E+01 -0.83468080663E+02  0.94661050497E+02  0.41800000000E+01 0.  1.
        -11    1    1    2    0    0 -0.49814175312E+02  0.67014544321E+01 -0.33998576404E+02  0.60681667339E+02  0.00000000000E+00 0.  1.
         11    1    1    2    0    0  0.18716944474E+02  0.23937452681E+02 -0.98049344387E+02  0.10264988839E+03  0.00000000000E+00 0. -1.
</event>
<event>
 7    1  0.2855090E-009  0.8677492E+02  0.7561462E-02  0.1310855E+00
          1   -1    0    0  501    0  0.00000000000E+00  0.00000000000E+00  0.64376140500E+02  0.64376140500E+02  0.00000000000E+00 0. -1.
         -1   -1    0    0    0  501 -0.00000000000E+00 -0.00000000000E+00 -0.28587953506E+03  0.28587953506E+03  0.00000000000E+00 0.  1.
         25    2    1    2    0    0 -0.36582328119E+02 -0.37527857696E+02 -0.20322574765E+03  0.24432414094E+03  0.12508786712E+03 0.  0.
          5    1    3    3  502    0 -0.51051682186E+02 -0.42492497977E+02 -0.34704486087E+02  0.75058379898E+02  0.41800000000E+01 0. -1.
         -5    1    3    3    0  502  0.14469354066E+02  0.49646402808E+01 -0.16852126157E+03  0.16926576104E+03  0.41800000000E+01 0. -1.
        -11    1    1    2    0    0  0.47223572741E+02 -0.48245982013E+01 -0.35202216818E+02  0.59097704178E+02  0.00000000000E+00 0.  1.
         11    1    1    2    0    0 -0.10641244622E+02  0.42352455897E+02  0.16924569910E+02  0.46833830446E+02  0.00000000000E+00 0. -1.
</event>
<event>
 7    1  0.2855090E-009  0.2047118E+03  0.7561462E-02  0.1145823E+00
          2   -1    0    0  501    0  0.00000000000E+00  0.00000000000E+00  0.84308845735E+03  0.84308845735E+03  0.00000000000E+00 0.  1.
         -2   -1    0    0    0  501 -0.00000000000E+00 -0.00000000000E+00 -0.55483521164E+02  0.55483521164E+02  0.00000000000E+00 0. -1.
         25    2    1    2    0    0 -0.13176030601E+03  0.11719832808E+03  0.28154393100E+03  0.35497951051E+03  0.12508893417E+03 0.  0.
          5    1    3    3  502    0  0.32447638933E+01 -0.21771247729E+02  0.29708981018E+02  0.37210370510E+02  0.41800000000E+01 0. -1.
         -5    1    3    3    0  502 -0.13500506990E+03  0.13896957581E+03  0.25183494998E+03  0.31776914000E+03  0.41800000000E+01 0. -1.
        -11    1    1    2    0    0  0.40174573428E+02 -0.88590231803E+02  0.31681849861E+03  0.33141542901E+03  0.00000000000E+00 0.  1.
         11    1    1    2    0    0  0.91585732581E+02 -0.28608096280E+02  0.18924250658E+03  0.21217703901E+03  0.00000000000E+00 0. -1.
</event>
<event>
 7    1  0.2855090E-009  0.1873756E+03  0.7561462E-02  0.1160850E+00
          2   -1    0    0  501    0  0.00000000000E+00  0.00000000000E+00  0.43311206309E+03  0.43311206309E+03  0.00000000000E+00 0. -1.
         -2   -1    0    0    0  501 -0.00000000000E+00 -0.00000000000E+00 -0.90434133160E+02  0.90434133160E+02  0.00000000000E+00 0.  1.
         25    2    1    2    0    0 -0.72090200295E+02  0.14861350005E+03  0.19778319885E+03  0.28644287671E+03  0.12509339907E+03 0.  0.
          5    1    3    3  502    0 -0.82908776589E+01  0.13460356186E+03  0.96617085794E+02  0.16594936332E+03  0.41800000000E+01 0.  1.
         -5    1    3    3    0  502 -0.63799322636E+02  0.14009938187E+02  0.10116611306E+03  0.12049351339E+03  0.41800000000E+01 0.  1.
        -11    1    1    2    0    0  0.51513448782E+02 -0.43969895165E+02  0.10137613312E+03  0.12191844591E+03  0.00000000000E+00 0. -1.
         11    1    1    2    0    0  0.20576751514E+02 -0.10464360488E+03  0.43518597951E+02  0.11518487363E+03  0.00000000000E+00 0.  1.
</event>
<event>
 7    1  0.2855090E-009  0.1489574E+03  0.7561462E-02  0.1201760E+00
          2   -1    0    0  501    0  0.00000000000E+00  0.00000000000E+00  0.25186926315E+03  0.25186926315E+03  0.00000000000E+00 0. -1.
         -2   -1    0    0    0  501 -0.00000000000E+00 -0.00000000000E+00 -0.16117854582E+03  0.16117854582E+03  0.00000000000E+00 0.  1.
         25    2    1    2    0    0 -0.64644297330E+02 -0.84615774636E+02  0.17769339224E+03  0.24199347972E+03  0.12508872085E+03 0.  0.
          5    1    3    3  502    0 -0.88517793048E+02 -0.14568712827E+02  0.10512800799E+03  0.13826430322E+03  0.41800000000E+01 0. -1.
         -5    1    3    3    0  502  0.23873495718E+02 -0.70047061810E+02  0.72565384250E+02  0.10372917650E+03  0.41800000000E+01 0.  1.
        -11    1    1    2    0    0  0.76672315384E+02  0.37483315800E+02 -0.87746773482E+02  0.12240563372E+03  0.00000000000E+00 0.  1.
         11    1    1    2    0    0 -0.12028018054E+02  0.47132458837E+02  0.74409856122E+00  0.48648695532E+02  0.00000000000E+00 0. -1.
</event>
<event>
 7    1  0.2855090E-009  0.1046154E+03  0.7561462E-02  0.1270879E+00
          2   -1    0    0  501    0  0.00000000000E+00  0.00000000000E+00  0.87711559727E+02  0.87711559727E+02  0.00000000000E+00 0. -1.
         -2   -1    0    0    0  501 -0.00000000000E+00 -0.00000000000E+00 -0.17457099464E+03  0.17457099464E+03  0.00000000000E+00 0.  1.
         25    2    1    2    0    0  0.43281581404E+02 -0.25822501961E+02 -0.97884325811E+01  0.13521614248E+03  0.12508994715E+03 0.  0.
          5    1    3    3  502    0  0.39164935027E+02 -0.60975199737E+02 -0.44763325666E+02  0.85282441589E+02  0.41800000000E+01 0.  1.
         -5    1    3    3    0  502  0.41166463768E+01  0.35152697775E+02  0.34974893085E+02  0.49933700890E+02  0.41800000000E+01 0.  1.
        -11    1    1    2    0    0 -0.88989128847E+00 -0.30497581123E+02 -0.24524536942E+02  0.39145207536E+02  0.00000000000E+00 0. -1.
         11    1    1    2    0    0 -0.42391690116E+02  0.56320083084E+02 -0.52546465387E+02  0.87921204349E+02  0.00000000000E+00 0.  1.
</event>
<event>
 7    1  0.2855090E-009  0.1288464E+03  0.7561462E-02  0.1229178E+00
         -2   -1    0    0    0  501 -0.00000000000E+00  0.00000000000E+00  0.70534396795E+02  0.70534396795E+02  0.00000000000E+00 0.  1.
          2   -1    0    0  501    0  0.00000000000E+00 -0.00000000000E+00 -0.26205526605E+03  0.26205526605E+03  0.00000000000E+00 0. -1.
         25    2    1    2    0    0 -0.22160522456E+02  0.79369729445E+02 -0.12742622024E+03  0.19666201311E+03  0.12509141892E+03 0.  0.
          5    1    3    3  502    0 -0.85639251544E+01 -0.29748836333E+02 -0.59893232263E+02  0.67550024042E+02  0.41800000000E+01 0.  1.
         -5    1    3    3    0  502 -0.13596597301E+02  0.10911856578E+03 -0.67532987974E+02  0.12911198907E+03  0.41800000000E+01 0.  1.
        -11    1    1    2    0    0 -0.75580509577E+01 -0.85696040908E+02 -0.32148254138E+02  0.91839238922E+02  0.00000000000E+00 0. -1.
         11    1    1    2    0    0  0.29718573413E+02  0.63263114629E+01 -0.31946394882E+02  0.44088410817E+02  0.00000000000E+00 0.  1.
</event>
<event>
 7    1  0.2855090E-009  0.1189708E+03  0.7561462E-02  0.1244805E+00
         -2   -1    0    0    0  501 -0.00000000000E+00  0.00000000000E+00  0.45781759513E+02  0.45781759513E+02  0.00000000000E+00 0.  1.
          2   -1    0    0  501    0  0.00000000000E+00 -0.00000000000E+00 -0.33384907325E+03  0.33384907325E+03  0.00000000000E+00 0. -1.
         25    2    1    2    0    0  0.51905550739E+02  0.12304562738E+02 -0.17649563175E+03  0.22280737595E+03  0.12508729068E+03 0.  0.
          5    1    3    3  502    0  0.51832715925E+02  0.63726568409E+02 -0.12702902773E+03  0.15133258819E+03  0.41800000000E+01 0. -1.
         -5    1    3    3    0  502  0.72834813580E-01 -0.51422005672E+02 -0.49466604022E+02  0.71474787763E+02  0.41800000000E+01 0. -1.
        -11    1    1    2    0    0 -0.77321111879E+02 -0.42500258010E+01 -0.57219777782E+02  0.96284578365E+02  0.00000000000E+00 0.  1.
         11    1    1    2    0    0  0.25415561140E+02 -0.80545369367E+01 -0.54351904195E+02  0.60538878442E+02  0.00000000000E+00 0. -1.
</event>
<event>
 7    1  0.2855090E-009  0.1100222E+03  0.7561462E-02  0.1260529E+00
          2   -1    0    0  501    0  0.00000000000E+00  0.00000000000E+00  0.16429618695E+03  0.16429618695E+03  0.00000000000E+00 0. -1.
         -2   -1    0    0    0  501 -0.00000000000E+00 -0.00000000000E+00 -0.85915227105E+02  0.85915227105E+02  0.00000000000E+00 0.  1.
         25    2    1    2    0    0 -0.34864985695E+02 -0.45514245312E+02  0.58712264046E+02  0.14960825878E+03  0.12509351459E+03 0.  0.
          5    1    3    3  502    0  0.41818052080E+02  0.57809058334E+01  0.48548376339E+01  0.42699065569E+02  0.41800000000E+01 0.  1.
         -5    1    3    3    0  502 -0.76683037775E+02 -0.51295151145E+02  0.53857426412E+02  0.10690919321E+03  0.41800000000E+01 0.  1.
        -11    1    1    2    0    0  0.38051968291E+02 -0.15637687337E+01 -0.16145411179E+02  0.41365105653E+02  0.00000000000E+00 0.  1.
         11    1    1    2    0    0 -0.31869825967E+01  0.47078014045E+02  0.35814106983E+02  0.59238049626E+02  0.00000000000E+00 0. -1.
</event>
<event>
 7    1  0.2855090E-009  0.1939214E+03  0.7561462E-02  0.1154971E+00
          1   -1    0    0  501    0  0.00000000000E+00  0.00000000000E+00  0.10982772033E+03  0.10982772033E+03  0.00000000000E+00 0. -1.
         -1   -1    0    0    0  501 -0.00000000000E+00 -0.00000000000E+00 -0.40602147092E+03  0.40602147092E+03  0.00000000000E+00 0.  1.
         25    2    1    2    0    0  0.43286874248E+02 -0.17273248380E+03 -0.11115683047E+03  0.24436281177E+03  0.12508828233E+03 0.  0.
          5    1    3    3  502    0  0.70621666791E+02 -0.16289979335E+03 -0.63920135318E+02  0.18875120819E+03  0.41800000000E+01 0.  1.
         -5    1    3    3    0  502 -0.27334792542E+02 -0.98326904484E+01 -0.47236695148E+02  0.55611603585E+02  0.41800000000E+01 0.  1.
        -11    1    1    2    0    0 -0.44862296591E+02  0.11956052197E+03 -0.17612687885E+03  0.21755004372E+03  0.00000000000E+00 0.  1.
         11    1    1    2    0    0  0.15754223422E+01  0.53171961829E+02 -0.89100412803E+01  0.53936335767E+02  0.00000000000E+00 0. -1.
</event>
<event>
 7    1  0.2855090E-009  0.1113539E+03  0.7561462E-02  0.1258083E+00
         -2   -1    0    0    0  501 -0.00000000000E+00  0.00000000000E+00  0.13369686533E+03  0.13369686533E+03  0.00000000000E+00 0.  1.
          2   -1    0    0  501    0  0.00000000000E+00 -0.00000000000E+00 -0.19127135484E+03  0.19127135484E+03  0.00000000000E+00 0. -1.
         25    2    1    2    0    0  0.30031063263E+02 -0.12236101401E+02 -0.14645214605E+03  0.19530853334E+03  0.12508239354E+03 0.  0.
          5    1    3    3  502    0 -0.29849959032E+02  0.39661307119E+02 -0.53797348911E+02  0.73318936752E+02  0.41800000000E+01 0. -1.
         -5    1    3    3    0  502  0.59881022295E+02 -0.51897408520E+02 -0.92654797136E+02  0.12198959658E+03  0.41800000000E+01 0. -1.
        -11    1    1    2    0    0 -0.19297676995E+02 -0.37760824304E+02  0.49076809653E+02  0.64859952476E+02  0.00000000000E+00 0. -1.
         11    1    1    2    0    0 -0.10733386268E+02  0.49996925705E+02  0.39800846888E+02  0.64799734365E+02  0.00000000000E+00 0.  1.
</event>
<event>
 7    1  0.2855090E-009  0.1630174E+03  0.7561462E-02  0.1185332E+00
          2   -1    0    0  501    0  0.00000000000E+00  0.00000000000E+00  0.11989551037E+04  0.11989551037E+04  0.00000000000E+00 0. -1.
         -2   -1    0    0    0  501 -0.00000000000E+00 -0.00000000000E+00 -0.30337790037E+02  0.30337790037E+02  0.00000000000E+00 0.  1.
         25    2    1    2    0    0 -0.12321131819E+03 -0.81255593598E+02  0.42076328338E+03  0.46311124614E+03  0.12508711061E+03 0.  0.
          5    1    3    3  502    0 -0.27135154580E+02  0.76643417022E+01  0.73373754404E+01  0.29434133691E+02  0.41800000000E+01 0. -1.
         -5    1    3    3    0  502 -0.96076163612E+02 -0.88919935300E+02  0.41342590794E+03  0.43367711245E+03  0.41800000000E+01 0. -1.
        -11    1    1    2    0    0 -0.44884053904E+01  0.27727841875E+02  0.13126621179E+03  0.13423783876E+03  0.00000000000E+00 0.  1.
         11    1    1    2    0    0  0.12769972358E+03  0.53527751723E+02  0.61658781852E+03  0.63194380885E+03  0.00000000000E+00 0. -1.
</event>
<event>
 7    1  0.2855090E-009  0.1346376E+03  0.7561462E-02  0.1220732E+00
          2   -1    0    0  501    0  0.00000000000E+00  0.00000000000E+00  0.10448327145E+04  0.10448327145E+04  0.00000000000E+00 0. -1.
         -2   -1    0    0    0  501 -0.00000000000E+00 -0.00000000000E+00 -0.20834991395E+02  0.20834991395E+02  0.00000000000E+00 0.  1.
         25    2    1    2    0    0  0.85991055668E+02 -0.64026799837E+01  0.72920682758E+03  0.74486594106E+03  0.12508883560E+03 0.  0.
          5    1    3    3  502    0 -0.32195473744E+02  0.17616832714E+01  0.12645101598E+03  0.13056409882E+03  0.41800000000E+01 0. -1.
         -5    1    3    3    0  502  0.11818652941E+03 -0.81643632551E+01  0.60275581160E+03  0.61430184224E+03  0.41800000000E+01 0. -1.
        -11    1    1    2    0    0 -0.69804490826E+02  0.40338244600E+02  0.14042377898E+03  0.16192182873E+03  0.00000000000E+00 0.  1.
         11    1    1    2    0    0 -0.16186564841E+02 -0.33935564616E+02  0.15436711659E+03  0.15887993615E+03  0.00000000000E+00 0. -1.
</event>
<event>
 7    1  0.4026186E-009  0.7657029E+02  0.7561462E-02  0.1339076E+00
         -2   -1    0    0    0  501 -0.00000000000E+00  0.00000000000E+00  0.28419867728E+02  0.28419867728E+02  0.00000000000E+00 0.  1.
          2   -1    0    0  501    0  0.00000000000E+00 -0.00000000000E+00 -0.52344701176E+03  0.52344701176E+03  0.00000000000E+00 0. -1.
         25    2    1    2    0    0 -0.67845336612E+01  0.36327780700E+02 -0.18312704914E+03  0.22483148553E+03  0.12509173918E+03 0.  0.
          5    1    3    3  502    0 -0.10693146006E+01 -0.11242313364E+02 -0.17576509400E+03  0.17617710894E+03  0.41800000000E+01 0.  1.
         -5    1    3    3    0  502 -0.57152190606E+01  0.47570094064E+02 -0.73619551385E+01  0.48654376593E+02  0.41800000000E+01 0.  1.
        -11    1    1    2    0    0 -0.37094065530E+02 -0.31861738836E+02 -0.11008137067E+03  0.12045351082E+03  0.00000000000E+00 0.  1.
         11    1    1    2    0    0  0.43878599191E+02 -0.44660418638E+01 -0.20181872422E+03  0.20658188314E+03  0.00000000000E+00 0. -1.
</event>
<event>
 7    1  0.2855090E-009  0.1269624E+03  0.7561462E-02  0.1232034E+00
          1   -1    0    0  501    0  0.00000000000E+00  0.00000000000E+00  0.68685026477E+03  0.68685026477E+03  0.00000000000E+00 0. -1.
         -1   -1    0    0    0  501 -0.00000000000E+00 -0.00000000000E+00 -0.23925473993E+02  0.23925473993E+02  0.00000000000E+00 0.  1.
         25    2    1    2    0    0  0.63151336578E+02  0.19914326861E+02  0.33566885312E+03  0.36428760641E+03  0.12508880646E+03 0.  0.
          5    1    3    3  502    0  0.97055523736E+02  0.35049755105E+02  0.22739805927E+03  0.24975109565E+03  0.41800000000E+01 0.  1.
         -5    1    3    3    0  502 -0.33904187158E+02 -0.15135428244E+02  0.10827079385E+03  0.11453651076E+03  0.41800000000E+01 0.  1.
        -11    1    1    2    0    0 -0.42660206884E+02  0.34676651953E+02  0.17578798901E+03  0.18418409411E+03  0.00000000000E+00 0.  1.
         11    1    1    2    0    0 -0.20491129694E+02 -0.54590978814E+02  0.15146794865E+03  0.16230403825E+03  0.00000000000E+00 0. -1.
</event>
<event>
 7    1  0.2855090E-009  0.8159137E+02  0.7561462E-02  0.1324595E+00
         -2   -1    0    0    0  501 -0.00000000000E+00  0.00000000000E+00  0.13173202245E+03  0.13173202245E+03  0.00000000000E+00 0.  1.
          2   -1    0    0  501    0  0.00000000000E+00 -0.00000000000E+00 -0.12379395427E+03  0.12379395427E+03  0.00000000000E+00 0. -1.
         25    2    1    2    0    0  0.18974953703E+02 -0.47788105969E+02 -0.33995687909E+02  0.13944866576E+03  0.12508585709E+03 0.  0.
          5    1    3    3  502    0  0.40684503276E+02 -0.58345096051E+01 -0.69057969898E+02  0.80472019457E+02  0.41800000000E+01 0.  1.
         -5    1    3    3    0  502 -0.21709549573E+02 -0.41953596364E+02  0.35062281988E+02  0.58976646300E+02  0.41800000000E+01 0.  1.
        -11    1    1    2    0    0 -0.27385867110E+01 -0.12095656369E+02 -0.23084447171E+02  0.26204893844E+02  0.00000000000E+00 0. -1.
         11    1    1    2    0    0 -0.16236366992E+02  0.59883762338E+02  0.65018203260E+02  0.89872417126E+02  0.00000000000E+00 0.  1.
</event>
<event>
 7    1  0.3864274E-009  0.1951096E+03  0.7561462E-02  0.1153932E+00
          1   -1    0    0  501    0  0.00000000000E+00  0.00000000000E+00  0.27104989712E+03  0.27104989712E+03  0.00000000000E+00 0. -1.
         -1   -1    0    0    0  501 -0.00000000000E+00 -0.00000000000E+00 -0.16968871784E+03  0.16968871784E+03  0.00000000000E+00 0.  1.
         25    2    1    2    0    0 -0.17442707077E+03  0.35737596557E+02  0.10206940374E+03  0.24034849218E+03  0.12508899107E+03 0.  0.
          5    1    3    3  502    0 -0.11443703970E+02 -0.30986256509E+02  0.43343413179E+02  0.54655560733E+02  0.41800000000E+01 0.  1.
         -5    1    3    3    0  502 -0.16298336680E+03  0.66723853066E+02  0.58725990560E+02  0.18569293145E+03  0.41800000000E+01 0.  1.
        -11    1    1    2    0    0  0.72140862913E+02 -0.30553251582E+02 -0.43248976576E+02  0.89488989596E+02  0.00000000000E+00 0.  1.
         11    1    1    2    0    0  0.10228620786E+03 -0.51843449753E+01  0.42540752120E+02  0.11090113319E+03  0.00000000000E+00 0. -1.
</event>
<event>
 7    1  0.2855090E-009  0.1968643E+03  0.7561462E-02  0.1152412E+00
         -2   -1    0    0    0  501 -0.00000000000E+00  0.00000000000E+00  0.59163638009E+02  0.59163638009E+02  0.00000000000E+00 0.  1.
          2   -1    0    0  501    0  0.00000000000E+00 -0.00000000000E+00 -0.72297327428E+03  0.72297327428E+03  0.00000000000E+00 0. -1.
         25    2    1    2    0    0  0.16908793957E+03  0.38350378776E+02 -0.28965170458E+03  0.36001061138E+03  0.12509215594E+03 0.  0.
          5    1    3    3  502    0  0.15605100752E+03  0.64597379041E+02 -0.18184448527E+03  0.24821286742E+03  0.41800000000E+01 0.  1.
         -5    1    3    3    0  502  0.13036932051E+02 -0.26247000266E+02 -0.10780721931E+03  0.11179774396E+03  0.41800000000E+01 0.  1.
        -11    1    1    2    0    0 -0.15259448970E+03 -0.63357444016E+02 -0.30856683177E+03  0.35001819048E+03  0.00000000000E+00 0. -1.
         11    1    1    2    0    0 -0.16493449873E+02  0.25007065241E+02 -0.65591099917E+02  0.72108110424E+02  0.00000000000E+00 0.  1.
</event>
<event>
 7    1  0.2855090E-009  0.1260624E+03  0.7561462E-02  0.1233418E+00
          1   -1    0    0  501    0  0.00000000000E+00  0.00000000000E+00  0.57404020962E+03  0.57404020962E+03  0.00000000000E+00 0. -1.
         -1   -1    0    0    0  501 -0.00000000000E+00 -0.00000000000E+00 -0.35840289208E+02  0.35840289208E+02  0.00000000000E+00 0.  1.
         25    2    1    2    0    0 -0.76819489363E+02  0.45764356401E+02  0.34827336916E+03  0.38070753926E+03  0.12509308742E+03 0.  0.
          5    1    3    3  502    0  0.27529212164E+02  0.44711781921E+01  0.15186218598E+03  0.15445855394E+03  0.41800000000E+01 0.  1.
         -5    1    3    3    0  502 -0.10434870153E+03  0.41293178209E+02  0.19641118318E+03  0.22624898532E+03  0.41800000000E+01 0.  1.
        -11    1    1    2    0    0  0.53185550251E+02 -0.62943960659E+02  0.18058409548E+03  0.19849750749E+03  0.00000000000E+00 0. -1.
         11    1    1    2    0    0  0.23633939111E+02  0.17179604258E+02  0.93424557701E+01  0.30675452078E+02  0.00000000000E+00 0.  1.
</event>
<event>
 7    1  0.2855090E-009  0.1488810E+03  0.7561462E-02  0.1201855E+00
         -2   -1    0    0    0  501 -0.00000000000E+00  0.00000000000E+00  0.33519770235E+02  0.33519770235E+02  0.00000000000E+00 0.  1.
          2   -1    0    0  501    0  0.00000000000E+00 -0.00000000000E+00 -0.79016135879E+03  0.79016135879E+03  0.00000000000E+00 0. -1.
         25    2    1    2    0    0 -0.86881470418E+02 -0.82488978918E+02 -0.36500254852E+03  0.40401587917E+03  0.12509655731E+03 0.  0.
          5    1    3    3  502    0 -0.61733925591E+02  0.17882229159E+02 -0.94440270456E+02  0.11431224244E+03  0.41800000000E+01 0.  1.
         -5    1    3    3    0  502 -0.25147544827E+02 -0.10037120808E+03 -0.27056227806E+03  0.28970363672E+03  0.41800000000E+01 0.  1.
        -11    1    1    2    0    0  0.31024613588E+01  0.31644217280E+02 -0.25856985037E+02  0.40982501497E+02  0.00000000000E+00 0.  1.
         11    1    1    2    0    0  0.83779009060E+02  0.50844761638E+02 -0.36578205500E+03  0.37868274836E+03  0.00000000000E+00 0. -1.
</event>
<event>
 7    1  0.2855090E-009  0.1081062E+03  0.7561462E-02  0.1264118E+00
          2   -1    0    0  501    0  0.00000000000E+00  0.00000000000E+00  0.70292009922E+03  0.70292009922E+03  0.00000000000E+00 0. -1.
         -2   -1    0    0    0  501 -0.00000000000E+00 -0.00000000000E+00 -0.28913797281E+02  0.28913797281E+02  0.00000000000E+00 0.  1.
         25    2    1    2    0    0  0.55728160338E+02  0.67655985422E+02  0.44808532433E+03  0.47340325958E+03  0.12508888074E+03 0.  0.
          5    1    3    3  502    0  0.26569218363E+02  0.62386512364E+02  0.43578575769E+03  0.44104954291E+03  0.41800000000E+01 0. -1.
         -5    1    3    3    0  502  0.29158941975E+02  0.52694730576E+01  0.12299566642E+02  0.32353716679E+02  0.41800000000E+01 0. -1.
        -11    1    1    2    0    0 -0.22998262868E+02  0.16334071954E+02  0.97726640996E+02  0.10171636231E+03  0.00000000000E+00 0. -1.
         11    1    1    2    0    0 -0.32729897470E+02 -0.83990057376E+02  0.12819433661E+03  0.15671427460E+03  0.00000000000E+00 0.  1.
</event>
<event>
 7    1  0.2855090E-009  0.8860955E+02  0.7561462E-02  0.1306254E+00
         -1   -1    0    0    0  501 -0.00000000000E+00  0.00000000000E+00  0.12571088686E+02  0.12571088686E+02  0.00000000000E+00 0.  1.
          1   -1    0    0  501    0  0.00000000000E+00 -0.00000000000E+00 -0.17111774298E+04  0.17111774298E+04  0.00000000000E+00 0. -1.
         25    2    1    2    0    0 -0.32439031852E+02  0.52340621789E+02 -0.13492818608E+04  0.13564666996E+04  0.12509410784E+03 0.  0.
          5    1    3    3  502    0 -0.91901097899E+01  0.30210350349E+02 -0.12754906115E+04  0.12758882772E+04  0.41800000000E+01 0. -1.
         -5    1    3    3    0  502 -0.23248922062E+02  0.22130271440E+02 -0.73791249250E+02  0.80578422403E+02  0.41800000000E+01 0. -1.
        -11    1    1    2    0    0  0.31789029171E+02 -0.79609147652E+02 -0.25043526489E+03  0.26469979348E+03  0.00000000000E+00 0.  1.
         11    1    1    2    0    0  0.65000268084E+00  0.27268525863E+02 -0.98889215414E+02  0.10258202538E+03  0.00000000000E+00 0. -1.
</event>
<event>
 7    1  0.3524647E-009  0.9904155E+02  0.7561462E-02  0.1282324E+00
          2   -1    0    0  501    0  0.00000000000E+00  0.00000000000E+00  0.43474733344E+03  0.43474733344E+03  0.00000000000E+00 0. -1.
         -2   -1    0    0    0  501 -0.00000000000E+00 -0.00000000000E+00 -0.39534785731E+02  0.39534785731E+02  0.00000000000E+00 0.  1.
         25    2    1    2    0    0 -0.55629375043E+02 -0.32471645520E+01  0.30301192554E+03  0.33251934411E+03  0.12509082999E+03 0.  0.
          5    1    3    3  502    0 -0.58113916011E+02  0.52296345184E+02  0.20944485799E+03  0.22359954359E+03  0.41800000000E+01 0.  1.
         -5    1    3    3    0  502  0.24845409687E+01 -0.55543509736E+02  0.93567067547E+02  0.10891980053E+03  0.41800000000E+01 0.  1.
        -11    1    1    2    0    0  0.42651949464E+02 -0.11712764541E+02 -0.31825522308E+01  0.44345307362E+02  0.00000000000E+00 0.  1.
         11    1    1    2    0    0  0.12977425579E+02  0.14959929093E+02  0.95383174407E+02  0.97417467700E+02  0.00000000000E+00 0. -1.
</event>
<event>
 7    1  0.2855090E-009  0.2704359E+03  0.7561462E-02  0.1101030E+00
         -2   -1    0    0    0  501 -0.00000000000E+00  0.00000000000E+00  0.27128498781E+02  0.27128498781E+02  0.00000000000E+00 0.  1.
          2   -1    0    0  501    0  0.00000000000E+00 -0.00000000000E+00 -0.32230468954E+04  0.32230468954E+04  0.00000000000E+00 0. -1.
         25    2    1    2    0    0  0.22230256770E+03 -0.14659898706E+03 -0.19961368773E+04  0.20177010828E+04  0.12508210002E+03 0.  0.
          5    1    3    3  502    0  0.17574840537E+03 -0.10655978954E+03 -0.10730087636E+04  0.10925235786E+04  0.41800000000E+01 0. -1.
         -5    1    3    3    0  502  0.46554162327E+02 -0.40039197523E+02 -0.92312811376E+03  0.92517750414E+03  0.41800000000E+01 0. -1.
        -11    1    1    2    0    0 -0.14379396648E+03  0.12926340308E+03 -0.96862202631E+03  0.98773192822E+03  0.00000000000E+00 0.  1.
         11    1    1    2    0    0 -0.78508601218E+02  0.17335583977E+02 -0.23115949296E+03  0.24474238317E+03  0.00000000000E+00 0. -1.
</event>
<event>
 7    1  0.2855090E-009  0.1231857E+03  0.7561462E-02  0.1237932E+00
          1   -1    0    0  501    0  0.00000000000E+00  0.00000000000E+00  0.26594248089E+02  0.26594248089E+02  0.00000000000E+00 0. -1.
         -1   -1    0    0    0  501 -0.00000000000E+00 -0.00000000000E+00 -0.67436276045E+03  0.67436276045E+03  0.00000000000E+00 0.  1.
         25    2    1    2    0    0  0.10917314729E+02  0.65807072722E+02 -0.46754227554E+03  0.48856169771E+03  0.12508794693E+03 0.  0.
          5    1    3    3  502    0  0.61932298299E+02  0.17925792693E+02 -0.14909520728E+03  0.16249245167E+03  0.41800000000E+01 0. -1.
         -5    1    3    3    0  502 -0.51014983570E+02  0.47881280030E+02 -0.31844706826E+03  0.32606924604E+03  0.41800000000E+01 0. -1.
        -11    1    1    2    0    0 -0.47676843586E+02 -0.17101539213E+02 -0.93742895138E+02  0.10655174539E+03  0.00000000000E+00 0. -1.
         11    1    1    2    0    0  0.36759528857E+02 -0.48705533510E+02 -0.86483341684E+02  0.10584356544E+03  0.00000000000E+00 0.  1.
</event>
<event>
 7    1  0.2855090E-009  0.9884707E+02  0.7561462E-02  0.1282739E+00
         -2   -1    0    0    0  501 -0.00000000000E+00  0.00000000000E+00  0.40459363547E+02  0.40459363547E+02  0.00000000000E+00 0.  1.
          2   -1    0    0  501    0  0.00000000000E+00 -0.00000000000E+00 -0.48704678994E+03  0.48704678994E+03  0.00000000000E+00 0. -1.
         25    2    1    2    0    0 -0.26273803591E+02 -0.35606059168E+02 -0.40343917660E+03  0.42469863217E+03  0.12509058618E+03 0.  0.
          5    1    3    3  502    0  0.48518066118E+02 -0.48610892923E+01 -0.11212036994E+03  0.12233594192E+03  0.41800000000E+01 0. -1.
         -5    1    3    3    0  502 -0.74791869709E+02 -0.30744969875E+02 -0.29131880666E+03  0.30236269026E+03  0.41800000000E+01 0. -1.
        -11    1    1    2    0    0 -0.15686136117E+02  0.10677456155E+02 -0.50039923172E+02  0.53516883759E+02  0.00000000000E+00 0. -1.
         11    1    1    2    0    0  0.41959939708E+02  0.24928603013E+02  0.68916733776E+01  0.49290637554E+02  0.00000000000E+00 0.  1.
</event>
<event>
 7    1  0.2855090E-009  0.1075035E+03  0.7561462E-02  0.1265264E+00
          1   -1    0    0  501    0  0.00000000000E+00  0.00000000000E+00  0.17994471806E+03  0.17994471806E+03  0.00000000000E+00 0. -1.
         -1   -1    0    0    0  501 -0.00000000000E+00 -0.00000000000E+00 -0.73746943697E+02  0.73746943697E+02  0.00000000000E+00 0.  1.
         25    2    1    2    0    0 -0.30489245151E+02  0.52632956899E+01  0.20101748554E+02  0.13041045886E+03  0.12508201762E+03 0.  0.
          5    1    3    3  502    0 -0.69015863107E+02  0.36425794981E+02  0.20053803252E+02  0.80682435048E+02  0.41800000000E+01 0.  1.
         -5    1    3    3    0  502  0.38526617956E+02 -0.31162499291E+02  0.47945302296E-01  0.49728023809E+02  0.41800000000E+01 0.  1.
        -11    1    1    2    0    0  0.28321084568E+02  0.36001920885E+02  0.54934683165E+02  0.71526509442E+02  0.00000000000E+00 0.  1.
         11    1    1    2    0    0  0.21681605833E+01 -0.41265216575E+02  0.31161342641E+02  0.51754693453E+02  0.00000000000E+00 0. -1.
</event>
<event>
 7    1  0.2855090E-009  0.1406807E+03  0.7561462E-02  0.1212416E+00
          2   -1    0    0  501    0  0.00000000000E+00  0.00000000000E+00  0.58617436459E+02  0.58617436459E+02  0.00000000000E+00 0. -1.
         -2   -1    0    0    0  501 -0.00000000000E+00 -0.00000000000E+00 -0.37794602840E+03  0.37794602840E+03  0.00000000000E+00 0.  1.
         25    2    1    2    0    0  0.75546475808E+02  0.68476199695E+02 -0.17802239316E+03  0.24028486549E+03  0.12509430118E+03 0.  0.
          5    1    3    3  502    0  0.75843724969E+02 -0.67970920378E+01 -0.48374266795E+02  0.90310648128E+02  0.41800000000E+01 0. -1.
         -5    1    3    3    0  502 -0.29724916099E+00  0.75273291733E+02 -0.12964812636E+03  0.14997421737E+03  0.41800000000E+01 0. -1.
        -11    1    1    2    0    0  0.17251038496E+02 -0.86483471562E+01 -0.47955685565E+02  0.51692746259E+02  0.00000000000E+00 0.  1.
         11    1    1    2    0    0 -0.92797514304E+02 -0.59827852539E+02 -0.93350513217E+02  0.14458585311E+03  0.00000000000E+00 0. -1.
</event>
<event>
 7    1  0.2855090E-009  0.1398807E+03  0.7561462E-02  0.1213490E+00
          2   -1    0    0  501    0  0.00000000000E+00  0.00000000000E+00  0.14245680634E+03  0.14245680634E+03  0.00000000000E+00 0. -1.
         -2   -1    0    0    0  501 -0.00000000000E+00 -0.00000000000E+00 -0.18982001137E+03  0.18982001137E+03  0.00000000000E+00 0.  1.
         25    2    1    2    0    0 -0.52224574852E+01 -0.10352918774E+03  0.42752885999E+02  0.16799039742E+03  0.12508955827E+03 0.  0.
          5    1    3    3  502    0 -0.59238256301E+02 -0.20903481925E+02  0.90926796351E+01  0.63610343413E+02  0.41800000000E+01 0. -1.
         -5    1    3    3    0  502  0.54015798815E+02 -0.82625705810E+02  0.33660206364E+02  0.10438005401E+03  0.41800000000E+01 0. -1.
        -11    1    1    2    0    0 -0.18607581982E+02  0.87076639780E+02 -0.24173332513E+02  0.92265558620E+02  0.00000000000E+00 0.  1.
         11    1    1    2    0    0  0.23830039468E+02  0.16452547955E+02 -0.65942758510E+02  0.72020861666E+02  0.00000000000E+00 0. -1.
</event>
<event>
 7    1  0.2855090E-009  0.5119735E+03  0.7561462E-02  0.1010700E+00
          1   -1    0    0  501    0  0.00000000000E+00  0.00000000000E+00  0.88249703487E+03  0.88249703487E+03  0.00000000000E+00 0. -1.
         -1   -1    0    0    0  501 -0.00000000000E+00 -0.00000000000E+00 -0.30713527104E+03  0.30713527104E+03  0.00000000000E+00 0.  1.
         25    2    1    2    0    0 -0.44953294307E+03  0.22595181168E+03  0.37669431911E+03  0.64084317699E+03  0.12508908556E+03 0.  0.
          5    1    3    3  502    0 -0.33208640133E+03  0.10194998589E+03  0.24433529191E+03  0.42472624695E+03  0.41800000000E+01 0. -1.
         -5    1    3    3    0  502 -0.11744654174E+03  0.12400182579E+03  0.13235902721E+03  0.21611693004E+03  0.41800000000E+01 0. -1.
        -11    1    1    2    0    0  0.44140598728E+03 -0.21229902523E+03  0.17469099201E+03  0.52002602282E+03  0.00000000000E+00 0.  1.
         11    1    1    2    0    0  0.81269557974E+01 -0.13652786450E+02  0.23976452707E+02  0.28763106105E+02  0.00000000000E+00 0. -1.
</event>
<event>
 7    1  0.2855090E-009  0.1040509E+03  0.7561462E-02  0.1272001E+00
         -2   -1    0    0    0  501 -0.00000000000E+00  0.00000000000E+00  0.34109186878E+03  0.34109186878E+03  0.00000000000E+00 0.  1.
          2   -1    0    0  501    0  0.00000000000E+00 -0.00000000000E+00 -0.49801605470E+02  0.49801605470E+02  0.00000000000E+00 0. -1.
         25    2    1    2    0    0  0.27720943677E+02  0.23309394209E+02  0.25480292221E+03  0.28613005578E+03  0.12503639902E+03 0.  0.
          5    1    3    3  502    0 -0.48403874320E+02  0.20043620280E+02  0.84477766836E+02  0.99491945668E+02  0.41800000000E+01 0. -1.
         -5    1    3    3    0  502  0.76124817998E+02  0.32657739291E+01  0.17032515537E+03  0.18663811011E+03  0.41800000000E+01 0. -1.
        -11    1    1    2    0    0 -0.29388027335E+01 -0.45725601553E+02 -0.10594020326E+02  0.47028719583E+02  0.00000000000E+00 0. -1.
         11    1    1    2    0    0 -0.24782140944E+02  0.22416207344E+02  0.47081361434E+02  0.57734698890E+02  0.00000000000E+00 0.  1.
</event>
<event>
 7    1  0.2855090E-009  0.1576669E+03  0.7561462E-02  0.1191356E+00
         -1   -1    0    0    0  501 -0.00000000000E+00  0.00000000000E+00  0.40219597278E+03  0.40219597278E+03  0.00000000000E+00 0.  1.
          1   -1    0    0  501    0  0.00000000000E+00 -0.00000000000E+00 -0.93887764214E+02  0.93887764214E+02  0.00000000000E+00 0. -1.
         25    2    1    2    0    0 -0.14506592603E+03 -0.18519545204E+02  0.24748538367E+03  0.31349793467E+03  0.12507934867E+03 0.  0.
          5    1    3    3  502    0  0.60034470066E+01  0.11717450225E+02  0.97389667360E+02  0.98364423062E+02  0.41800000000E+01 0. -1.
         -5    1    3    3    0  502 -0.15106937304E+03 -0.30236995429E+02  0.15009571631E+03  0.21513351161E+03  0.41800000000E+01 0. -1.
        -11    1    1    2    0    0  0.58344090824E+02  0.16580653499E+02  0.73089689048E+02  0.94979227464E+02  0.00000000000E+00 0.  1.
         11    1    1    2    0    0  0.86721835209E+02  0.19388917047E+01 -0.12266864147E+02  0.87606574862E+02  0.00000000000E+00 0. -1.
</event>
<event>
 7    1  0.2855090E-009  0.1044170E+03  0.7561462E-02  0.1271272E+00
         -2   -1    0    0    0  501 -0.00000000000E+00  0.00000000000E+00  0.23904027787E+02  0.23904027787E+02  0.00000000000E+00 0.  1.
          2   -1    0    0  501    0  0.00000000000E+00 -0.00000000000E+00 -0.82370725842E+03  0.82370725842E+03  0.00000000000E+00 0. -1.
         25    2    1    2    0    0 -0.16989267588E+02  0.62950014715E+02 -0.61668412424E+03  0.63261365354E+03  0.12509750595E+03 0.  0.
          5    1    3    3  502    0  0.15449774385E+02 -0.94022174767E+01 -0.10651252674E+02  0.21401373917E+02  0.41800000000E+01 0. -1.
         -5    1    3    3    0  502 -0.32439041973E+02  0.72352232192E+02 -0.60603287156E+03  0.61121227962E+03  0.41800000000E+01 0. -1.
        -11    1    1    2    0    0 -0.26900312560E+02 -0.61307637134E+02 -0.12864309368E+03  0.14502171816E+03  0.00000000000E+00 0.  1.
         11    1    1    2    0    0  0.43889580148E+02 -0.16423775814E+01 -0.54476012724E+02  0.69975914513E+02  0.00000000000E+00 0. -1.
</event>
<event>
 7    1  0.2855090E-009  0.1160145E+03  0.7561462E-02  0.1249820E+00
          2   -1    0    0  501    0  0.00000000000E+00  0.00000000000E+00  0.30702261879E+04  0.30702261879E+04  0.00000000000E+00 0. -1.
         -2   -1    0    0    0  501 -0.00000000000E+00 -0.00000000000E+00 -0.68814010459E+01  0.68814010459E+01  0.00000000000E+00 0.  1.
         25    2    1    2    0    0 -0.41216320072E+02  0.33394341010E+02  0.25227244491E+04  0.25263805843E+04  0.12508494642E+03 0.  0.
          5    1    3    3  502    0 -0.52518318877E+02  0.71856256348E+02  0.13335689338E+04  0.13365422062E+04  0.41800000000E+01 0. -1.
         -5    1    3    3    0  502  0.11301998804E+02 -0.38461915337E+02  0.11891555152E+04  0.11898383781E+04  0.41800000000E+01 0. -1.
        -11    1    1    2    0    0  0.14881065143E+02  0.30268027969E+02  0.12670965342E+03  0.13112183604E+03  0.00000000000E+00 0.  1.
         11    1    1    2    0    0  0.26335254930E+02 -0.63662368979E+02  0.41391068440E+03  0.41960516862E+03  0.00000000000E+00 0. -1.
</event>
<event>
 7    1  0.2855090E-009  0.1087182E+03  0.7561462E-02  0.1262962E+00
          1   -1    0    0  501    0  0.00000000000E+00  0.00000000000E+00  0.43891611056E+03  0.43891611056E+03  0.00000000000E+00 0. -1.
         -1   -1    0    0    0  501 -0.00000000000E+00 -0.00000000000E+00 -0.38544989599E+02  0.38544989599E+02  0.00000000000E+00 0.  1.
         25    2    1    2    0    0  0.32297660651E+02  0.63469643716E+02  0.21729745461E+03  0.26064678344E+03  0.12508807851E+03 0.  0.
          5    1    3    3  502    0  0.50480118765E+02  0.69850276721E+02  0.22382238388E+03  0.23987754266E+03  0.41800000000E+01 0. -1.
         -5    1    3    3    0  502 -0.18182458114E+02 -0.63806330048E+01 -0.65249292730E+01  0.20769240781E+02  0.41800000000E+01 0. -1.
        -11    1    1    2    0    0  0.28605980754E+02 -0.31859716976E+02  0.42201954222E+02  0.60119453098E+02  0.00000000000E+00 0. -1.
         11    1    1    2    0    0 -0.60903641405E+02 -0.31609926740E+02  0.14087171213E+03  0.15669486362E+03  0.00000000000E+00 0.  1.
</event>
<event>
 7    1  0.2855090E-009  0.1729739E+03  0.7561462E-02  0.1174782E+00
          2   -1    0    0  501    0  0.00000000000E+00  0.00000000000E+00  0.27756640645E+03  0.27756640645E+03  0.00000000000E+00 0. -1.
         -2   -1    0    0    0  501 -0.00000000000E+00 -0.00000000000E+00 -0.13343884445E+03  0.13343884445E+03  0.00000000000E+00 0.  1.
         25    2    1    2    0    0  0.14170879228E+03  0.68614950364E+02  0.52003244699E+02  0.20768588320E+03  0.12505876777E+03 0.  0.
          5    1    3    3  502    0  0.69391281627E+02  0.63739744322E+02 -0.29226041108E+02  0.98739753144E+02  0.41800000000E+01 0. -1.
         -5    1    3    3    0  502  0.72317510657E+02  0.48752060422E+01  0.81229285807E+02  0.10894613006E+03  0.41800000000E+01 0. -1.
        -11    1    1    2    0    0 -0.93362817701E+02 -0.86701778632E+02  0.50677828484E+02  0.13712059089E+03  0.00000000000E+00 0.  1.
         11    1    1    2    0    0 -0.48345974584E+02  0.18086828268E+02  0.41446488815E+02  0.66198776804E+02  0.00000000000E+00 0. -1.
</event>
<event>
 7    1  0.2855090E-009  0.1565731E+03  0.7561462E-02  0.1192621E+00
          1   -1    0    0  501    0  0.00000000000E+00  0.00000000000E+00  0.51254601891E+03  0.51254601891E+03  0.00000000000E+00 0. -1.
         -1   -1    0    0    0  501 -0.00000000000E+00 -0.00000000000E+00 -0.49952812393E+02  0.49952812393E+02  0.00000000000E+00 0.  1.
         25    2    1    2    0    0  0.40750044800E+02 -0.10768117862E+03  0.29280906197E+03  0.33858530535E+03  0.12508820826E+03 0.  0.
          5    1    3    3  502    0  0.28697685185E+02  0.24039864831E+02  0.64162091328E+02  0.74402409905E+02  0.41800000000E+01 0.  1.
         -5    1    3    3    0  502  0.12052359615E+02 -0.13172104346E+03  0.22864697064E+03  0.26418289544E+03  0.41800000000E+01 0.  1.
        -11    1    1    2    0    0 -0.66614705386E+02  0.64008403253E+02  0.87557985989E+02  0.12728313153E+03  0.00000000000E+00 0.  1.
         11    1    1    2    0    0  0.25864660586E+02  0.43672775371E+02  0.82226158561E+02  0.96630394429E+02  0.00000000000E+00 0. -1.
</event>
<event>
 7    1  0.2855090E-009  0.1134705E+03  0.7561462E-02  0.1254275E+00
         -1   -1    0    0    0  501 -0.00000000000E+00  0.00000000000E+00  0.15699745587E+02  0.15699745587E+02  0.00000000000E+00 0.  1.
          1   -1    0    0  501    0  0.00000000000E+00 -0.00000000000E+00 -0.12035235279E+04  0.12035235279E+04  0.00000000000E+00 0. -1.
         25    2    1    2    0    0  0.22125075881E+02  0.33297560165E+02 -0.97775111654E+03  0.98653079208E+03  0.12509001291E+03 0.  0.
          5    1    3    3  502    0 -0.15324250047E+01 -0.44896816672E+02 -0.23525606902E+03  0.23954323802E+03  0.41800000000E+01 0.  1.
         -5    1    3    3    0  502  0.23657500886E+02  0.78194376837E+02 -0.74249504752E+03  0.74698755405E+03  0.41800000000E+01 0.  1.
        -11    1    1    2    0    0 -0.57525014987E+02 -0.12174043604E+02 -0.11971400452E+03  0.13337457616E+03  0.00000000000E+00 0.  1.
         11    1    1    2    0    0  0.35399939106E+02 -0.21123516561E+02 -0.90358661293E+02  0.99317905291E+02  0.00000000000E+00 0. -1.
</event>
<event>
 7    1  0.2855090E-009  0.3420095E+03  0.7561462E-02  0.1065943E+00
          1   -1    0    0  501    0  0.00000000000E+00  0.00000000000E+00  0.20438365734E+04  0.20438365734E+04  0.00000000000E+00 0. -1.
         -1   -1    0    0    0  501 -0.00000000000E+00 -0.00000000000E+00 -0.59062005182E+02  0.59062005182E+02  0.00000000000E+00 0.  1.
         25    2    1    2    0    0 -0.24036676795E+03 -0.22374712985E+03  0.93822400550E+03  0.10018737858E+04  0.12509131414E+03 0.  0.
          5    1    3    3  502    0 -0.21687697001E+02  0.15131776860E+02  0.55868438584E+02  0.61952253405E+02  0.41800000000E+01 0. -1.
         -5    1    3    3    0  502 -0.21867907095E+03 -0.23887890671E+03  0.88235556691E+03  0.93992153237E+03  0.41800000000E+01 0. -1.
        -11    1    1    2    0    0  0.39721132108E+02  0.11646337498E+02  0.65796657341E+02  0.77734198589E+02  0.00000000000E+00 0.  1.
         11    1    1    2    0    0  0.20064563584E+03  0.21210079235E+03  0.98075390535E+03  0.10232905942E+04  0.00000000000E+00 0. -1.
</event>
<event>
 7    1  0.2855090E-009  0.2440811E+03  0.7561462E-02  0.1117104E+00
         -1   -1    0    0    0  501 -0.00000000000E+00  0.00000000000E+00  0.90611554655E+02  0.90611554655E+02  0.00000000000E+00 0.  1.
          1   -1    0    0  501    0  0.00000000000E+00 -0.00000000000E+00 -0.10398817486E+04  0.10398817486E+04  0.00000000000E+00 0. -1.
         25    2    1    2    0    0 -0.22079444798E+03  0.90403444420E+02 -0.19038377796E+03  0.32987196776E+03  0.12508621500E+03 0.  0.
          5    1    3    3  502    0 -0.57085633420E+02  0.24413642470E+00 -0.11470610997E+03  0.12819435716E+03  0.41800000000E+01 0.  1.
         -5    1    3    3    0  502 -0.16370881456E+03  0.90159307995E+02 -0.75677667996E+02  0.20167761059E+03  0.41800000000E+01 0.  1.
        -11    1    1    2    0    0  0.48789935797E+02  0.18012510531E+01 -0.75469925156E+02  0.89885549137E+02  0.00000000000E+00 0.  1.
         11    1    1    2    0    0  0.17200451218E+03 -0.92204695473E+02 -0.68341649079E+03  0.71073578633E+03  0.00000000000E+00 0. -1.
</event>
<event>
 7    1  0.2855090E-009  0.1705315E+03  0.7561462E-02  0.1177295E+00
          2   -1    0    0  501    0  0.00000000000E+00  0.00000000000E+00  0.57384064195E+03  0.57384064195E+03  0.00000000000E+00 0. -1.
         -2   -1    0    0    0  501 -0.00000000000E+00 -0.00000000000E+00 -0.11573871568E+03  0.11573871568E+03  0.00000000000E+00 0.  1.
         25    2    1    2    0    0 -0.83453690727E+02 -0.11124475409E+03 -0.15282837384E+02  0.18767053191E+03  0.12508696823E+03 0.  0.
          5    1    3    3  502    0  0.23824676963E+02 -0.65614909114E+02  0.64200207048E+00  0.69934369927E+02  0.41800000000E+01 0. -1.
         -5    1    3    3    0  502 -0.10727836769E+03 -0.45629844977E+02 -0.15924839455E+02  0.11773616198E+03  0.41800000000E+01 0. -1.
        -11    1    1    2    0    0  0.51979337683E+02  0.11147958236E+03  0.43610215133E+03  0.45311658016E+03  0.00000000000E+00 0.  1.
         11    1    1    2    0    0  0.31474353044E+02 -0.23482826462E+00  0.37282612333E+02  0.48792245554E+02  0.00000000000E+00 0. -1.
</event>
<event>
 7    1  0.2855090E-009  0.1874625E+03  0.7561462E-02  0.1160770E+00
          2   -1    0    0  501    0  0.00000000000E+00  0.00000000000E+00  0.22494581452E+03  0.22494581452E+03  0.00000000000E+00 0. -1.
         -2   -1    0    0    0  501 -0.00000000000E+00 -0.00000000000E+00 -0.23194116422E+03  0.23194116422E+03  0.00000000000E+00 0.  1.
         25    2    1    2    0    0  0.15592546581E+03 -0.82811931760E+02 -0.98173903572E+02  0.23760681158E+03  0.12509322378E+03 0.  0.
          5    1    3    3  502    0  0.97974782964E+01 -0.56942557643E+01  0.27458629335E+02  0.29997730825E+02  0.41800000000E+01 0. -1.
         -5    1    3    3    0  502  0.14612798751E+03 -0.77117675995E+02 -0.12563253291E+03  0.20760908075E+03  0.41800000000E+01 0. -1.
        -11    1    1    2    0    0 -0.31684309231E+02  0.64659080765E+02  0.19070836536E+02  0.74487508906E+02  0.00000000000E+00 0.  1.
         11    1    1    2    0    0 -0.12424115658E+03  0.18152850995E+02  0.72107717339E+02  0.14479265826E+03  0.00000000000E+00 0. -1.
</event>
<event>
 7    1  0.2855090E-009  0.5042602E+02  0.7561462E-02  0.1443057E+00
         -3   -1    0    0    0  501 -0.00000000000E+00  0.00000000000E+00  0.47379962377E+02  0.47379962377E+02  0.00000000000E+00 0.  1.
          3   -1    0    0  501    0  0.00000000000E+00 -0.00000000000E+00 -0.28558025926E+03  0.28558025926E+03  0.00000000000E+00 0. -1.
         25    2    1    2    0    0 -0.17575981981E+02 -0.23237208651E+02 -0.89834318924E+02  0.15673429170E+03  0.12508617161E+03 0.  0.
          5    1    3    3  502    0 -0.46714736620E+01 -0.81339725766E+01  0.31800288472E+02  0.33417284794E+02  0.41800000000E+01 0. -1.
         -5    1    3    3    0  502 -0.12904508319E+02 -0.15103236074E+02 -0.12163460740E+03  0.12331700690E+03  0.41800000000E+01 0. -1.
        -11    1    1    2    0    0  0.30008489098E+02 -0.12452259153E+02 -0.11862653198E+02  0.34587435824E+02  0.00000000000E+00 0.  1.
         11    1    1    2    0    0 -0.12432507117E+02  0.35689467804E+02 -0.13650332476E+03  0.14163849411E+03  0.00000000000E+00 0. -1.
</event>
<event>
 7    1  0.2855090E-009  0.1825022E+03  0.7561462E-02  0.1165403E+00
         -2   -1    0    0    0  501 -0.00000000000E+00  0.00000000000E+00  0.62600279977E+02  0.62600279977E+02  0.00000000000E+00 0.  1.
          2   -1    0    0  501    0  0.00000000000E+00 -0.00000000000E+00 -0.75870649308E+03  0.75870649308E+03  0.00000000000E+00 0. -1.
         25    2    1    2    0    0 -0.96623366806E+02 -0.12385874358E+03 -0.16422316266E+03  0.25940462425E+03  0.12507777002E+03 0.  0.
          5    1    3    3  502    0 -0.12688535936E+03 -0.10569819418E+03 -0.13254897581E+03  0.21179873952E+03  0.41800000000E+01 0.  1.
         -5    1    3    3    0  502  0.30261992557E+02 -0.18160549399E+02 -0.31674186852E+02  0.47605884728E+02  0.41800000000E+01 0.  1.
        -11    1    1    2    0    0  0.37757905015E+02  0.15224831589E+02 -0.50246992131E+02  0.64670047984E+02  0.00000000000E+00 0.  1.
         11    1    1    2    0    0  0.58865461791E+02  0.10863391199E+03 -0.48163605832E+03  0.49723210083E+03  0.00000000000E+00 0. -1.
</event>
<event>
 7    1  0.2855090E-009  0.1227238E+03  0.7561462E-02  0.1238670E+00
          3   -1    0    0  501    0  0.00000000000E+00  0.00000000000E+00  0.46846093500E+02  0.46846093500E+02  0.00000000000E+00 0. -1.
         -3   -1    0    0    0  501 -0.00000000000E+00 -0.00000000000E+00 -0.40619346207E+03  0.40619346207E+03  0.00000000000E+00 0.  1.
         25    2    1    2    0    0  0.22352752334E+02 -0.80534110921E+02 -0.22315895667E+03  0.26913244121E+03  0.12508781879E+03 0.  0.
          5    1    3    3  502    0  0.53021948789E+02 -0.17590572568E+02 -0.17577232941E+03  0.18448343959E+03  0.41800000000E+01 0. -1.
         -5    1    3    3    0  502 -0.30669196455E+02 -0.62943538353E+02 -0.47386627262E+02  0.84649001618E+02  0.41800000000E+01 0. -1.
        -11    1    1    2    0    0  0.23695821378E+02  0.67334499643E+02 -0.56960038623E+02  0.91322903988E+02  0.00000000000E+00 0.  1.
         11    1    1    2    0    0 -0.46048573712E+02  0.13199611278E+02 -0.79228373276E+02  0.92584210375E+02  0.00000000000E+00 0. -1.
</event>
<event>
 7    1  0.2855090E-009  0.1008130E+03  0.7561462E-02  0.1278596E+00
         -1   -1    0    0    0  501 -0.00000000000E+00  0.00000000000E+00  0.38495896737E+02  0.38495896737E+02  0.00000000000E+00 0.  1.
          1   -1    0    0  501    0  0.00000000000E+00 -0.00000000000E+00 -0.34602154611E+03  0.34602154611E+03  0.00000000000E+00 0. -1.
         25    2    1    2    0    0 -0.29620829657E+02 -0.25079812002E+02 -0.17405026556E+03  0.21782547522E+03  0.12509217479E+03 0.  0.
          5    1    3    3  502    0  0.39438222172E+02  0.13487538639E+02 -0.24328028303E+02  0.48441845833E+02  0.41800000000E+01 0.  1.
         -5    1    3    3    0  502 -0.69059051829E+02 -0.38567350641E+02 -0.14972223726E+03  0.16938362939E+03  0.41800000000E+01 0.  1.
        -11    1    1    2    0    0  0.25752862945E+02 -0.21645951646E+02 -0.10844510310E+03  0.11354337302E+03  0.00000000000E+00 0. -1.
         11    1    1    2    0    0  0.38679667119E+01  0.46725763648E+02 -0.25030280710E+02  0.53148594595E+02  0.00000000000E+00 0.  1.
</event>
<event>
 7    1  0.2855090E-009  0.6090116E+02  0.7561462E-02  0.1394088E+00
          2   -1    0    0  501    0  0.00000000000E+00  0.00000000000E+00  0.34064909775E+02  0.34064909775E+02  0.00000000000E+00 0. -1.
         -2   -1    0    0    0  501 -0.00000000000E+00 -0.00000000000E+00 -0.39993792709E+03  0.39993792709E+03  0.00000000000E+00 0.  1.
         25    2    1    2    0    0 -0.24770742809E+02 -0.57409885050E+01 -0.13819337273E+03  0.18811375368E+03  0.12507128930E+03 0.  0.
          5    1    3    3  502    0  0.47845230365E+01 -0.46246331626E+01 -0.15408088759E+03  0.15428114342E+03  0.41800000000E+01 0.  1.
         -5    1    3    3    0  502 -0.29555265845E+02 -0.11163553424E+01  0.15887514862E+02  0.33832610259E+02  0.41800000000E+01 0.  1.
        -11    1    1    2    0    0 -0.13127561965E+02  0.34230531085E+02 -0.50050786947E+02  0.62041465291E+02  0.00000000000E+00 0. -1.
         11    1    1    2    0    0  0.37898304773E+02 -0.28489542580E+02 -0.17762885764E+03  0.18384761790E+03  0.00000000000E+00 0.  1.
</event>
<event>
 7    1  0.2855090E-009  0.1320337E+03  0.7561462E-02  0.1224469E+00
          1   -1    0    0  501    0  0.00000000000E+00  0.00000000000E+00  0.36553415872E+03  0.36553415872E+03  0.00000000000E+00 0. -1.
         -1   -1    0    0    0  501 -0.00000000000E+00 -0.00000000000E+00 -0.68915780131E+02  0.68915780131E+02  0.00000000000E+00 0.  1.
         25    2    1    2    0    0 -0.10929729039E+03  0.21691092107E+02  0.17582716642E+03  0.24284772303E+03  0.12507367016E+03 0.  0.
          5    1    3    3  502    0 -0.82683481156E+02  0.40234713843E+02  0.35332148036E+02  0.98596264326E+02  0.41800000000E+01 0.  1.
         -5    1    3    3    0  502 -0.26613809232E+02 -0.18543621736E+02  0.14049501838E+03  0.14425145871E+03  0.41800000000E+01 0.  1.
        -11    1    1    2    0    0  0.31571441415E+02 -0.47830326794E+02  0.17921850686E+02  0.60047388005E+02  0.00000000000E+00 0.  1.
         11    1    1    2    0    0  0.77725848974E+02  0.26139234687E+02  0.10286936149E+03  0.13155482781E+03  0.00000000000E+00 0. -1.
</event>
<event>
 7    1  0.2855090E-009  0.1963382E+03  0.7561462E-02  0.1152866E+00
          2   -1    0    0  501    0  0.00000000000E+00  0.00000000000E+00  0.33079903261E+03  0.33079903261E+03  0.00000000000E+00 0.  1.
         -2   -1    0    0    0  501 -0.00000000000E+00 -0.00000000000E+00 -0.14971428265E+03  0.14971428265E+03  0.00000000000E+00 0. -1.
         25    2    1    2    0    0 -0.59303760736E+02 -0.16639846676E+03  0.65169886922E+01  0.21655410302E+03  0.12509125715E+03 0.  0.
          5    1    3    3  502    0 -0.65633037426E+02 -0.17343182720E+03 -0.21465907633E+02  0.18672051809E+03  0.41800000000E+01 0.  1.
         -5    1    3    3    0  502  0.63292766905E+01  0.70333604396E+01  0.27982896326E+02  0.29833584921E+02  0.41800000000E+01 0.  1.
        -11    1    1    2    0    0  0.81238680408E+02  0.11344636357E+03  0.11044637809E+03  0.17795562097E+03  0.00000000000E+00 0.  1.
         11    1    1    2    0    0 -0.21934919672E+02  0.52952103192E+02  0.64121383178E+02  0.86003591286E+02  0.00000000000E+00 0. -1.
</event>
<event>
 7    1  0.2855090E-009  0.9781590E+02  0.7561462E-02  0.1284957E+00
          1   -1    0    0  501    0  0.00000000000E+00  0.00000000000E+00  0.49617312035E+03  0.49617312035E+03  0.00000000000E+00 0. -1.
         -1   -1    0    0    0  501 -0.00000000000E+00 -0.00000000000E+00 -0.26672574641E+02  0.26672574641E+02  0.00000000000E+00 0.  1.
         25    2    1    2    0    0  0.26457487637E+02 -0.73872510461E+01  0.33539930665E+03  0.35901232925E+03  0.12507033029E+03 0.  0.
          5    1    3    3  502    0  0.35905195494E+02 -0.58639065639E+02  0.24584514183E+03  0.25531359001E+03  0.41800000000E+01 0.  1.
         -5    1    3    3    0  502 -0.94477078571E+01  0.51251814593E+02  0.89554164826E+02  0.10369873924E+03  0.41800000000E+01 0.  1.
        -11    1    1    2    0    0 -0.15131793728E+02  0.38492935739E+02  0.12161102442E+03  0.12845200872E+03  0.00000000000E+00 0.  1.
         11    1    1    2    0    0 -0.11325693908E+02 -0.31105684693E+02  0.12490214628E+02  0.35381357015E+02  0.00000000000E+00 0. -1.
</event>
<event>
 7    1  0.2855090E-009  0.1315146E+03  0.7561462E-02  0.1225226E+00
          2   -1    0    0  501    0  0.00000000000E+00  0.00000000000E+00  0.57133608523E+03  0.57133608523E+03  0.00000000000E+00 0. -1.
         -2   -1    0    0    0  501 -0.00000000000E+00 -0.00000000000E+00 -0.41110337872E+02  0.41110337872E+02  0.00000000000E+00 0.  1.
         25    2    1    2    0    0  0.90154639451E+02 -0.19011653981E+02  0.39633807878E+03  0.42570030570E+03  0.12509026972E+03 0.  0.
          5    1    3    3  502    0 -0.16621804689E+02 -0.27847880447E+02  0.31392374655E+02  0.45329266738E+02  0.41800000000E+01 0.  1.
         -5    1    3    3    0  502  0.10677644414E+03  0.88362264655E+01  0.36494570413E+03  0.38037103897E+03  0.41800000000E+01 0.  1.
        -11    1    1    2    0    0 -0.44256008800E+02  0.50725201918E+02  0.42298879425E+02  0.79503683092E+02  0.00000000000E+00 0.  1.
         11    1    1    2    0    0 -0.45898630651E+02 -0.31713547937E+02  0.91588789154E+02  0.10724243431E+03  0.00000000000E+00 0. -1.
</event>
<event>
 7    1  0.2855090E-009  0.8069035E+02  0.7561462E-02  0.1327104E+00
         -2   -1    0    0    0  501 -0.00000000000E+00  0.00000000000E+00  0.96050229935E+02  0.96050229935E+02  0.00000000000E+00 0.  1.
          2   -1    0    0  501    0  0.00000000000E+00 -0.00000000000E+00 -0.18085041755E+03  0.18085041755E+03  0.00000000000E+00 0. -1.
         25    2    1    2    0    0  0.51263595562E+02 -0.27942398257E+02 -0.93992832027E+02  0.16700554737E+03  0.12508983384E+03 0.  0.
          5    1    3    3  502    0 -0.89806792260E+01 -0.28215362184E+02  0.21395580703E+02  0.36769587109E+02  0.41800000000E+01 0. -1.
         -5    1    3    3    0  502  0.60244274788E+02  0.27296392679E+00 -0.11538841273E+03  0.13023596027E+03  0.41800000000E+01 0. -1.
        -11    1    1    2    0    0 -0.32365388357E+02  0.37807834384E+02  0.45733181195E+02  0.67590491687E+02  0.00000000000E+00 0.  1.
         11    1    1    2    0    0 -0.18898207205E+02 -0.98654361273E+01 -0.36540536787E+02  0.42304608428E+02  0.00000000000E+00 0. -1.
</event>
<event>
 7    1  0.2855090E-009  0.1746126E+03  0.7561462E-02  0.1173121E+00
         -2   -1    0    0    0  501 -0.00000000000E+00  0.00000000000E+00  0.93146217429E+02  0.93146217429E+02  0.00000000000E+00 0.  1.
          2   -1    0    0  501    0  0.00000000000E+00 -0.00000000000E+00 -0.33896422816E+03  0.33896422816E+03  0.00000000000E+00 0. -1.
         25    2    1    2    0    0 -0.13332867359E+03  0.42817536359E+02 -0.14547748530E+03  0.23753230943E+03  0.12509205679E+03 0.  0.
          5    1    3    3  502    0 -0.80342228122E+01 -0.37700895194E+02 -0.29512461812E+02  0.48727446442E+02  0.41800000000E+01 0.  1.
         -5    1    3    3    0  502 -0.12529445078E+03  0.80518431552E+02 -0.11596502348E+03  0.18880486299E+03  0.41800000000E+01 0.  1.
        -11    1    1    2    0    0  0.16108442043E+02 -0.41187639560E+02 -0.50676035252E+02  0.67260420059E+02  0.00000000000E+00 0.  1.
         11    1    1    2    0    0  0.11722023155E+03 -0.16298967984E+01 -0.49664490179E+02  0.12731771610E+03  0.00000000000E+00 0. -1.
</event>
<event>
 7    1  0.2855090E-009  0.2924366E+03  0.7561462E-02  0.1089084E+00
         -1   -1    0    0    0  501 -0.00000000000E+00  0.00000000000E+00  0.53855031591E+02  0.53855031591E+02  0.00000000000E+00 0.  1.
          1   -1    0    0  501    0  0.00000000000E+00 -0.00000000000E+00 -0.17001015730E+04  0.17001015730E+04  0.00000000000E+00 0. -1.
         25    2    1    2    0    0 -0.11280543888E+03 -0.25643587138E+03 -0.93865069546E+03  0.98752041993E+03  0.12508808303E+03 0.  0.
          5    1    3    3  502    0 -0.12950816522E+03 -0.22703577535E+03 -0.71497948586E+03  0.76126916774E+03  0.41800000000E+01 0. -1.
         -5    1    3    3    0  502  0.16702726347E+02 -0.29400096040E+02 -0.22367120960E+03  0.22625125219E+03  0.41800000000E+01 0. -1.
        -11    1    1    2    0    0  0.16157917543E+02  0.12611048185E+03 -0.24177145308E+03  0.27316362762E+03  0.00000000000E+00 0.  1.
         11    1    1    2    0    0  0.96647521333E+02  0.13032538953E+03 -0.46582439289E+03  0.49327255706E+03  0.00000000000E+00 0. -1.
</event>
<event>
 7    1  0.2855090E-009  0.1713369E+03  0.7561462E-02  0.1176461E+00
         -1   -1    0    0    0  501 -0.00000000000E+00  0.00000000000E+00  0.14736259250E+03  0.14736259250E+03  0.00000000000E+00 0.  1.
          1   -1    0    0  501    0  0.00000000000E+00 -0.00000000000E+00 -0.22995723348E+03  0.22995723348E+03  0.00000000000E+00 0. -1.
         25    2    1    2    0    0  0.80376271384E+02  0.10760825428E+03 -0.10342494377E+03  0.21068122171E+03  0.12509986729E+03 0.  0.
          5    1    3    3  502    0 -0.31979376560E+02  0.38325245662E+02 -0.40379093991E+02  0.64338546858E+02  0.41800000000E+01 0. -1.
         -5    1    3    3    0  502  0.11235564794E+03  0.69283008620E+02 -0.63045849778E+02  0.14634267485E+03  0.41800000000E+01 0. -1.
        -11    1    1    2    0    0  0.17842676712E+02 -0.31732836607E+02  0.21969232995E+02  0.42520362531E+02  0.00000000000E+00 0.  1.
         11    1    1    2    0    0 -0.98218948096E+02 -0.75875417675E+02 -0.11389302044E+01  0.12411824175E+03  0.00000000000E+00 0. -1.
</event>
<event>
 7    1  0.2855090E-009  0.1149115E+03  0.7561462E-02  0.1251736E+00
         -1   -1    0    0    0  501 -0.00000000000E+00  0.00000000000E+00  0.39500215829E+03  0.39500215829E+03  0.00000000000E+00 0.  1.
          1   -1    0    0  501    0  0.00000000000E+00 -0.00000000000E+00 -0.49759176045E+02  0.49759176045E+02  0.00000000000E+00 0. -1.
         25    2    1    2    0    0 -0.72686138639E+02  0.49669087323E+02  0.21247496989E+03  0.26180782900E+03  0.12508970186E+03 0.  0.
          5    1    3    3  502    0 -0.89774175463E+01  0.39549312481E+02  0.11170808696E+01  0.40785566236E+02  0.41800000000E+01 0. -1.
         -5    1    3    3    0  502 -0.63708721092E+02  0.10119774842E+02  0.21135788902E+03  0.22102226277E+03  0.41800000000E+01 0. -1.
        -11    1    1    2    0    0  0.64981930861E+02 -0.74238501609E+02  0.11573376312E+03  0.15207994735E+03  0.00000000000E+00 0.  1.
         11    1    1    2    0    0  0.77042077775E+01  0.24569414286E+02  0.17034249238E+02  0.30873557990E+02  0.00000000000E+00 0. -1.
</event>
<event>
 7    1  0.2855090E-009  0.1297121E+03  0.7561462E-02  0.1227883E+00
          1   -1    0    0  501    0  0.00000000000E+00  0.00000000000E+00  0.12167910668E+03  0.12167910668E+03  0.00000000000E+00 0. -1.
         -1   -1    0    0    0  501 -0.00000000000E+00 -0.00000000000E+00 -0.23194694916E+03  0.23194694916E+03  0.00000000000E+00 0.  1.
         25    2    1    2    0    0 -0.77886110409E+02 -0.79442782215E+02  0.65430658454E+01  0.16753308509E+03  0.12508845290E+03 0.  0.
          5    1    3    3  502    0 -0.64039684511E+02 -0.81681785777E+01 -0.44640366117E+02  0.78600477229E+02  0.41800000000E+01 0.  1.
         -5    1    3    3    0  502 -0.13846425898E+02 -0.71274603637E+02  0.51183431963E+02  0.88932607863E+02  0.41800000000E+01 0.  1.
        -11    1    1    2    0    0  0.67140235766E+02  0.33906239400E+02 -0.18864561615E+02  0.77545573787E+02  0.00000000000E+00 0. -1.
         11    1    1    2    0    0  0.10745874643E+02  0.45536542814E+02 -0.97946346713E+02  0.10854739696E+03  0.00000000000E+00 0.  1.
</event>
<event>
 7    1  0.2855090E-009  0.1013505E+03  0.7561462E-02  0.1277481E+00
          2   -1    0    0  501    0  0.00000000000E+00  0.00000000000E+00  0.45192746585E+03  0.45192746585E+03  0.00000000000E+00 0. -1.
         -2   -1    0    0    0  501 -0.00000000000E+00 -0.00000000000E+00 -0.34781009416E+02  0.34781009416E+02  0.00000000000E+00 0.  1.
         25    2    1    2    0    0  0.40956136646E+02 -0.45057537615E+02  0.20763895708E+03  0.24993860723E+03  0.12509110305E+03 0.  0.
          5    1    3    3  502    0  0.19027108708E+02 -0.74438817586E+02  0.19706353401E+03  0.21155301290E+03  0.41800000000E+01 0.  1.
         -5    1    3    3    0  502  0.21929027938E+02  0.29381279971E+02  0.10575423066E+02  0.38385594330E+02  0.41800000000E+01 0.  1.
        -11    1    1    2    0    0 -0.29945704432E+02 -0.10867456398E+02  0.17221164024E+02  0.36213468666E+02  0.00000000000E+00 0.  1.
         11    1    1    2    0    0 -0.11010432214E+02  0.55924994013E+02  0.19228633534E+03  0.20055639937E+03  0.00000000000E+00 0. -1.
</event>
<event>
 7    1  0.2855090E-009  0.1665014E+03  0.7561462E-02  0.1181546E+00
          2   -1    0    0  501    0  0.00000000000E+00  0.00000000000E+00  0.57595160799E+03  0.57595160799E+03  0.00000000000E+00 0. -1.
         -2   -1    0    0    0  501 -0.00000000000E+00 -0.00000000000E+00 -0.52930048293E+02  0.52930048293E+02  0.00000000000E+00 0.  1.
         25    2    1    2    0    0  0.14665105417E+03 -0.14174732352E+02  0.27234999107E+03  0.33396055140E+03  0.12509067723E+03 0.  0.
          5    1    3    3  502    0  0.16237891035E+03 -0.15315378938E+02  0.27254322596E+03  0.31764564183E+03  0.41800000000E+01 0. -1.
         -5    1    3    3    0  502 -0.15727856174E+02  0.11406465859E+01 -0.19323489251E+00  0.16314909568E+02  0.41800000000E+01 0. -1.
        -11    1    1    2    0    0 -0.53856141128E+02  0.26330473696E+02  0.12062281269E+03  0.13469833230E+03  0.00000000000E+00 0. -1.
         11    1    1    2    0    0 -0.92794913044E+02 -0.12155741344E+02  0.13004875594E+03  0.16022277259E+03  0.00000000000E+00 0.  1.
</event>
<event>
 7    1  0.2855090E-009  0.9896871E+02  0.7561462E-02  0.1282480E+00
         -3   -1    0    0    0  501 -0.00000000000E+00  0.00000000000E+00  0.14816045243E+03  0.14816045243E+03  0.00000000000E+00 0.  1.
          3   -1    0    0  501    0  0.00000000000E+00 -0.00000000000E+00 -0.11958176988E+03  0.11958176988E+03  0.00000000000E+00 0. -1.
         25    2    1    2    0    0 -0.85953943772E+01 -0.77207279722E+02  0.92298007339E+01  0.14753651289E+03  0.12508792335E+03 0.  0.
          5    1    3    3  502    0  0.44837638066E+01 -0.75279497757E+02 -0.47442366149E+02  0.89192810396E+02  0.41800000000E+01 0. -1.
         -5    1    3    3    0  502 -0.13079158184E+02 -0.19277819646E+01  0.56672166883E+02  0.58343702499E+02  0.41800000000E+01 0. -1.
        -11    1    1    2    0    0  0.32960963031E+02  0.77454766091E+02  0.35089152813E+02  0.91197119029E+02  0.00000000000E+00 0.  1.
         11    1    1    2    0    0 -0.24365568654E+02 -0.24748636857E+00 -0.15740270997E+02  0.29008590389E+02  0.00000000000E+00 0. -1.
</event>
<event>
 7    1  0.2855090E-009  0.9580036E+02  0.7561462E-02  0.1289384E+00
          1   -1    0    0  501    0  0.00000000000E+00  0.00000000000E+00  0.66258275437E+03  0.66258275437E+03  0.00000000000E+00 0. -1.
         -1   -1    0    0    0  501 -0.00000000000E+00 -0.00000000000E+00 -0.17744315569E+02  0.17744315569E+02  0.00000000000E+00 0.  1.
         25    2    1    2    0    0  0.72669037322E+00  0.14584746895E+01  0.39501230948E+03  0.41434867079E+03  0.12508973228E+03 0.  0.
          5    1    3    3  502    0  0.38001021980E+02  0.48301015886E+02  0.24854887576E+03  0.25606851006E+03  0.41800000000E+01 0. -1.
         -5    1    3    3    0  502 -0.37274331606E+02 -0.46842541197E+02  0.14646343372E+03  0.15828016073E+03  0.41800000000E+01 0. -1.
        -11    1    1    2    0    0 -0.34923038803E+02  0.47244482120E+01  0.40066830391E+02  0.53360003258E+02  0.00000000000E+00 0.  1.
         11    1    1    2    0    0  0.34196348430E+02 -0.61829229015E+01  0.20975929893E+03  0.21261839589E+03  0.00000000000E+00 0. -1.
</event>
<event>
 7    1  0.2855090E-009  0.1087676E+03  0.7561462E-02  0.1262869E+00
          1   -1    0    0  501    0  0.00000000000E+00  0.00000000000E+00  0.92687090479E+02  0.92687090479E+02  0.00000000000E+00 0. -1.
         -1   -1    0    0    0  501 -0.00000000000E+00 -0.00000000000E+00 -0.25805149229E+03  0.25805149229E+03  0.00000000000E+00 0.  1.
         25    2    1    2    0    0 -0.15959398390E+02 -0.61656957538E+02 -0.19332628775E+03  0.23891234534E+03  0.12509105649E+03 0.  0.
          5    1    3    3  502    0  0.39497282443E+02 -0.70274019769E+02 -0.87462777403E+02  0.11901967487E+03  0.41800000000E+01 0. -1.
         -5    1    3    3    0  502 -0.55456680833E+02  0.86170622315E+01 -0.10586351035E+03  0.11989267047E+03  0.41800000000E+01 0. -1.
        -11    1    1    2    0    0  0.33479206097E+02  0.46935474654E+02  0.52712442382E+02  0.78117844337E+02  0.00000000000E+00 0. -1.
         11    1    1    2    0    0 -0.17519807707E+02  0.14721482884E+02 -0.24750556448E+02  0.33708393093E+02  0.00000000000E+00 0.  1.
</event>
<event>
 7    1  0.2855090E-009  0.1616439E+03  0.7561462E-02  0.1186853E+00
          1   -1    0    0  501    0  0.00000000000E+00  0.00000000000E+00  0.19314663312E+03  0.19314663312E+03  0.00000000000E+00 0. -1.
         -1   -1    0    0    0  501 -0.00000000000E+00 -0.00000000000E+00 -0.15039987149E+03  0.15039987149E+03  0.00000000000E+00 0.  1.
         25    2    1    2    0    0 -0.36078630892E+02  0.12593133351E+03  0.27955254912E+02  0.18327653870E+03  0.12509366488E+03 0.  0.
          5    1    3    3  502    0  0.34385208010E+02  0.99676779777E+02  0.11142057696E+02  0.10611041799E+03  0.41800000000E+01 0. -1.
         -5    1    3    3    0  502 -0.70463838902E+02  0.26254553731E+02  0.16813197216E+02  0.77166120707E+02  0.41800000000E+01 0. -1.
        -11    1    1    2    0    0  0.41958499044E+02 -0.45834799621E+02  0.42532515434E+02  0.75301788608E+02  0.00000000000E+00 0. -1.
         11    1    1    2    0    0 -0.58798681521E+01 -0.80096533887E+02 -0.27741008712E+02  0.84968177305E+02  0.00000000000E+00 0.  1.
</event>
<event>
 7    1  0.2855090E-009  0.1353281E+03  0.7561462E-02  0.1219757E+00
          2   -1    0    0  501    0  0.00000000000E+00  0.00000000000E+00  0.54398873011E+03  0.54398873011E+03  0.00000000000E+00 0. -1.
         -2   -1    0    0    0  501 -0.00000000000E+00 -0.00000000000E+00 -0.48161019383E+02  0.48161019383E+02  0.00000000000E+00 0.  1.
         25    2    1    2    0    0  0.82054726868E+02  0.65327596893E+02  0.16023949929E+03  0.22875185647E+03  0.12510012625E+03 0.  0.
          5    1    3    3  502    0  0.54696158073E+02 -0.69184386934E+01  0.52661271923E+01  0.55540426695E+02  0.41800000000E+01 0.  1.
         -5    1    3    3    0  502  0.27358568795E+02  0.72246035586E+02  0.15497337210E+03  0.17321142977E+03  0.41800000000E+01 0.  1.
        -11    1    1    2    0    0 -0.10956803488E+02  0.22485651269E+02  0.83079582462E+02  0.86763316429E+02  0.00000000000E+00 0.  1.
         11    1    1    2    0    0 -0.71097923380E+02 -0.87813248162E+02  0.25250862897E+03  0.27663457659E+03  0.00000000000E+00 0. -1.
</event>
<event>
 7    1  0.2855090E-009  0.8037985E+02  0.7561462E-02  0.1327977E+00
         -3   -1    0    0    0  501 -0.00000000000E+00  0.00000000000E+00  0.94607261373E+02  0.94607261373E+02  0.00000000000E+00 0.  1.
          3   -1    0    0  501    0  0.00000000000E+00 -0.00000000000E+00 -0.15957331339E+03  0.15957331339E+03  0.00000000000E+00 0. -1.
         25    2    1    2    0    0 -0.33802237695E+02  0.99188780358E+01  0.11472687798E+02  0.13046138798E+03  0.12509027050E+03 0.  0.
          5    1    3    3  502    0 -0.28726177443E+02 -0.43940933792E+02 -0.31394557283E+02  0.61311414598E+02  0.41800000000E+01 0. -1.
         -5    1    3    3    0  502 -0.50760602524E+01  0.53859811828E+02  0.42867245081E+02  0.69149973381E+02  0.41800000000E+01 0. -1.
        -11    1    1    2    0    0  0.35176996923E+02  0.78269369038E+01  0.84250297179E+01  0.37008960801E+02  0.00000000000E+00 0.  1.
         11    1    1    2    0    0 -0.13747592281E+01 -0.17745814940E+02 -0.84863769530E+02  0.86710225981E+02  0.00000000000E+00 0. -1.
</event>
<event>
 7    1  0.2855090E-009  0.1223758E+03  0.7561462E-02  0.1239228E+00
         -1   -1    0    0    0  501 -0.00000000000E+00  0.00000000000E+00  0.45393376484E+02  0.45393376484E+02  0.00000000000E+00 0.  1.
          1   -1    0    0  501    0  0.00000000000E+00 -0.00000000000E+00 -0.45514467317E+03  0.45514467317E+03  0.00000000000E+00 0. -1.
         25    2    1    2    0    0 -0.81410422487E+02 -0.44770295310E+02 -0.26965625167E+03  0.31143843196E+03  0.12508943444E+03 0.  0.
          5    1    3    3  502    0 -0.97245667103E+02 -0.32197285845E+02 -0.27197959648E+03  0.29066089914E+03  0.41800000000E+01 0.  1.
         -5    1    3    3    0  502  0.15835244616E+02 -0.12573009465E+02  0.23233448150E+01  0.20777532822E+02  0.41800000000E+01 0.  1.
        -11    1    1    2    0    0  0.12730325608E+01  0.41352144860E+02 -0.23503525981E+02  0.47581889726E+02  0.00000000000E+00 0.  1.
         11    1    1    2    0    0  0.80137389926E+02  0.34181504499E+01 -0.11659151903E+03  0.14151772796E+03  0.00000000000E+00 0. -1.
</event>
<event>
 6    1  0.3201552E-009  0.1100103E+03  0.7561462E-02  0.1260551E+00
         -3   -1    0    0    0  501 -0.00000000000E+00  0.00000000000E+00  0.16167138570E+03  0.16167138570E+03  0.00000000000E+00 0.  1.
          3   -1    0    0  501    0  0.00000000000E+00 -0.00000000000E+00 -0.92849622101E+02  0.92849622101E+02  0.00000000000E+00 0. -1.
          5    1    1    2  502    0  0.20844552000E+02  0.70015854716E+02  0.61423871066E+02  0.95535750358E+02  0.41800000000E+01 0.  1.
         -5    1    1    2    0  502 -0.30580055109E+02 -0.43575947849E+02  0.28484765830E+02  0.60521543981E+02  0.41800000000E+01 0.  1.
        -11    1    1    2    0    0  0.74173745822E+01  0.33071245129E+02  0.34145491052E+01  0.34064407315E+02  0.00000000000E+00 0.  1.
         11    1    1    2    0    0  0.23181285267E+01 -0.59511151997E+02 -0.24501422407E+02  0.64399306144E+02  0.00000000000E+00 0. -1.
</event>
<event>
 7    1  0.2855090E-009  0.1027432E+03  0.7561462E-02  0.1274631E+00
          2   -1    0    0  501    0  0.00000000000E+00  0.00000000000E+00  0.17973491917E+04  0.17973491917E+04  0.00000000000E+00 0. -1.
         -2   -1    0    0    0  501 -0.00000000000E+00 -0.00000000000E+00 -0.16120610263E+02  0.16120610263E+02  0.00000000000E+00 0.  1.
         25    2    1    2    0    0  0.11671722307E+02  0.70870421175E+02  0.15382728551E+04  0.15450209745E+04  0.12509032447E+03 0.  0.
          5    1    3    3  502    0 -0.12257153811E+02  0.65051649963E+02  0.33576127646E+03  0.34224999949E+03  0.41800000000E+01 0. -1.
         -5    1    3    3    0  502  0.23928876118E+02  0.58187712123E+01  0.12025115786E+04  0.12027709750E+04  0.41800000000E+01 0. -1.
        -11    1    1    2    0    0 -0.44975078175E+02 -0.12009987885E+02  0.99619916842E+02  0.10995965304E+03  0.00000000000E+00 0. -1.
         11    1    1    2    0    0  0.33303355868E+02 -0.58860433290E+02  0.14333580955E+03  0.15848917446E+03  0.00000000000E+00 0.  1.
</event>
<event>
 7    1  0.2855090E-009  0.1480311E+03  0.7561462E-02  0.1202913E+00
         -2   -1    0    0    0  501 -0.00000000000E+00  0.00000000000E+00  0.99357097206E+02  0.99357097206E+02  0.00000000000E+00 0.  1.
          2   -1    0    0  501    0  0.00000000000E+00 -0.00000000000E+00 -0.30490238817E+03  0.30490238817E+03  0.00000000000E+00 0. -1.
         25    2    1    2    0    0  0.12248739471E+03 -0.17048609805E+02 -0.43911294624E+02  0.18130955064E+03  0.12510449393E+03 0.  0.
          5    1    3    3  502    0  0.78161753987E+01 -0.27428300303E+02  0.32205307891E+02  0.43221042464E+02  0.41800000000E+01 0.  1.
         -5    1    3    3    0  502  0.11467121931E+03  0.10379690498E+02 -0.76116602515E+02  0.13808850818E+03  0.41800000000E+01 0.  1.
        -11    1    1    2    0    0  0.14025788465E+02 -0.20639991297E+01 -0.25720985829E+02  0.29369234694E+02  0.00000000000E+00 0. -1.
         11    1    1    2    0    0 -0.13651318318E+03  0.19112608934E+02 -0.13591301051E+03  0.19358070004E+03  0.00000000000E+00 0.  1.
</event>
<event>
 7    1  0.2855090E-009  0.1486358E+03  0.7561462E-02  0.1202159E+00
          2   -1    0    0  501    0  0.00000000000E+00  0.00000000000E+00  0.53646257918E+03  0.53646257918E+03  0.00000000000E+00 0. -1.
         -2   -1    0    0    0  501 -0.00000000000E+00 -0.00000000000E+00 -0.62378239770E+02  0.62378239770E+02  0.00000000000E+00 0.  1.
         25    2    1    2    0    0  0.13648379474E+03  0.34261145218E+02  0.16848580820E+03  0.25265907643E+03  0.12508992381E+03 0.  0.
          5    1    3    3  502    0  0.42255514141E+02  0.14534779750E+02  0.14731403526E+03  0.15399897948E+03  0.41800000000E+01 0. -1.
         -5    1    3    3    0  502  0.94228280602E+02  0.19726365469E+02  0.21171772941E+02  0.98660096945E+02  0.41800000000E+01 0. -1.
        -11    1    1    2    0    0 -0.65601226747E+02  0.17927557633E+02  0.86287651412E+02  0.10986572286E+03  0.00000000000E+00 0.  1.
         11    1    1    2    0    0 -0.70882567995E+02 -0.52188702851E+02  0.21931087979E+03  0.23631601966E+03  0.00000000000E+00 0. -1.
</event>
<event>
 7    1  0.2855090E-009  0.1805173E+03  0.7561462E-02  0.1167303E+00
         -3   -1    0    0    0  501 -0.00000000000E+00  0.00000000000E+00  0.15350750700E+03  0.15350750700E+03  0.00000000000E+00 0.  1.
          3   -1    0    0  501    0  0.00000000000E+00 -0.00000000000E+00 -0.22549596524E+03  0.22549596524E+03  0.00000000000E+00 0. -1.
         25    2    1    2    0    0  0.57768788977E+02 -0.13893236039E+03 -0.54952443426E+02  0.20324910222E+03  0.12510392789E+03 0.  0.
          5    1    3    3  502    0 -0.10859200795E+02  0.14699758211E+02 -0.26629942657E+02  0.32567336079E+02  0.41800000000E+01 0.  1.
         -5    1    3    3    0  502  0.68627989772E+02 -0.15363211860E+03 -0.28322500769E+02  0.17068176615E+03  0.41800000000E+01 0.  1.
        -11    1    1    2    0    0 -0.68269582263E+02  0.50499196149E+02 -0.17486499209E+02  0.86698802348E+02  0.00000000000E+00 0.  1.
         11    1    1    2    0    0  0.10500793286E+02  0.88433164237E+02  0.45048439441E+00  0.89055567669E+02  0.00000000000E+00 0. -1.
</event>
<event>
 7    1  0.2855090E-009  0.1160947E+03  0.7561462E-02  0.1249682E+00
         -1   -1    0    0    0  501 -0.00000000000E+00  0.00000000000E+00  0.21037250751E+02  0.21037250751E+02  0.00000000000E+00 0.  1.
          1   -1    0    0  501    0  0.00000000000E+00 -0.00000000000E+00 -0.72894594565E+03  0.72894594565E+03  0.00000000000E+00 0. -1.
         25    2    1    2    0    0  0.27268593874E+02  0.52317399223E+02 -0.41912658819E+03  0.44135863266E+03  0.12509859802E+03 0.  0.
          5    1    3    3  502    0  0.29712539652E+02 -0.36666566465E+02 -0.18115863242E+03  0.18725168786E+03  0.41800000000E+01 0. -1.
         -5    1    3    3    0  502 -0.24439457780E+01  0.88983965688E+02 -0.23796795577E+03  0.25410694480E+03  0.41800000000E+01 0. -1.
        -11    1    1    2    0    0 -0.12400046399E+02  0.19085815146E+02 -0.20588753346E+02  0.30690817109E+02  0.00000000000E+00 0.  1.
         11    1    1    2    0    0 -0.14868547475E+02 -0.71403214369E+02 -0.26819335336E+03  0.27793374663E+03  0.00000000000E+00 0. -1.
</event>
<event>
 7    1  0.2855090E-009  0.1211040E+03  0.7561462E-02  0.1241287E+00
          1   -1    0    0  501    0  0.00000000000E+00  0.00000000000E+00  0.88139687712E+02  0.88139687712E+02  0.00000000000E+00 0. -1.
         -1   -1    0    0    0  501 -0.00000000000E+00 -0.00000000000E+00 -0.22960470257E+03  0.22960470257E+03  0.00000000000E+00 0.  1.
         25    2    1    2    0    0 -0.81375698988E+01 -0.82619701746E+02 -0.30298060898E+02  0.15315836651E+03  0.12508907857E+03 0.  0.
          5    1    3    3  502    0  0.33410283384E+02  0.17021793172E+02  0.79368413870E+01  0.38554563021E+02  0.41800000000E+01 0. -1.
         -5    1    3    3    0  502 -0.41547853283E+02 -0.99641494917E+02 -0.38234902285E+02  0.11460380349E+03  0.41800000000E+01 0. -1.
        -11    1    1    2    0    0 -0.20621346633E+02  0.40385554830E+02 -0.10339605620E+03  0.11290251288E+03  0.00000000000E+00 0.  1.
         11    1    1    2    0    0  0.28758916532E+02  0.42234146915E+02 -0.77708977529E+01  0.51683510887E+02  0.00000000000E+00 0. -1.
</event>
<event>
 7    1  0.2855090E-009  0.6872382E+02  0.7561462E-02  0.1364487E+00
          1   -1    0    0  501    0  0.00000000000E+00  0.00000000000E+00  0.48356269075E+03  0.48356269075E+03  0.00000000000E+00 0. -1.
         -1   -1    0    0    0  501 -0.00000000000E+00 -0.00000000000E+00 -0.29247257465E+02  0.29247257465E+02  0.00000000000E+00 0.  1.
         25    2    1    2    0    0 -0.20057879533E+02  0.26637145970E+02  0.19214462531E+03  0.23168322870E+03  0.12508279398E+03 0.  0.
          5    1    3    3  502    0 -0.11827530910E+02 -0.77507935996E+00  0.20103154178E+03  0.20142404133E+03  0.41800000000E+01 0.  1.
         -5    1    3    3    0  502 -0.82303486230E+01  0.27412225330E+02 -0.88869164712E+01  0.30259187371E+02  0.41800000000E+01 0.  1.
        -11    1    1    2    0    0  0.10503476547E+02  0.33476881961E+02  0.55338236834E+02  0.65523622468E+02  0.00000000000E+00 0.  1.
         11    1    1    2    0    0  0.95544029861E+01 -0.60114027931E+02  0.20683257114E+03  0.21560309704E+03  0.00000000000E+00 0. -1.
</event>
<event>
 7    1  0.2855090E-009  0.1089062E+03  0.7561462E-02  0.1262609E+00
          1   -1    0    0  501    0  0.00000000000E+00  0.00000000000E+00  0.11557495187E+04  0.11557495187E+04  0.00000000000E+00 0. -1.
         -1   -1    0    0    0  501 -0.00000000000E+00 -0.00000000000E+00 -0.12457854752E+02  0.12457854752E+02  0.00000000000E+00 0.  1.
         25    2    1    2    0    0  0.25789808088E+02 -0.45499857230E+02  0.62417018599E+03  0.63872504086E+03  0.12508359418E+03 0.  0.
          5    1    3    3  502    0 -0.24020698628E+02  0.19863220414E+02  0.52769290590E+02  0.61429731540E+02  0.41800000000E+01 0.  1.
         -5    1    3    3    0  502  0.49810506716E+02 -0.65363077644E+02  0.57140089541E+03  0.57729530932E+03  0.41800000000E+01 0.  1.
        -11    1    1    2    0    0  0.15669356790E+02  0.58552631147E+02  0.28799991342E+03  0.29430917329E+03  0.00000000000E+00 0.  1.
         11    1    1    2    0    0 -0.41459164879E+02 -0.13052773917E+02  0.23112156458E+03  0.23517315934E+03  0.00000000000E+00 0. -1.
</event>
<event>
 7    1  0.2855090E-009  0.1095514E+03  0.7561462E-02  0.1261403E+00
          4   -1    0    0  501    0  0.00000000000E+00  0.00000000000E+00  0.52626125399E+02  0.52626125399E+02  0.00000000000E+00 0. -1.
         -4   -1    0    0    0  501 -0.00000000000E+00 -0.00000000000E+00 -0.26541014732E+03  0.26541014732E+03  0.00000000000E+00 0.  1.
         25    2    1    2    0    0  0.48487276684E+02 -0.80325578687E+01 -0.14405496655E+03  0.19701498264E+03  0.12509009558E+03 0.  0.
          5    1    3    3  502    0  0.90676390496E+00  0.46769013491E+02 -0.15727618579E+02  0.49527701641E+02  0.41800000000E+01 0. -1.
         -5    1    3    3    0  502  0.47580512779E+02 -0.54801571360E+02 -0.12832734797E+03  0.14748728100E+03  0.41800000000E+01 0. -1.
        -11    1    1    2    0    0 -0.69100022381E+02  0.24233293463E+02 -0.53652725734E+02  0.90778194429E+02  0.00000000000E+00 0.  1.
         11    1    1    2    0    0  0.20612745697E+02 -0.16200735594E+02 -0.15076329633E+02  0.30243095644E+02  0.00000000000E+00 0. -1.
</event>
<event>
 7    1  0.2855090E-009  0.1193200E+03  0.7561462E-02  0.1244223E+00
          2   -1    0    0  501    0  0.00000000000E+00  0.00000000000E+00  0.11233476994E+04  0.11233476994E+04  0.00000000000E+00 0. -1.
         -2   -1    0    0    0  501 -0.00000000000E+00 -0.00000000000E+00 -0.22406486346E+02  0.22406486346E+02  0.00000000000E+00 0.  1.
         25    2    1    2    0    0 -0.94550222515E+02  0.42647135742E+02  0.77582022777E+03  0.79265408054E+03  0.12507974584E+03 0.  0.
          5    1    3    3  502    0 -0.48360404432E+02 -0.23585274283E+02  0.11648095889E+03  0.12837554309E+03  0.41800000000E+01 0. -1.
         -5    1    3    3    0  502 -0.46189818083E+02  0.66232410025E+02  0.65933926888E+03  0.66427853745E+03  0.41800000000E+01 0. -1.
        -11    1    1    2    0    0  0.83915665941E+02 -0.39341839384E+02  0.32861031877E+03  0.34142987701E+03  0.00000000000E+00 0. -1.
         11    1    1    2    0    0  0.10634556574E+02 -0.33052963580E+01 -0.34893334944E+01  0.11670228180E+02  0.00000000000E+00 0.  1.
</event>
<event>
 7    1  0.2855090E-009  0.8059671E+02  0.7561462E-02  0.1327367E+00
         -2   -1    0    0    0  501 -0.00000000000E+00  0.00000000000E+00  0.54833001196E+02  0.54833001196E+02  0.00000000000E+00 0.  1.
          2   -1    0    0  501    0  0.00000000000E+00 -0.00000000000E+00 -0.24152541926E+03  0.24152541926E+03  0.00000000000E+00 0. -1.
         25    2    1    2    0    0  0.10274665824E+02  0.10063294841E+02 -0.14143873875E+03  0.18936450162E+03  0.12508860457E+03 0.  0.
          5    1    3    3  502    0  0.34878340570E+02  0.60312699574E+02 -0.77195227432E+02  0.10407062943E+03  0.41800000000E+01 0. -1.
         -5    1    3    3    0  502 -0.24603674746E+02 -0.50249404733E+02 -0.64243511323E+02  0.85293872196E+02  0.41800000000E+01 0. -1.
        -11    1    1    2    0    0  0.43758781903E+01 -0.18072247206E+02 -0.72605413323E+02  0.74948652241E+02  0.00000000000E+00 0. -1.
         11    1    1    2    0    0 -0.14650544014E+02  0.80089523644E+01  0.27351734010E+02  0.32045266597E+02  0.00000000000E+00 0.  1.
</event>
<event>
 7    1  0.2855090E-009  0.7552023E+02  0.7561462E-02  0.1342268E+00
         -2   -1    0    0    0  501 -0.00000000000E+00  0.00000000000E+00  0.94331091811E+01  0.94331091811E+01  0.00000000000E+00 0. -1.
          2   -1    0    0  501    0  0.00000000000E+00 -0.00000000000E+00 -0.26848600289E+04  0.26848600289E+04  0.00000000000E+00 0.  1.
         25    2    1    2    0    0  0.18779722854E+02 -0.21712120663E+02 -0.23786872019E+04  0.23821469797E+04  0.12508930365E+03 0.  0.
          5    1    3    3  502    0 -0.49705580918E+00 -0.40972413379E+02 -0.22570080205E+04  0.22573838093E+04  0.41800000000E+01 0.  1.
         -5    1    3    3    0  502  0.19276778664E+02  0.19260292716E+02 -0.12167918144E+03  0.12476317032E+03  0.41800000000E+01 0.  1.
        -11    1    1    2    0    0 -0.10265069231E+02 -0.29051164752E+02 -0.41049197910E+02  0.51326196711E+02  0.00000000000E+00 0. -1.
         11    1    1    2    0    0 -0.85146536232E+01  0.50763285414E+02 -0.25569051989E+03  0.26081996173E+03  0.00000000000E+00 0.  1.
</event>
<event>
 7    1  0.2855090E-009  0.1837915E+03  0.7561462E-02  0.1164183E+00
          3   -1    0    0  501    0  0.00000000000E+00  0.00000000000E+00  0.30382174374E+02  0.30382174374E+02  0.00000000000E+00 0. -1.
         -3   -1    0    0    0  501 -0.00000000000E+00 -0.00000000000E+00 -0.15139203013E+04  0.15139203013E+04  0.00000000000E+00 0.  1.
         25    2    1    2    0    0  0.14511421328E+03  0.75082564642E+02 -0.10853011682E+04  0.11046368067E+04  0.12509325598E+03 0.  0.
          5    1    3    3  502    0  0.11557646704E+03  0.78270211214E+01 -0.85620805316E+03  0.86401903028E+03  0.41800000000E+01 0.  1.
         -5    1    3    3    0  502  0.29537746235E+02  0.67255543520E+02 -0.22909311505E+03  0.24061777647E+03  0.41800000000E+01 0.  1.
        -11    1    1    2    0    0 -0.10387430951E+03 -0.14611737388E+02 -0.16785665790E+03  0.19793744630E+03  0.00000000000E+00 0. -1.
         11    1    1    2    0    0 -0.41239903769E+02 -0.60470827254E+02 -0.23038030081E+03  0.24172822262E+03  0.00000000000E+00 0.  1.
</event>
<event>
 7    1  0.2855090E-009  0.1024226E+03  0.7561462E-02  0.1275282E+00
         -2   -1    0    0    0  501 -0.00000000000E+00  0.00000000000E+00  0.17436950222E+03  0.17436950222E+03  0.00000000000E+00 0.  1.
          2   -1    0    0  501    0  0.00000000000E+00 -0.00000000000E+00 -0.19501951863E+03  0.19501951863E+03  0.00000000000E+00 0. -1.
         25    2    1    2    0    0 -0.61326618601E+02  0.13169520459E+01  0.12506643510E+03  0.18722735051E+03  0.12509907705E+03 0.  0.
          5    1    3    3  502    0 -0.87980559632E+02 -0.32333611637E+01  0.38033624637E+02  0.95995117066E+02  0.41800000000E+01 0.  1.
         -5    1    3    3    0  502  0.26653941031E+02  0.45503132096E+01  0.87032810459E+02  0.91232233444E+02  0.41800000000E+01 0.  1.
        -11    1    1    2    0    0  0.42404458861E+02  0.30564377919E+02 -0.13310602951E+03  0.14300186860E+03  0.00000000000E+00 0.  1.
         11    1    1    2    0    0  0.18922159740E+02 -0.31881329965E+02 -0.12610422000E+02  0.39159801743E+02  0.00000000000E+00 0. -1.
</event>
<event>
 7    1  0.2855090E-009  0.2669098E+03  0.7561462E-02  0.1103061E+00
         -1   -1    0    0    0  501 -0.00000000000E+00  0.00000000000E+00  0.31438916440E+03  0.31438916440E+03  0.00000000000E+00 0.  1.
          1   -1    0    0  501    0  0.00000000000E+00 -0.00000000000E+00 -0.24484315295E+03  0.24484315295E+03  0.00000000000E+00 0. -1.
         25    2    1    2    0    0  0.24487021246E+03  0.64555025593E+02  0.58869923824E+02  0.28850982165E+03  0.12507388608E+03 0.  0.
          5    1    3    3  502    0  0.50111961034E+02 -0.19600947428E+02 -0.26069907132E+02  0.59937619544E+02  0.41800000000E+01 0. -1.
         -5    1    3    3    0  502  0.19475825143E+03  0.84155973021E+02  0.84939830956E+02  0.22857220211E+03  0.41800000000E+01 0. -1.
        -11    1    1    2    0    0 -0.95406387294E+02  0.17711221715E+02  0.22816700384E+02  0.99682836674E+02  0.00000000000E+00 0. -1.
         11    1    1    2    0    0 -0.14946382517E+03 -0.82266247308E+02 -0.12140612752E+02  0.17103965902E+03  0.00000000000E+00 0.  1.
</event>
<event>
 7    1  0.2855090E-009  0.1110519E+03  0.7561462E-02  0.1258634E+00
          1   -1    0    0  501    0  0.00000000000E+00  0.00000000000E+00  0.64168244636E+02  0.64168244636E+02  0.00000000000E+00 0. -1.
         -1   -1    0    0    0  501 -0.00000000000E+00 -0.00000000000E+00 -0.25845822834E+03  0.25845822834E+03  0.00000000000E+00 0.  1.
         25    2    1    2    0    0  0.60032434359E+02 -0.13272513179E+02 -0.14178570451E+03  0.19882254284E+03  0.12508862761E+03 0.  0.
          5    1    3    3  502    0 -0.18841453575E+02 -0.31339448080E+02 -0.10223890166E+03  0.10866198411E+03  0.41800000000E+01 0. -1.
         -5    1    3    3    0  502  0.78873887933E+02  0.18066934901E+02 -0.39546802845E+02  0.90160558726E+02  0.41800000000E+01 0. -1.
        -11    1    1    2    0    0  0.21305997921E+02 -0.23950471595E+01 -0.31918010762E+02  0.38450503369E+02  0.00000000000E+00 0.  1.
         11    1    1    2    0    0 -0.81338432279E+02  0.15667560339E+02 -0.20586268434E+02  0.85353426766E+02  0.00000000000E+00 0. -1.
</event>
<event>
 7    1  0.2855090E-009  0.1103497E+03  0.7561462E-02  0.1259924E+00
         -1   -1    0    0    0  501 -0.00000000000E+00  0.00000000000E+00  0.51608387460E+02  0.51608387460E+02  0.00000000000E+00 0.  1.
          1   -1    0    0  501    0  0.00000000000E+00 -0.00000000000E+00 -0.36770280059E+03  0.36770280059E+03  0.00000000000E+00 0. -1.
         25    2    1    2    0    0 -0.45487311426E+02  0.19406567478E+02 -0.69173335417E+02  0.15125539918E+03  0.12509010787E+03 0.  0.
          5    1    3    3  502    0  0.41559947591E+02 -0.33498929632E+01 -0.36086943487E+02  0.55300912442E+02  0.41800000000E+01 0. -1.
         -5    1    3    3    0  502 -0.87047259017E+02  0.22756460441E+02 -0.33086391930E+02  0.95954486738E+02  0.41800000000E+01 0. -1.
        -11    1    1    2    0    0 -0.13599474582E+02 -0.25930196120E+02 -0.16059061757E+03  0.16323806919E+03  0.00000000000E+00 0. -1.
         11    1    1    2    0    0  0.59086786009E+02  0.65236286420E+01 -0.86330460147E+02  0.10481771969E+03  0.00000000000E+00 0.  1.
</event>
<event>
 7    1  0.2855090E-009  0.1271154E+03  0.7561462E-02  0.1231800E+00
         -1   -1    0    0    0  501 -0.00000000000E+00  0.00000000000E+00  0.16812266195E+02  0.16812266195E+02  0.00000000000E+00 0.  1.
          1   -1    0    0  501    0  0.00000000000E+00 -0.00000000000E+00 -0.12720929256E+04  0.12720929256E+04  0.00000000000E+00 0. -1.
         25    2    1    2    0    0  0.56711750134E+02  0.65211385218E+02 -0.88389279169E+03  0.89687342219E+03  0.12508685329E+03 0.  0.
          5    1    3    3  502    0 -0.23123619625E+02  0.40977928284E+02 -0.12907574962E+03  0.13744785895E+03  0.41800000000E+01 0. -1.
         -5    1    3    3    0  502  0.79835369758E+02  0.24233456934E+02 -0.75481704206E+03  0.75942556323E+03  0.41800000000E+01 0. -1.
        -11    1    1    2    0    0 -0.32142430553E+02 -0.85659462712E+02 -0.30358394046E+03  0.31707079383E+03  0.00000000000E+00 0.  1.
         11    1    1    2    0    0 -0.24569319581E+02  0.20448077494E+02 -0.67803927256E+02  0.74960975775E+02  0.00000000000E+00 0. -1.
</event>
<event>
 7    1  0.2855090E-009  0.1349143E+03  0.7561462E-02  0.1220341E+00
         -2   -1    0    0    0  501 -0.00000000000E+00  0.00000000000E+00  0.17967919810E+03  0.17967919810E+03  0.00000000000E+00 0.  1.
          2   -1    0    0  501    0  0.00000000000E+00 -0.00000000000E+00 -0.15404354516E+03  0.15404354516E+03  0.00000000000E+00 0. -1.
         25    2    1    2    0    0  0.50004237892E+02  0.10850614232E+03  0.53776952488E+02  0.18115739064E+03  0.12510808462E+03 0.  0.
          5    1    3    3  502    0  0.30644068867E+02  0.57423254873E+02 -0.37104956995E+02  0.75038252848E+02  0.41800000000E+01 0.  1.
         -5    1    3    3    0  502  0.19360169025E+02  0.51082887445E+02  0.90881909483E+02  0.10611913779E+03  0.41800000000E+01 0.  1.
        -11    1    1    2    0    0 -0.21564613612E+02 -0.11790860100E+03 -0.25037118573E+02  0.12245132934E+03  0.00000000000E+00 0. -1.
         11    1    1    2    0    0 -0.28439624280E+02  0.94024586862E+01 -0.31041809836E+01  0.30114023280E+02  0.00000000000E+00 0.  1.
</event>
<event>
 7    1  0.2855090E-009  0.9670790E+02  0.7561462E-02  0.1287375E+00
          2   -1    0    0  501    0  0.00000000000E+00  0.00000000000E+00  0.29690916463E+03  0.29690916463E+03  0.00000000000E+00 0. -1.
         -2   -1    0    0    0  501 -0.00000000000E+00 -0.00000000000E+00 -0.46410190398E+02  0.46410190398E+02  0.00000000000E+00 0.  1.
         25    2    1    2    0    0 -0.22093380055E+02  0.33687608623E+02  0.11358779045E+03  0.17370312312E+03  0.12509043299E+03 0.  0.
          5    1    3    3  502    0  0.40566969484E+02  0.40119746729E+02  0.89322647664E+02  0.10607205512E+03  0.41800000000E+01 0.  1.
         -5    1    3    3    0  502 -0.62660349539E+02 -0.64321381070E+01  0.24265142790E+02  0.67631068006E+02  0.41800000000E+01 0.  1.
        -11    1    1    2    0    0  0.25544621136E+02  0.11319651638E+02  0.27623212779E+01  0.28076548952E+02  0.00000000000E+00 0.  1.
         11    1    1    2    0    0 -0.34512410810E+01 -0.45007260261E+02  0.13414886250E+03  0.14153968296E+03  0.00000000000E+00 0. -1.
</event>
<event>
 7    1  0.2855090E-009  0.8904284E+02  0.7561462E-02  0.1305186E+00
         -1   -1    0    0    0  501 -0.00000000000E+00  0.00000000000E+00  0.10132136662E+03  0.10132136662E+03  0.00000000000E+00 0.  1.
          1   -1    0    0  501    0  0.00000000000E+00 -0.00000000000E+00 -0.14238764986E+03  0.14238764986E+03  0.00000000000E+00 0. -1.
         25    2    1    2    0    0  0.29253257118E+02  0.31606359982E+02 -0.52743652165E+02  0.14242256348E+03  0.12509028221E+03 0.  0.
          5    1    3    3  502    0  0.50705426064E+02 -0.10409850205E+02  0.19975356324E+02  0.55640744728E+02  0.41800000000E+01 0. -1.
         -5    1    3    3    0  502 -0.21452168946E+02  0.42016210187E+02 -0.72719008489E+02  0.86781818756E+02  0.41800000000E+01 0. -1.
        -11    1    1    2    0    0 -0.29257212472E+01  0.20343768382E+02 -0.25072916341E+02  0.32420362284E+02  0.00000000000E+00 0. -1.
         11    1    1    2    0    0 -0.26327535871E+02 -0.51950128364E+02  0.36750285270E+02  0.68866090709E+02  0.00000000000E+00 0.  1.
</event>
<event>
 7    1  0.2855090E-009  0.9554035E+02  0.7561462E-02  0.1289964E+00
          2   -1    0    0  501    0  0.00000000000E+00  0.00000000000E+00  0.18236604831E+02  0.18236604831E+02  0.00000000000E+00 0. -1.
         -2   -1    0    0    0  501 -0.00000000000E+00 -0.00000000000E+00 -0.67618958257E+03  0.67618958257E+03  0.00000000000E+00 0.  1.
         25    2    1    2    0    0 -0.20354406927E+02  0.63432982194E+01 -0.34899562690E+03  0.37134725777E+03  0.12508516678E+03 0.  0.
          5    1    3    3  502    0  0.28173316467E+02  0.31332404145E+02 -0.42471240076E+02  0.59972776690E+02  0.41800000000E+01 0.  1.
         -5    1    3    3    0  502 -0.48527723394E+02 -0.24989105926E+02 -0.30652438682E+03  0.31137448108E+03  0.41800000000E+01 0.  1.
        -11    1    1    2    0    0  0.20006664174E+02  0.41541415043E+02 -0.16784677276E+03  0.17406462852E+03  0.00000000000E+00 0.  1.
         11    1    1    2    0    0  0.34774275283E+00 -0.47884713263E+02 -0.14111057808E+03  0.14901430111E+03  0.00000000000E+00 0. -1.
</event>
<event>
 7    1  0.2855090E-009  0.4190591E+03  0.7561462E-02  0.1037373E+00
         -2   -1    0    0    0  501 -0.00000000000E+00  0.00000000000E+00  0.94657278719E+02  0.94657278719E+02  0.00000000000E+00 0.  1.
          2   -1    0    0  501    0  0.00000000000E+00 -0.00000000000E+00 -0.22791568759E+04  0.22791568759E+04  0.00000000000E+00 0. -1.
         25    2    1    2    0    0 -0.30310475870E+03 -0.28217159735E+03 -0.64140315696E+03  0.77365345713E+03  0.12509339261E+03 0.  0.
          5    1    3    3  502    0 -0.13427738804E+02 -0.15135004180E+02  0.27991196286E+00  0.20662121663E+02  0.41800000000E+01 0.  1.
         -5    1    3    3    0  502 -0.28967701989E+03 -0.26703659317E+03 -0.64168306892E+03  0.75299133547E+03  0.41800000000E+01 0.  1.
        -11    1    1    2    0    0  0.14770921725E+03  0.78505840748E+02 -0.62318242663E+03  0.64524221557E+03  0.00000000000E+00 0. -1.
         11    1    1    2    0    0  0.15539554145E+03  0.20366575660E+03 -0.91991401358E+03  0.95491848191E+03  0.00000000000E+00 0.  1.
</event>
<event>
 7    1  0.2855090E-009  0.9158189E+02  0.7561462E-02  0.1299066E+00
         -2   -1    0    0    0  501 -0.00000000000E+00  0.00000000000E+00  0.24473946044E+02  0.24473946044E+02  0.00000000000E+00 0.  1.
          2   -1    0    0  501    0  0.00000000000E+00 -0.00000000000E+00 -0.57401232111E+03  0.57401232111E+03  0.00000000000E+00 0. -1.
         25    2    1    2    0    0 -0.26665921577E+02 -0.18670677159E+02 -0.21493144212E+03  0.25080648247E+03  0.12509476918E+03 0.  0.
          5    1    3    3  502    0  0.16135755839E+02  0.23860785858E+02 -0.17707633551E+03  0.17945250268E+03  0.41800000000E+01 0. -1.
         -5    1    3    3    0  502 -0.42801677415E+02 -0.42531463016E+02 -0.37855106608E+02  0.71353979792E+02  0.41800000000E+01 0. -1.
        -11    1    1    2    0    0  0.55105165704E+02  0.30255481561E+02 -0.20161149961E+03  0.21118515627E+03  0.00000000000E+00 0.  1.
         11    1    1    2    0    0 -0.28439244127E+02 -0.11584804403E+02 -0.13299543333E+03  0.13649462841E+03  0.00000000000E+00 0. -1.
</event>
<event>
 7    1  0.2855090E-009  0.1146140E+03  0.7561462E-02  0.1252256E+00
          1   -1    0    0  501    0  0.00000000000E+00  0.00000000000E+00  0.20495420552E+03  0.20495420552E+03  0.00000000000E+00 0. -1.
         -1   -1    0    0    0  501 -0.00000000000E+00 -0.00000000000E+00 -0.13506031174E+03  0.13506031174E+03  0.00000000000E+00 0.  1.
         25    2    1    2    0    0  0.66089702110E+02 -0.35457937031E+02  0.14141469771E+03  0.20315283065E+03  0.12509133404E+03 0.  0.
          5    1    3    3  502    0 -0.12904094775E+01 -0.69422023536E+02  0.57728966094E+02  0.90394626138E+02  0.41800000000E+01 0.  1.
         -5    1    3    3    0  502  0.67380111588E+02  0.33964086504E+02  0.83685731613E+02  0.11275820451E+03  0.41800000000E+01 0.  1.
        -11    1    1    2    0    0 -0.28573230221E+02 -0.49044086604E+01  0.16243621097E+02  0.33231580400E+02  0.00000000000E+00 0.  1.
         11    1    1    2    0    0 -0.37516471889E+02  0.40362345692E+02 -0.87764425026E+02  0.10363010621E+03  0.00000000000E+00 0. -1.
</event>
<event>
 7    1  0.2855090E-009  0.1209000E+03  0.7561462E-02  0.1241620E+00
          2   -1    0    0  501    0  0.00000000000E+00  0.00000000000E+00  0.24064594494E+02  0.24064594494E+02  0.00000000000E+00 0.  1.
         -2   -1    0    0    0  501 -0.00000000000E+00 -0.00000000000E+00 -0.10242953016E+04  0.10242953016E+04  0.00000000000E+00 0. -1.
         25    2    1    2    0    0  0.10704214511E+03 -0.16955278261E+02 -0.61169698439E+03  0.63369279124E+03  0.12509136925E+03 0.  0.
          5    1    3    3  502    0  0.43840564225E+02 -0.45463018642E+02 -0.10762666647E+03  0.12485933234E+03  0.41800000000E+01 0. -1.
         -5    1    3    3    0  502  0.63201580885E+02  0.28507740381E+02 -0.50407031792E+03  0.50883345890E+03  0.41800000000E+01 0. -1.
        -11    1    1    2    0    0 -0.84330242171E+02  0.18300758752E+02 -0.38107608469E+03  0.39072431437E+03  0.00000000000E+00 0. -1.
         11    1    1    2    0    0 -0.22711902939E+02 -0.13454804907E+01 -0.74576380638E+01  0.23942790530E+02  0.00000000000E+00 0.  1.
</event>
<event>
 7    1  0.2855090E-009  0.1390532E+03  0.7561462E-02  0.1214609E+00
          1   -1    0    0  501    0  0.00000000000E+00  0.00000000000E+00  0.19486445879E+03  0.19486445879E+03  0.00000000000E+00 0. -1.
         -1   -1    0    0    0  501 -0.00000000000E+00 -0.00000000000E+00 -0.10419276137E+03  0.10419276137E+03  0.00000000000E+00 0.  1.
         25    2    1    2    0    0 -0.47890568015E+02  0.76392367514E+02  0.41314224911E+02  0.15963625244E+03  0.12509023780E+03 0.  0.
          5    1    3    3  502    0 -0.87655012113E+02  0.57378019475E+02  0.47181326011E+02  0.11497472849E+03  0.41800000000E+01 0.  1.
         -5    1    3    3    0  502  0.39764444099E+02  0.19014348039E+02 -0.58671010994E+01  0.44661523945E+02  0.41800000000E+01 0.  1.
        -11    1    1    2    0    0  0.38246852732E+02  0.11986005045E+02  0.60648341550E+01  0.40537245518E+02  0.00000000000E+00 0.  1.
         11    1    1    2    0    0  0.96437152827E+01 -0.88378372559E+02  0.43292638360E+02  0.98883722203E+02  0.00000000000E+00 0. -1.
</event>
<event>
 6    1  0.2855090E-009  0.1253400E+03  0.7561462E-02  0.1234539E+00
          1   -1    0    0  501    0  0.00000000000E+00  0.00000000000E+00  0.47093608998E+02  0.47093608998E+02  0.00000000000E+00 0. -1.
         -1   -1    0    0    0  501 -0.00000000000E+00 -0.00000000000E+00 -0.39812015006E+03  0.39812015006E+03  0.00000000000E+00 0.  1.
          5    1    1    2  502    0  0.93464788121E+02 -0.30323180932E+02 -0.12469286752E+03  0.15881103719E+03  0.41800000000E+01 0. -1.
         -5    1    1    2    0  502 -0.14931347601E+02  0.39770513369E+02 -0.15765130882E+02  0.45504402276E+02  0.41800000000E+01 0. -1.
        -11    1    1    2    0    0 -0.90383449122E+02  0.55223258819E+01 -0.13220843079E+03  0.16024585214E+03  0.00000000000E+00 0. -1.
         11    1    1    2    0    0  0.11850008602E+02 -0.14969658319E+02 -0.78360111865E+02  0.80652467449E+02  0.00000000000E+00 0.  1.
</event>
<event>
 7    1  0.2855090E-009  0.8828443E+02  0.7561462E-02  0.1307060E+00
          4   -1    0    0  501    0  0.00000000000E+00  0.00000000000E+00  0.30867485202E+03  0.30867485202E+03  0.00000000000E+00 0. -1.
         -4   -1    0    0    0  501 -0.00000000000E+00 -0.00000000000E+00 -0.56028675721E+02  0.56028675721E+02  0.00000000000E+00 0.  1.
         25    2    1    2    0    0  0.55080285628E+02  0.44856128447E+02  0.10699224297E+03  0.17927756683E+03  0.12508875164E+03 0.  0.
          5    1    3    3  502    0  0.44761804280E+02  0.10079224356E+02 -0.17694725782E+02  0.49353678754E+02  0.41800000000E+01 0. -1.
         -5    1    3    3    0  502  0.10318481348E+02  0.34776904091E+02  0.12468696876E+03  0.12992388808E+03  0.41800000000E+01 0. -1.
        -11    1    1    2    0    0  0.75421926562E+01  0.87471340020E+01 -0.58516039128E+01  0.12947520676E+02  0.00000000000E+00 0.  1.
         11    1    1    2    0    0 -0.62622478284E+02 -0.53603262449E+02  0.15150553724E+03  0.17247844023E+03  0.00000000000E+00 0. -1.
</event>
<event>
 7    1  0.2855090E-009  0.1043210E+03  0.7561462E-02  0.1271463E+00
          1   -1    0    0  501    0  0.00000000000E+00  0.00000000000E+00  0.15522705397E+03  0.15522705397E+03  0.00000000000E+00 0. -1.
         -1   -1    0    0    0  501 -0.00000000000E+00 -0.00000000000E+00 -0.83116686025E+02  0.83116686025E+02  0.00000000000E+00 0.  1.
         25    2    1    2    0    0 -0.21571098111E+02  0.30379102816E+02  0.46530294635E+02  0.13856932580E+03  0.12509271591E+03 0.  0.
          5    1    3    3  502    0  0.22274729108E+02 -0.36304955917E+02 -0.55852993518E+01  0.43161109229E+02  0.41800000000E+01 0. -1.
         -5    1    3    3    0  502 -0.43845827219E+02  0.66684058734E+02  0.52115593987E+02  0.95408216576E+02  0.41800000000E+01 0. -1.
        -11    1    1    2    0    0  0.43683356825E+02  0.52461400442E+01 -0.96100288682E+01  0.45034545670E+02  0.00000000000E+00 0.  1.
         11    1    1    2    0    0 -0.22112258714E+02 -0.35625242860E+02  0.35190102180E+02  0.54739868521E+02  0.00000000000E+00 0. -1.
</event>
<event>
 7    1  0.2855090E-009  0.1515415E+03  0.7561462E-02  0.1198591E+00
          2   -1    0    0  501    0  0.00000000000E+00  0.00000000000E+00  0.26723205284E+04  0.26723205284E+04  0.00000000000E+00 0. -1.
         -2   -1    0    0    0  501 -0.00000000000E+00 -0.00000000000E+00 -0.18718114776E+02  0.18718114776E+02  0.00000000000E+00 0.  1.
         25    2    1    2    0    0  0.10790166805E+03 -0.89578073772E+02  0.21875630254E+04  0.21956198483E+04  0.12509007561E+03 0.  0.
          5    1    3    3  502    0  0.36284371368E+02 -0.44268908813E+02  0.26308003746E+03  0.26926728432E+03  0.41800000000E+01 0. -1.
         -5    1    3    3    0  502  0.71617296677E+02 -0.45309164959E+02  0.19244829879E+04  0.19263525640E+04  0.41800000000E+01 0. -1.
        -11    1    1    2    0    0 -0.22730040755E+02  0.69795404551E+02  0.28600055490E+03  0.29526999619E+03  0.00000000000E+00 0.  1.
         11    1    1    2    0    0 -0.85171627290E+02  0.19782669221E+02  0.18003883331E+03  0.20014879863E+03  0.00000000000E+00 0. -1.
</event>
<event>
 7    1  0.3010790E-009  0.7406496E+02  0.7561462E-02  0.1346791E+00
         -2   -1    0    0    0  501 -0.00000000000E+00  0.00000000000E+00  0.55706887795E+02  0.55706887795E+02  0.00000000000E+00 0.  1.
          2   -1    0    0  501    0  0.00000000000E+00 -0.00000000000E+00 -0.31158914158E+03  0.31158914158E+03  0.00000000000E+00 0. -1.
         25    2    1    2    0    0  0.37274204640E+02  0.18910350419E+02 -0.22757133901E+03  0.26302881812E+03  0.12509387331E+03 0.  0.
          5    1    3    3  502    0 -0.37478766104E+01  0.24215597455E+02  0.61755402768E+01  0.25613501067E+02  0.41800000000E+01 0.  1.
         -5    1    3    3    0  502  0.41022081250E+02 -0.53052470364E+01 -0.23374687928E+03  0.23741531705E+03  0.41800000000E+01 0.  1.
        -11    1    1    2    0    0  0.35507462893E+01  0.22951574252E+02  0.18236848989E+02  0.29529057230E+02  0.00000000000E+00 0.  1.
         11    1    1    2    0    0 -0.40824950929E+02 -0.41861924671E+02 -0.46547763771E+02  0.74738154029E+02  0.00000000000E+00 0. -1.
</event>
<event>
 7    1  0.2855090E-009  0.1450196E+03  0.7561462E-02  0.1206730E+00
         -1   -1    0    0    0  501 -0.00000000000E+00  0.00000000000E+00  0.25016742289E+02  0.25016742289E+02  0.00000000000E+00 0.  1.
          1   -1    0    0  501    0  0.00000000000E+00 -0.00000000000E+00 -0.94433027688E+03  0.94433027688E+03  0.00000000000E+00 0. -1.
         25    2    1    2    0    0  0.80924072156E+02 -0.66019277651E+02 -0.61887316585E+03  0.63996897326E+03  0.12509612644E+03 0.  0.
          5    1    3    3  502    0  0.66301210380E+02  0.18670862085E+02 -0.18071559482E+03  0.19344262767E+03  0.41800000000E+01 0.  1.
         -5    1    3    3    0  502  0.14622861776E+02 -0.84690139736E+02 -0.43815757103E+03  0.44652634559E+03  0.41800000000E+01 0.  1.
        -11    1    1    2    0    0  0.78260342974E+01  0.42444169708E+02 -0.98301365345E+02  0.10735880394E+03  0.00000000000E+00 0. -1.
         11    1    1    2    0    0 -0.88750106453E+02  0.23575107943E+02 -0.20213900339E+03  0.22201924196E+03  0.00000000000E+00 0.  1.
</event>
<event>
 7    1  0.2855090E-009  0.1119730E+03  0.7561462E-02  0.1256959E+00
         -1   -1    0    0    0  501 -0.00000000000E+00  0.00000000000E+00  0.29319039185E+02  0.29319039185E+02  0.00000000000E+00 0.  1.
          1   -1    0    0  501    0  0.00000000000E+00 -0.00000000000E+00 -0.44797639002E+03  0.44797639002E+03  0.00000000000E+00 0. -1.
         25    2    1    2    0    0  0.16826325646E+02  0.20892965571E+02 -0.26948385960E+03  0.29830932666E+03  0.12508901847E+03 0.  0.
          5    1    3    3  502    0 -0.37387753515E+01 -0.51759790168E+02 -0.11909269367E+03  0.12997536845E+03  0.41800000000E+01 0. -1.
         -5    1    3    3    0  502  0.20565100998E+02  0.72652755739E+02 -0.15039116593E+03  0.16833395821E+03  0.41800000000E+01 0. -1.
        -11    1    1    2    0    0  0.15890170713E+02 -0.50003608507E+02 -0.60455012223E+02  0.80047903732E+02  0.00000000000E+00 0.  1.
         11    1    1    2    0    0 -0.32716496360E+02  0.29110642936E+02 -0.88718479014E+02  0.98938198815E+02  0.00000000000E+00 0. -1.
</event>
<event>
 7    1  0.2855090E-009  0.3135151E+03  0.7561462E-02  0.1078673E+00
          3   -1    0    0  501    0  0.00000000000E+00  0.00000000000E+00  0.13409799592E+03  0.13409799592E+03  0.00000000000E+00 0. -1.
         -3   -1    0    0    0  501 -0.00000000000E+00 -0.00000000000E+00 -0.75257940666E+03  0.75257940666E+03  0.00000000000E+00 0.  1.
         25    2    1    2    0    0 -0.49762592941E+01  0.29912643216E+03 -0.31132672057E+03  0.44952519300E+03  0.12508871502E+03 0.  0.
          5    1    3    3  502    0 -0.40037698729E+02  0.27776057564E+03 -0.25160287858E+03  0.37692895300E+03  0.41800000000E+01 0. -1.
         -5    1    3    3    0  502  0.35061439434E+02  0.21365856522E+02 -0.59723841993E+02  0.72596240003E+02  0.41800000000E+01 0. -1.
        -11    1    1    2    0    0  0.32519119233E+02 -0.16286052508E+03 -0.12424855190E+03  0.20740961018E+03  0.00000000000E+00 0.  1.
         11    1    1    2    0    0 -0.27542859939E+02 -0.13626590709E+03 -0.18290613826E+03  0.22974259941E+03  0.00000000000E+00 0. -1.
</event>
<event>
 7    1  0.2855090E-009  0.9694780E+02  0.7561462E-02  0.1286848E+00
         -2   -1    0    0    0  501 -0.00000000000E+00  0.00000000000E+00  0.49483148225E+02  0.49483148225E+02  0.00000000000E+00 0.  1.
          2   -1    0    0  501    0  0.00000000000E+00 -0.00000000000E+00 -0.31766993336E+03  0.31766993336E+03  0.00000000000E+00 0. -1.
         25    2    1    2    0    0 -0.36704341505E+02  0.41659830011E+02 -0.18893114919E+03  0.23329204067E+03  0.12508975571E+03 0.  0.
          5    1    3    3  502    0  0.12824277953E+02  0.33288484393E+02 -0.17816630016E+03  0.18175062094E+03  0.41800000000E+01 0.  1.
         -5    1    3    3    0  502 -0.49528619458E+02  0.83713456177E+01 -0.10764849025E+02  0.51541419727E+02  0.41800000000E+01 0.  1.
        -11    1    1    2    0    0  0.67734717408E+02 -0.33067930797E+02 -0.60037690924E+02  0.96363916073E+02  0.00000000000E+00 0.  1.
         11    1    1    2    0    0 -0.31030375903E+02 -0.85918992137E+01 -0.19217945026E+02  0.37497124847E+02  0.00000000000E+00 0. -1.
</event>
<event>
 7    1  0.2855090E-009  0.1129604E+03  0.7561462E-02  0.1255184E+00
          2   -1    0    0  501    0  0.00000000000E+00  0.00000000000E+00  0.79504368563E+03  0.79504368563E+03  0.00000000000E+00 0.  1.
         -2   -1    0    0    0  501 -0.00000000000E+00 -0.00000000000E+00 -0.33757218787E+02  0.33757218787E+02  0.00000000000E+00 0. -1.
         25    2    1    2    0    0 -0.18743694564E+01 -0.98933530575E+02  0.57250888367E+03  0.59431082339E+03  0.12509027216E+03 0.  0.
          5    1    3    3  502    0 -0.15893313655E+02 -0.56674089903E+02  0.78111271550E+02  0.97894805932E+02  0.41800000000E+01 0.  1.
         -5    1    3    3    0  502  0.14018944199E+02 -0.42259440672E+02  0.49439761212E+03  0.49641601746E+03  0.41800000000E+01 0.  1.
        -11    1    1    2    0    0 -0.33769329140E+02  0.63566717072E+02  0.52031365258E+02  0.88816429114E+02  0.00000000000E+00 0. -1.
         11    1    1    2    0    0  0.35643698597E+02  0.35366813502E+02  0.13674621792E+03  0.14567365191E+03  0.00000000000E+00 0.  1.
</event>
<event>
 7    1  0.2855090E-009  0.1097141E+03  0.7561462E-02  0.1261100E+00
         -1   -1    0    0    0  501 -0.00000000000E+00  0.00000000000E+00  0.25067785931E+02  0.25067785931E+02  0.00000000000E+00 0.  1.
          1   -1    0    0  501    0  0.00000000000E+00 -0.00000000000E+00 -0.60604968697E+03  0.60604968697E+03  0.00000000000E+00 0. -1.
         25    2    1    2    0    0  0.45371543518E+02  0.21640604871E+02 -0.24169946952E+03  0.27675604159E+03  0.12509348603E+03 0.  0.
          5    1    3    3  502    0  0.65049446671E+02 -0.32300451785E+02 -0.16922108454E+03  0.18419554161E+03  0.41800000000E+01 0.  1.
         -5    1    3    3    0  502 -0.19677903152E+02  0.53941056656E+02 -0.72478384989E+02  0.92560499978E+02  0.41800000000E+01 0.  1.
        -11    1    1    2    0    0  0.18439430587E+02  0.62505739556E+01 -0.21364264099E+02  0.28905260000E+02  0.00000000000E+00 0.  1.
         11    1    1    2    0    0 -0.63810974105E+02 -0.27891178826E+02 -0.31791816742E+03  0.32545617131E+03  0.00000000000E+00 0. -1.
</event>
<event>
 7    1  0.2855090E-009  0.1603540E+03  0.7561462E-02  0.1188298E+00
          1   -1    0    0  501    0  0.00000000000E+00  0.00000000000E+00  0.42945697231E+02  0.42945697231E+02  0.00000000000E+00 0. -1.
         -1   -1    0    0    0  501 -0.00000000000E+00 -0.00000000000E+00 -0.79225202735E+03  0.79225202735E+03  0.00000000000E+00 0.  1.
         25    2    1    2    0    0  0.83993798763E+02 -0.88279538712E+02 -0.58649672135E+03  0.61194166552E+03  0.12508382253E+03 0.  0.
          5    1    3    3  502    0 -0.19850108791E+02 -0.63836229545E+02 -0.25665610593E+03  0.26525255914E+03  0.41800000000E+01 0.  1.
         -5    1    3    3    0  502  0.10384390755E+03 -0.24443309167E+02 -0.32984061542E+03  0.34668910638E+03  0.41800000000E+01 0.  1.
        -11    1    1    2    0    0  0.13007751278E+02  0.32639619306E+02 -0.15739864927E+02  0.38500515447E+02  0.00000000000E+00 0.  1.
         11    1    1    2    0    0 -0.97001550041E+02  0.55639919405E+02 -0.14706974384E+03  0.18475554361E+03  0.00000000000E+00 0. -1.
</event>
<event>
 7    1  0.2918565E-009  0.1199179E+03  0.7561462E-02  0.1243233E+00
          3   -1    0    0  501    0  0.00000000000E+00  0.00000000000E+00  0.16514511304E+03  0.16514511304E+03  0.00000000000E+00 0. -1.
         -3   -1    0    0    0  501 -0.00000000000E+00 -0.00000000000E+00 -0.12797950867E+03  0.12797950867E+03  0.00000000000E+00 0.  1.
         25    2    1    2    0    0  0.74487424302E+02  0.61267546299E+02  0.18891326815E+02  0.15907935963E+03  0.12508905556E+03 0.  0.
          5    1    3    3  502    0  0.92006170742E+02  0.15166449527E+02 -0.20805753660E+02  0.95632151661E+02  0.41800000000E+01 0.  1.
         -5    1    3    3    0  502 -0.17518746441E+02  0.46101096772E+02  0.39697080475E+02  0.63447207966E+02  0.41800000000E+01 0.  1.
        -11    1    1    2    0    0 -0.28250667782E+02 -0.29851699887E+02 -0.37095287195E+02  0.55365011951E+02  0.00000000000E+00 0.  1.
         11    1    1    2    0    0 -0.46236756520E+02 -0.31415846413E+02  0.55369564753E+02  0.78680250128E+02  0.00000000000E+00 0. -1.
</event>
<event>
 7    1  0.2855090E-009  0.1430013E+03  0.7561462E-02  0.1209347E+00
          2   -1    0    0  501    0  0.00000000000E+00  0.00000000000E+00  0.12400163214E+04  0.12400163214E+04  0.00000000000E+00 0. -1.
         -2   -1    0    0    0  501 -0.00000000000E+00 -0.00000000000E+00 -0.25361059327E+02  0.25361059327E+02  0.00000000000E+00 0.  1.
         25    2    1    2    0    0  0.11787371418E+03 -0.40970005585E+02  0.88452836367E+03  0.90200211204E+03  0.12507849590E+03 0.  0.
          5    1    3    3  502    0 -0.16433505833E+02 -0.10855982400E+02  0.28072167066E+02  0.34546076935E+02  0.41800000000E+01 0. -1.
         -5    1    3    3    0  502  0.13430722001E+03 -0.30114023185E+02  0.85645619660E+03  0.86745603511E+03  0.41800000000E+01 0. -1.
        -11    1    1    2    0    0 -0.24196065021E+02  0.21748529101E+02  0.18544234205E+02  0.37447786354E+02  0.00000000000E+00 0.  1.
         11    1    1    2    0    0 -0.93677649159E+02  0.19221476483E+02  0.31158266420E+03  0.32592748233E+03  0.00000000000E+00 0. -1.
</event>
<event>
 7    1  0.2855090E-009  0.1080847E+03  0.7561462E-02  0.1264158E+00
         -1   -1    0    0    0  501 -0.00000000000E+00  0.00000000000E+00  0.99014690082E+02  0.99014690082E+02  0.00000000000E+00 0.  1.
          1   -1    0    0  501    0  0.00000000000E+00 -0.00000000000E+00 -0.46571121130E+03  0.46571121130E+03  0.00000000000E+00 0. -1.
         25    2    1    2    0    0  0.69739689541E+02  0.10428450558E+02 -0.41723900224E+03  0.44125765393E+03  0.12509018858E+03 0.  0.
          5    1    3    3  502    0  0.49899528881E+02  0.66322471200E+02 -0.21663649158E+03  0.23202903925E+03  0.41800000000E+01 0.  1.
         -5    1    3    3    0  502  0.19840160660E+02 -0.55894020642E+02 -0.20060251066E+03  0.20922861468E+03  0.41800000000E+01 0.  1.
        -11    1    1    2    0    0 -0.20580717279E+02 -0.13067413479E+02  0.67208960138E+02  0.71493828696E+02  0.00000000000E+00 0.  1.
         11    1    1    2    0    0 -0.49158972262E+02  0.26389629207E+01 -0.16666479113E+02  0.51974418757E+02  0.00000000000E+00 0. -1.
</event>
<event>
 7    1  0.2855090E-009  0.1040423E+03  0.7561462E-02  0.1272018E+00
          2   -1    0    0  501    0  0.00000000000E+00  0.00000000000E+00  0.26443483273E+03  0.26443483273E+03  0.00000000000E+00 0. -1.
         -2   -1    0    0    0  501 -0.00000000000E+00 -0.00000000000E+00 -0.47388471034E+02  0.47388471034E+02  0.00000000000E+00 0.  1.
         25    2    1    2    0    0  0.15226719397E+02  0.72404762798E+01  0.95280664380E+02  0.15814714456E+03  0.12509131404E+03 0.  0.
          5    1    3    3  502    0  0.28926404866E+01 -0.52858206603E+02  0.11689179443E+02  0.54373400577E+02  0.41800000000E+01 0.  1.
         -5    1    3    3    0  502  0.12334078910E+02  0.60098682883E+02  0.83591484937E+02  0.10377374399E+03  0.41800000000E+01 0.  1.
        -11    1    1    2    0    0 -0.31570058288E+01  0.42341498641E+02  0.49602128130E+02  0.65292727834E+02  0.00000000000E+00 0.  1.
         11    1    1    2    0    0 -0.12069713568E+02 -0.49581974920E+02  0.72163569185E+02  0.88383431366E+02  0.00000000000E+00 0. -1.
</event>
<event>
 7    1  0.2855090E-009  0.1156605E+03  0.7561462E-02  0.1250432E+00
         -2   -1    0    0    0  501 -0.00000000000E+00  0.00000000000E+00  0.29704226975E+03  0.29704226975E+03  0.00000000000E+00 0.  1.
          2   -1    0    0  501    0  0.00000000000E+00 -0.00000000000E+00 -0.45433523074E+02  0.45433523074E+02  0.00000000000E+00 0. -1.
         25    2    1    2    0    0 -0.31488804565E+02  0.34341231365E+02  0.14677232610E+03  0.19836061978E+03  0.12503581401E+03 0.  0.
          5    1    3    3  502    0 -0.76921866601E+02  0.12375558619E+01  0.83051479163E+02  0.11328515215E+03  0.41800000000E+01 0. -1.
         -5    1    3    3    0  502  0.45433062037E+02  0.33103675503E+02  0.63720846935E+02  0.85075467627E+02  0.41800000000E+01 0. -1.
        -11    1    1    2    0    0  0.12872125186E+02 -0.62686471956E+02  0.77845236326E+02  0.10077284452E+03  0.00000000000E+00 0.  1.
         11    1    1    2    0    0  0.18616679379E+02  0.28345240591E+02  0.26991184246E+02  0.43342328528E+02  0.00000000000E+00 0. -1.
</event>
<event>
 7    1  0.2855090E-009  0.1032615E+03  0.7561462E-02  0.1273583E+00
         -2   -1    0    0    0  501 -0.00000000000E+00  0.00000000000E+00  0.54134391153E+02  0.54134391153E+02  0.00000000000E+00 0.  1.
          2   -1    0    0  501    0  0.00000000000E+00 -0.00000000000E+00 -0.49524216573E+03  0.49524216573E+03  0.00000000000E+00 0. -1.
         25    2    1    2    0    0 -0.13912120243E+02  0.56205786021E+02 -0.54084688657E+02  0.14806733015E+03  0.12508454437E+03 0.  0.
          5    1    3    3  502    0 -0.17563779575E+02  0.82614301354E+02  0.33273417974E+01  0.84629502802E+02  0.41800000000E+01 0. -1.
         -5    1    3    3    0  502  0.36516593316E+01 -0.26408515332E+02 -0.57412030455E+02  0.63437827350E+02  0.41800000000E+01 0. -1.
        -11    1    1    2    0    0  0.36733458521E+02 -0.27337161036E+01 -0.71037223081E+02  0.80019417904E+02  0.00000000000E+00 0.  1.
         11    1    1    2    0    0 -0.22821338278E+02 -0.53472069918E+02 -0.31598586284E+03  0.32128980883E+03  0.00000000000E+00 0. -1.
</event>
<event>
 7    1  0.2855090E-009  0.9164827E+02  0.7561462E-02  0.1298909E+00
         -1   -1    0    0    0  501 -0.00000000000E+00  0.00000000000E+00  0.26713616470E+02  0.26713616470E+02  0.00000000000E+00 0.  1.
          1   -1    0    0  501    0  0.00000000000E+00 -0.00000000000E+00 -0.55890516315E+03  0.55890516315E+03  0.00000000000E+00 0. -1.
         25    2    1    2    0    0  0.31125685849E+02  0.64285054548E+01 -0.37944359496E+03  0.40079198453E+03  0.12508652645E+03 0.  0.
          5    1    3    3  502    0  0.11827921678E+02  0.39101300622E+02 -0.34190700859E+02  0.53434893719E+02  0.41800000000E+01 0. -1.
         -5    1    3    3    0  502  0.19297764172E+02 -0.32672795168E+02 -0.34525289411E+03  0.34735709081E+03  0.41800000000E+01 0. -1.
        -11    1    1    2    0    0  0.85199774181E+01  0.41208522808E+02 -0.62756189271E+02  0.75558398997E+02  0.00000000000E+00 0. -1.
         11    1    1    2    0    0 -0.39645663267E+02 -0.47637028263E+02 -0.89991762445E+02  0.10926839610E+03  0.00000000000E+00 0.  1.
</event>
<event>
 7    1  0.2855090E-009  0.3010461E+03  0.7561462E-02  0.1084719E+00
         -3   -1    0    0    0  501 -0.00000000000E+00  0.00000000000E+00  0.73813166086E+03  0.73813166086E+03  0.00000000000E+00 0.  1.
          3   -1    0    0  501    0  0.00000000000E+00 -0.00000000000E+00 -0.13493384202E+03  0.13493384202E+03  0.00000000000E+00 0. -1.
         25    2    1    2    0    0 -0.77274698323E+00  0.29271797227E+03  0.25012835151E+03  0.40483254924E+03  0.12506315311E+03 0.  0.
          5    1    3    3  502    0  0.13752584871E+02  0.26954653108E+03  0.16745359326E+03  0.31765176578E+03  0.41800000000E+01 0.  1.
         -5    1    3    3    0  502 -0.14525331855E+02  0.23171441184E+02  0.82674758248E+02  0.87180783452E+02  0.41800000000E+01 0.  1.
        -11    1    1    2    0    0  0.37278249838E+02 -0.75150783756E+02  0.12828517165E+03  0.15327880961E+03  0.00000000000E+00 0.  1.
         11    1    1    2    0    0 -0.36505502855E+02 -0.21756718851E+03  0.22478429568E+03  0.31495414403E+03  0.00000000000E+00 0. -1.
</event>
<event>
 7    1  0.2855090E-009  0.1100236E+03  0.7561462E-02  0.1260526E+00
          1   -1    0    0  501    0  0.00000000000E+00  0.00000000000E+00  0.61065797092E+03  0.61065797092E+03  0.00000000000E+00 0. -1.
         -1   -1    0    0    0  501 -0.00000000000E+00 -0.00000000000E+00 -0.29456110252E+02  0.29456110252E+02  0.00000000000E+00 0.  1.
         25    2    1    2    0    0 -0.90778911182E+01 -0.68997436663E+02  0.39971509996E+03  0.42457445361E+03  0.12509297002E+03 0.  0.
          5    1    3    3  502    0 -0.39452577726E+02 -0.82496515093E+00  0.28437455463E+03  0.28712984202E+03  0.41800000000E+01 0.  1.
         -5    1    3    3    0  502  0.30374686608E+02 -0.68172471513E+02  0.11534054533E+03  0.13744461159E+03  0.41800000000E+01 0.  1.
        -11    1    1    2    0    0 -0.35182762533E+02  0.24641971182E+02  0.32348708996E+02  0.53772599871E+02  0.00000000000E+00 0.  1.
         11    1    1    2    0    0  0.44260653651E+02  0.44355465481E+02  0.14913805172E+03  0.16176702770E+03  0.00000000000E+00 0. -1.
</event>
<event>
 7    1  0.2855090E-009  0.1067328E+03  0.7561462E-02  0.1266743E+00
          1   -1    0    0  501    0  0.00000000000E+00  0.00000000000E+00  0.75175611120E+03  0.75175611120E+03  0.00000000000E+00 0. -1.
         -1   -1    0    0    0  501 -0.00000000000E+00 -0.00000000000E+00 -0.16889666609E+02  0.16889666609E+02  0.00000000000E+00 0.  1.
         25    2    1    2    0    0  0.25889826730E+02  0.18300463533E+02  0.48419424613E+03  0.50109600526E+03  0.12509175995E+03 0.  0.
          5    1    3    3  502    0 -0.21552782185E+02 -0.44446157618E+02  0.21299338926E+03  0.21868616695E+03  0.41800000000E+01 0. -1.
         -5    1    3    3    0  502  0.47442608915E+02  0.62746621151E+02  0.27120085687E+03  0.28240983831E+03  0.41800000000E+01 0. -1.
        -11    1    1    2    0    0 -0.22437695308E+02  0.29572429505E+02  0.16711571029E+03  0.17118889971E+03  0.00000000000E+00 0. -1.
         11    1    1    2    0    0 -0.34521314214E+01 -0.47872893039E+02  0.83556488172E+02  0.96360872842E+02  0.00000000000E+00 0.  1.
</event>
<event>
 7    1  0.2883186E-009  0.6996619E+02  0.7561462E-02  0.1360208E+00
          1   -1    0    0  501    0  0.00000000000E+00  0.00000000000E+00  0.24235902988E+02  0.24235902988E+02  0.00000000000E+00 0. -1.
         -1   -1    0    0    0  501 -0.00000000000E+00 -0.00000000000E+00 -0.70990927452E+03  0.70990927452E+03  0.00000000000E+00 0.  1.
         25    2    1    2    0    0 -0.10650118972E+02 -0.35806658851E+02 -0.55498852203E+03  0.57013534285E+03  0.12508600134E+03 0.  0.
          5    1    3    3  502    0  0.77156180653E+01 -0.58177112839E+02 -0.52486240170E+03  0.52814971395E+03  0.41800000000E+01 0. -1.
         -5    1    3    3    0  502 -0.18365737037E+02  0.22370453988E+02 -0.30126120329E+02  0.41985628906E+02  0.41800000000E+01 0. -1.
        -11    1    1    2    0    0  0.24016587432E+02  0.20966166575E+02 -0.13882762394E+03  0.14244116604E+03  0.00000000000E+00 0.  1.
         11    1    1    2    0    0 -0.13366468460E+02  0.14840492276E+02  0.81427744457E+01  0.21568668614E+02  0.00000000000E+00 0. -1.
</event>
<event>
 7    1  0.2855090E-009  0.1059909E+03  0.7561462E-02  0.1268179E+00
         -1   -1    0    0    0  501 -0.00000000000E+00  0.00000000000E+00  0.36713306544E+02  0.36713306544E+02  0.00000000000E+00 0.  1.
          1   -1    0    0  501    0  0.00000000000E+00 -0.00000000000E+00 -0.44166295726E+03  0.44166295726E+03  0.00000000000E+00 0. -1.
         25    2    1    2    0    0 -0.14678971840E+02 -0.54474426335E+02 -0.29426459568E+03  0.32468872012E+03  0.12509267509E+03 0.  0.
          5    1    3    3  502    0 -0.55202910418E+02 -0.68559472088E+02 -0.23814213779E+03  0.25392304488E+03  0.41800000000E+01 0. -1.
         -5    1    3    3    0  502  0.40523938578E+02  0.14085045753E+02 -0.56122457888E+02  0.70765675233E+02  0.41800000000E+01 0. -1.
        -11    1    1    2    0    0 -0.20154895472E+02  0.59340749598E+01  0.66328990015E+01  0.22032439862E+02  0.00000000000E+00 0.  1.
         11    1    1    2    0    0  0.34833867312E+02  0.48540351375E+02 -0.11731795404E+03  0.13165510382E+03  0.00000000000E+00 0. -1.
</event>
<event>
 7    1  0.2855090E-009  0.8312625E+02  0.7561462E-02  0.1320407E+00
          2   -1    0    0  501    0  0.00000000000E+00  0.00000000000E+00  0.30902918387E+03  0.30902918387E+03  0.00000000000E+00 0. -1.
         -2   -1    0    0    0  501 -0.00000000000E+00 -0.00000000000E+00 -0.48810475790E+02  0.48810475790E+02  0.00000000000E+00 0.  1.
         25    2    1    2    0    0 -0.18205425737E+02  0.52041666158E+02  0.13953279473E+03  0.19533754883E+03  0.12509030591E+03 0.  0.
          5    1    3    3  502    0 -0.46663808108E+02  0.55292053162E+02  0.14832637571E+03  0.16508454882E+03  0.41800000000E+01 0.  1.
         -5    1    3    3    0  502  0.28458382371E+02 -0.32503870039E+01 -0.87935809732E+01  0.30253000003E+02  0.41800000000E+01 0.  1.
        -11    1    1    2    0    0  0.22880470893E+02 -0.14689389179E+02 -0.80650871546E+01  0.28360883864E+02  0.00000000000E+00 0.  1.
         11    1    1    2    0    0 -0.46750451570E+01 -0.37352276980E+02  0.12875100050E+03  0.13414122697E+03  0.00000000000E+00 0. -1.
</event>
<event>
 7    1  0.2855090E-009  0.1051386E+03  0.7561462E-02  0.1269847E+00
          2   -1    0    0  501    0  0.00000000000E+00  0.00000000000E+00  0.14323415965E+03  0.14323415965E+03  0.00000000000E+00 0. -1.
         -2   -1    0    0    0  501 -0.00000000000E+00 -0.00000000000E+00 -0.15055420113E+03  0.15055420113E+03  0.00000000000E+00 0.  1.
         25    2    1    2    0    0  0.93520877921E+02 -0.35013899648E+02 -0.12319896752E+02  0.16053519001E+03  0.12509052562E+03 0.  0.
          5    1    3    3  502    0  0.37500777178E+02 -0.33733464518E+02 -0.65765232897E+02  0.82986704810E+02  0.41800000000E+01 0.  1.
         -5    1    3    3    0  502  0.56020100743E+02 -0.12804351302E+01  0.53445336145E+02  0.77548485202E+02  0.41800000000E+01 0.  1.
        -11    1    1    2    0    0 -0.49629626605E+02  0.41218558574E+01 -0.39475109843E+02  0.63548200838E+02  0.00000000000E+00 0.  1.
         11    1    1    2    0    0 -0.43891251316E+02  0.30892043791E+02  0.44474965113E+02  0.69704969934E+02  0.00000000000E+00 0. -1.
</event>
<event>
 7    1  0.5848825E-009  0.2158706E+03  0.7561462E-02  0.1137000E+00
         -1   -1    0    0    0  501 -0.00000000000E+00  0.00000000000E+00  0.50829679530E+02  0.50829679530E+02  0.00000000000E+00 0.  1.
          1   -1    0    0  501    0  0.00000000000E+00 -0.00000000000E+00 -0.11252461758E+04  0.11252461758E+04  0.00000000000E+00 0. -1.
         25    2    1    2    0    0 -0.21227929488E+03  0.13183300535E+02 -0.54888161661E+03  0.60179315589E+03  0.12509066700E+03 0.  0.
          5    1    3    3  502    0 -0.13720071352E+03  0.32481669348E+02 -0.47163803549E+03  0.49227939582E+03  0.41800000000E+01 0. -1.
         -5    1    3    3    0  502 -0.75078581363E+02 -0.19298368812E+02 -0.77243581124E+02  0.10951376006E+03  0.41800000000E+01 0. -1.
        -11    1    1    2    0    0  0.13016631178E+03 -0.14170405436E+02 -0.42365826886E+03  0.44343026271E+03  0.00000000000E+00 0.  1.
         11    1    1    2    0    0  0.82112983103E+02  0.98710490021E+00 -0.10187661077E+03  0.13085243671E+03  0.00000000000E+00 0. -1.
</event>
<event>
 7    1  0.2855090E-009  0.8591342E+02  0.7561462E-02  0.1313061E+00
         -2   -1    0    0    0  501 -0.00000000000E+00  0.00000000000E+00  0.21024654555E+02  0.21024654555E+02  0.00000000000E+00 0.  1.
          2   -1    0    0  501    0  0.00000000000E+00 -0.00000000000E+00 -0.12372033381E+04  0.12372033381E+04  0.00000000000E+00 0. -1.
         25    2    1    2    0    0 -0.22939768012E+02 -0.32704247423E+01 -0.10981397240E+04  0.11054842498E+04  0.12509054497E+03 0.  0.
          5    1    3    3  502    0 -0.46852298013E+02  0.48681501883E+02 -0.49140637360E+03  0.49604709743E+03  0.41800000000E+01 0.  1.
         -5    1    3    3    0  502  0.23912530001E+02 -0.51951926625E+02 -0.60673335039E+03  0.60943715233E+03  0.41800000000E+01 0.  1.
        -11    1    1    2    0    0  0.20757945200E+02 -0.16735855887E+02 -0.12767587386E+03  0.13043047929E+03  0.00000000000E+00 0. -1.
         11    1    1    2    0    0  0.21818228122E+01  0.20006280629E+02  0.96369143027E+01  0.22313263604E+02  0.00000000000E+00 0.  1.
</event>
<event>
 7    1  0.2855090E-009  0.1537322E+03  0.7561462E-02  0.1195960E+00
          1   -1    0    0  501    0  0.00000000000E+00  0.00000000000E+00  0.97421653854E+02  0.97421653854E+02  0.00000000000E+00 0. -1.
         -1   -1    0    0    0  501 -0.00000000000E+00 -0.00000000000E+00 -0.27696930530E+03  0.27696930530E+03  0.00000000000E+00 0.  1.
         25    2    1    2    0    0 -0.75954346701E+02  0.67337625139E+02 -0.38273919693E+02  0.16559002071E+03  0.12510692822E+03 0.  0.
          5    1    3    3  502    0  0.30340252106E+02  0.36643278548E+02  0.19402051153E+01  0.47796417821E+02  0.41800000000E+01 0.  1.
         -5    1    3    3    0  502 -0.10629459881E+03  0.30694346591E+02 -0.40214124808E+02  0.11779360289E+03  0.41800000000E+01 0.  1.
        -11    1    1    2    0    0 -0.27818398262E+02 -0.60410373311E+01 -0.50300431813E+02  0.57796979631E+02  0.00000000000E+00 0.  1.
         11    1    1    2    0    0  0.10377274496E+03 -0.61296587808E+02 -0.90973299941E+02  0.15100395881E+03  0.00000000000E+00 0. -1.
</event>
<event>
 7    1  0.2855090E-009  0.1319503E+03  0.7561462E-02  0.1224590E+00
         -1   -1    0    0    0  501 -0.00000000000E+00  0.00000000000E+00  0.56600046605E+02  0.56600046605E+02  0.00000000000E+00 0.  1.
          1   -1    0    0  501    0  0.00000000000E+00 -0.00000000000E+00 -0.46640434434E+03  0.46640434434E+03  0.00000000000E+00 0. -1.
         25    2    1    2    0    0  0.53635515768E+02 -0.10499987327E+03 -0.17966470716E+03  0.24865365263E+03  0.12508992777E+03 0.  0.
          5    1    3    3  502    0  0.25692470225E+02 -0.32846506253E+02  0.10587209256E+02  0.43226813428E+02  0.41800000000E+01 0.  1.
         -5    1    3    3    0  502  0.27943045543E+02 -0.72153367021E+02 -0.19025191641E+03  0.20542683920E+03  0.41800000000E+01 0.  1.
        -11    1    1    2    0    0 -0.69575016252E+02  0.46047240897E+02 -0.97481510090E+02  0.12831085726E+03  0.00000000000E+00 0.  1.
         11    1    1    2    0    0  0.15939500484E+02  0.58952632377E+02 -0.13265808048E+03  0.14603988105E+03  0.00000000000E+00 0. -1.
</event>
<event>
 7    1  0.2855090E-009  0.8119862E+02  0.7561462E-02  0.1325684E+00
          2   -1    0    0  501    0  0.00000000000E+00  0.00000000000E+00  0.19782959933E+03  0.19782959933E+03  0.00000000000E+00 0. -1.
         -2   -1    0    0    0  501 -0.00000000000E+00 -0.00000000000E+00 -0.65107888306E+02  0.65107888306E+02  0.00000000000E+00 0.  1.
         25    2    1    2    0    0  0.45123317186E+01  0.28384461902E+02  0.10597881351E+03  0.16643146171E+03  0.12506751664E+03 0.  0.
          5    1    3    3  502    0 -0.31607600298E+02  0.51316888256E+02  0.99620607042E+01  0.61230535441E+02  0.41800000000E+01 0. -1.
         -5    1    3    3    0  502  0.36119932016E+02 -0.22932426354E+02  0.96016752809E+02  0.10520092627E+03  0.41800000000E+01 0. -1.
        -11    1    1    2    0    0  0.21976442896E+02 -0.27771993576E+01  0.48781181602E+02  0.53574999367E+02  0.00000000000E+00 0. -1.
         11    1    1    2    0    0 -0.26488774615E+02 -0.25607262544E+02 -0.22038284094E+02  0.42931026559E+02  0.00000000000E+00 0.  1.
</event>
<event>
 7    1  0.2855090E-009  0.1096217E+03  0.7561462E-02  0.1261272E+00
          1   -1    0    0  501    0  0.00000000000E+00  0.00000000000E+00  0.57803917124E+03  0.57803917124E+03  0.00000000000E+00 0. -1.
         -1   -1    0    0    0  501 -0.00000000000E+00 -0.00000000000E+00 -0.40360497415E+02  0.40360497415E+02  0.00000000000E+00 0.  1.
         25    2    1    2    0    0 -0.90081448498E+02  0.39456178854E+02  0.20329892817E+03  0.25815991967E+03  0.12507850540E+03 0.  0.
          5    1    3    3  502    0 -0.38260072953E+02  0.31002471673E+02  0.19929960864E+03  0.20533580505E+03  0.41800000000E+01 0. -1.
         -5    1    3    3    0  502 -0.51821375546E+02  0.84537071812E+01  0.39993195386E+01  0.52824114619E+02  0.41800000000E+01 0. -1.
        -11    1    1    2    0    0  0.45703031352E+02 -0.53724039788E+02  0.27936302619E+03  0.28812972760E+03  0.00000000000E+00 0. -1.
         11    1    1    2    0    0  0.44378417147E+02  0.14267860934E+02  0.55016719464E+02  0.72110021388E+02  0.00000000000E+00 0.  1.
</event>
<event>
 7    1  0.2855090E-009  0.9815342E+02  0.7561462E-02  0.1284228E+00
         -3   -1    0    0    0  501 -0.00000000000E+00  0.00000000000E+00  0.24680306640E+02  0.24680306640E+02  0.00000000000E+00 0.  1.
          3   -1    0    0  501    0  0.00000000000E+00 -0.00000000000E+00 -0.49834327366E+03  0.49834327366E+03  0.00000000000E+00 0. -1.
         25    2    1    2    0    0  0.93822683717E+01 -0.14842103244E+02 -0.24652034897E+03  0.27699959352E+03  0.12509267511E+03 0.  0.
          5    1    3    3  502    0  0.36675776784E+02 -0.48344925017E+02 -0.59800740477E+02  0.85299152043E+02  0.41800000000E+01 0.  1.
         -5    1    3    3    0  502 -0.27293508413E+02  0.33502821773E+02 -0.18671960849E+03  0.19170044148E+03  0.41800000000E+01 0.  1.
        -11    1    1    2    0    0 -0.47264192319E+02 -0.78437372860E+01 -0.90139322874E+02  0.10208097579E+03  0.00000000000E+00 0. -1.
         11    1    1    2    0    0  0.37881923948E+02  0.22685840530E+02 -0.13700329517E+03  0.14394301098E+03  0.00000000000E+00 0.  1.
</event>
<event>
 7    1  0.2855090E-009  0.1310101E+03  0.7561462E-02  0.1225965E+00
          2   -1    0    0  501    0  0.00000000000E+00  0.00000000000E+00  0.10151179193E+03  0.10151179193E+03  0.00000000000E+00 0. -1.
         -2   -1    0    0    0  501 -0.00000000000E+00 -0.00000000000E+00 -0.18963474499E+03  0.18963474499E+03  0.00000000000E+00 0.  1.
         25    2    1    2    0    0  0.43568826794E+02  0.79828887604E+02 -0.58229884638E+02  0.16525538729E+03  0.12509088536E+03 0.  0.
          5    1    3    3  502    0 -0.17440173509E+02 -0.25778532752E+02 -0.37998797771E+01  0.31632323487E+02  0.41800000000E+01 0.  1.
         -5    1    3    3    0  502  0.61009000303E+02  0.10560742036E+03 -0.54430004861E+02  0.13362306381E+03  0.41800000000E+01 0.  1.
        -11    1    1    2    0    0  0.13058366250E+02 -0.31630227508E+02 -0.37942723414E+02  0.51094446679E+02  0.00000000000E+00 0.  1.
         11    1    1    2    0    0 -0.56627193044E+02 -0.48198660096E+02  0.80496549950E+01  0.74796702953E+02  0.00000000000E+00 0. -1.
</event>
<event>
 7    1  0.2855090E-009  0.1313589E+03  0.7561462E-02  0.1225453E+00
         -1   -1    0    0    0  501 -0.00000000000E+00  0.00000000000E+00  0.15905936846E+02  0.15905936846E+02  0.00000000000E+00 0.  1.
          1   -1    0    0  501    0  0.00000000000E+00 -0.00000000000E+00 -0.17952300952E+04  0.17952300952E+04  0.00000000000E+00 0. -1.
         25    2    1    2    0    0  0.10222262022E+03  0.36607222359E+02 -0.13304039724E+04  0.13406759533E+04  0.12509088337E+03 0.  0.
          5    1    3    3  502    0  0.54161779158E+01 -0.13113399387E+02 -0.74979790608E+03  0.74994377696E+03  0.41800000000E+01 0. -1.
         -5    1    3    3    0  502  0.96806442301E+02  0.49720621746E+02 -0.58060606634E+03  0.59073217635E+03  0.41800000000E+01 0. -1.
        -11    1    1    2    0    0 -0.20361304199E+02  0.28078876509E+02 -0.82982276992E+02  0.89939225645E+02  0.00000000000E+00 0. -1.
         11    1    1    2    0    0 -0.81861316017E+02 -0.64686098869E+02 -0.36593790893E+03  0.38052085309E+03  0.00000000000E+00 0.  1.
</event>
<event>
 7    1  0.2855090E-009  0.1017699E+03  0.7561462E-02  0.1276618E+00
         -1   -1    0    0    0  501 -0.00000000000E+00  0.00000000000E+00  0.47696606612E+03  0.47696606612E+03  0.00000000000E+00 0.  1.
          1   -1    0    0  501    0  0.00000000000E+00 -0.00000000000E+00 -0.38417460894E+02  0.38417460894E+02  0.00000000000E+00 0. -1.
         25    2    1    2    0    0  0.54208022051E+02  0.58829155791E+02  0.21605757546E+03  0.26215995460E+03  0.12509031400E+03 0.  0.
          5    1    3    3  502    0 -0.14267231150E+02 -0.31823215321E+01 -0.98104421986E+01  0.18094149086E+02  0.41800000000E+01 0. -1.
         -5    1    3    3    0  502  0.68475253200E+02  0.62011477323E+02  0.22586801766E+03  0.24406580552E+03  0.41800000000E+01 0. -1.
        -11    1    1    2    0    0 -0.46342782111E+02 -0.11321029123E+02  0.18808403097E+03  0.19403974299E+03  0.00000000000E+00 0.  1.
         11    1    1    2    0    0 -0.78652399392E+01 -0.47508126668E+02  0.34406998795E+02  0.59183829421E+02  0.00000000000E+00 0. -1.
</event>
<event>
 7    1  0.2855090E-009  0.1018616E+03  0.7561462E-02  0.1276429E+00
         -1   -1    0    0    0  501 -0.00000000000E+00  0.00000000000E+00  0.19456730160E+02  0.19456730160E+02  0.00000000000E+00 0.  1.
          1   -1    0    0  501    0  0.00000000000E+00 -0.00000000000E+00 -0.98360388800E+03  0.98360388800E+03  0.00000000000E+00 0. -1.
         25    2    1    2    0    0  0.55739967842E+02  0.61507147792E+02 -0.60805939289E+03  0.62631858962E+03  0.12509467290E+03 0.  0.
          5    1    3    3  502    0  0.31981917243E+02  0.48471082436E+02 -0.87877411532E+02  0.10541442368E+03  0.41800000000E+01 0. -1.
         -5    1    3    3    0  502  0.23758050600E+02  0.13036065356E+02 -0.52018198135E+03  0.52090416594E+03  0.41800000000E+01 0. -1.
        -11    1    1    2    0    0  0.15452911007E+02  0.90005272816E+01 -0.24409050927E+02  0.30258944415E+02  0.00000000000E+00 0.  1.
         11    1    1    2    0    0 -0.71192878850E+02 -0.70507675074E+02 -0.33167871403E+03  0.34648308412E+03  0.00000000000E+00 0. -1.
</event>
<event>
 7    1  0.2855090E-009  0.1888275E+03  0.7561462E-02  0.1159523E+00
          1   -1    0    0  501    0  0.00000000000E+00  0.00000000000E+00  0.82603829872E+02  0.82603829872E+02  0.00000000000E+00 0. -1.
         -1   -1    0    0    0  501 -0.00000000000E+00 -0.00000000000E+00 -0.75114170752E+03  0.75114170752E+03  0.00000000000E+00 0.  1.
         25    2    1    2    0    0  0.14967904496E+03 -0.40595333984E+02 -0.61506180121E+03  0.64652423051E+03  0.12506303884E+03 0.  0.
          5    1    3    3  502    0  0.92860436443E+02 -0.85572210011E+02 -0.40742156213E+03  0.42656238169E+03  0.41800000000E+01 0. -1.
         -5    1    3    3    0  502  0.56818608517E+02  0.44976876027E+02 -0.20764023908E+03  0.21996184882E+03  0.41800000000E+01 0. -1.
        -11    1    1    2    0    0  0.27476414439E+01  0.25392258730E+02 -0.13588328227E+02  0.28930243706E+02  0.00000000000E+00 0.  1.
         11    1    1    2    0    0 -0.15242668640E+03  0.15203075254E+02 -0.39887748211E+02  0.15829106318E+03  0.00000000000E+00 0. -1.
</event>
<event>
 7    1  0.2855090E-009  0.9521562E+02  0.7561462E-02  0.1290691E+00
          1   -1    0    0  501    0  0.00000000000E+00  0.00000000000E+00  0.11674680918E+03  0.11674680918E+03  0.00000000000E+00 0. -1.
         -1   -1    0    0    0  501 -0.00000000000E+00 -0.00000000000E+00 -0.28242021196E+03  0.28242021196E+03  0.00000000000E+00 0.  1.
         25    2    1    2    0    0  0.56559952067E+02 -0.63118785574E+00  0.59580717507E+02  0.14964744520E+03  0.12508025176E+03 0.  0.
          5    1    3    3  502    0  0.79199351392E+02  0.82410953138E+01 -0.56202971896E+01  0.79934429712E+02  0.41800000000E+01 0.  1.
         -5    1    3    3    0  502 -0.22639399325E+02 -0.88722831695E+01  0.65201014697E+02  0.69713015485E+02  0.41800000000E+01 0.  1.
        -11    1    1    2    0    0 -0.48743262111E+02 -0.28088869247E+02 -0.20721303925E+03  0.21471407455E+03  0.00000000000E+00 0.  1.
         11    1    1    2    0    0 -0.78166899562E+01  0.28720057103E+02 -0.18041081041E+02  0.34805501389E+02  0.00000000000E+00 0. -1.
</event>
<event>
 7    1  0.2855090E-009  0.1129512E+03  0.7561462E-02  0.1255200E+00
          2   -1    0    0  501    0  0.00000000000E+00  0.00000000000E+00  0.10550482203E+03  0.10550482203E+03  0.00000000000E+00 0.  1.
         -2   -1    0    0    0  501 -0.00000000000E+00 -0.00000000000E+00 -0.13913421794E+03  0.13913421794E+03  0.00000000000E+00 0. -1.
         25    2    1    2    0    0 -0.47692750619E+02  0.70220000625E+01 -0.17681341178E+02  0.13521925974E+03  0.12509081274E+03 0.  0.
          5    1    3    3  502    0 -0.83823242002E+02  0.75923076915E+01 -0.39214740277E+02  0.92947551290E+02  0.41800000000E+01 0.  1.
         -5    1    3    3    0  502  0.36130491383E+02 -0.57030762903E+00  0.21533399099E+02  0.42271708448E+02  0.41800000000E+01 0.  1.
        -11    1    1    2    0    0  0.23063270289E+02  0.43396047401E+02 -0.20228680660E+02  0.53144434212E+02  0.00000000000E+00 0. -1.
         11    1    1    2    0    0  0.24629480330E+02 -0.50418047464E+02  0.42806259235E+01  0.56275346020E+02  0.00000000000E+00 0.  1.
</event>
<event>
 7    1  0.2855090E-009  0.7570509E+02  0.7561462E-02  0.1341701E+00
          2   -1    0    0  501    0  0.00000000000E+00  0.00000000000E+00  0.13963506884E+03  0.13963506884E+03  0.00000000000E+00 0. -1.
         -2   -1    0    0    0  501 -0.00000000000E+00 -0.00000000000E+00 -0.89351561276E+02  0.89351561276E+02  0.00000000000E+00 0.  1.
         25    2    1    2    0    0 -0.89477087497E+01 -0.73654587983E+01  0.54758618499E+01  0.12574444708E+03  0.12508944573E+03 0.  0.
          5    1    3    3  502    0  0.62390851517E+01  0.28994847830E+02  0.54814276635E+02  0.62463627074E+02  0.41800000000E+01 0.  1.
         -5    1    3    3    0  502 -0.15186793901E+02 -0.36360306629E+02 -0.49338414785E+02  0.63280820006E+02  0.41800000000E+01 0.  1.
        -11    1    1    2    0    0 -0.35333490934E+02  0.11986654543E+02 -0.35870127759E+01  0.37483358032E+02  0.00000000000E+00 0.  1.
         11    1    1    2    0    0  0.44281199684E+02 -0.46211957445E+01  0.48394658487E+02  0.65758825002E+02  0.00000000000E+00 0. -1.
</event>
<event>
 7    1  0.2855090E-009  0.8106213E+02  0.7561462E-02  0.1326064E+00
         -3   -1    0    0    0  501 -0.00000000000E+00  0.00000000000E+00  0.37706263014E+02  0.37706263014E+02  0.00000000000E+00 0.  1.
          3   -1    0    0  501    0  0.00000000000E+00 -0.00000000000E+00 -0.36601396495E+03  0.36601396495E+03  0.00000000000E+00 0. -1.
         25    2    1    2    0    0  0.43454349192E+02 -0.17424196580E+02 -0.18253251249E+03  0.22618307196E+03  0.12509508717E+03 0.  0.
          5    1    3    3  502    0 -0.10063591396E+02 -0.36682187290E+01  0.16201903717E+02  0.19867203741E+02  0.41800000000E+01 0.  1.
         -5    1    3    3    0  502  0.53517940589E+02 -0.13755977851E+02 -0.19873441621E+03  0.20631586822E+03  0.41800000000E+01 0.  1.
        -11    1    1    2    0    0  0.17791662999E+02  0.27885451015E+02 -0.24134031621E+02  0.40946222449E+02  0.00000000000E+00 0.  1.
         11    1    1    2    0    0 -0.61246012191E+02 -0.10461254436E+02 -0.12164115783E+03  0.13659093356E+03  0.00000000000E+00 0. -1.
</event>
<event>
 7    1  0.2855090E-009  0.1380321E+03  0.7561462E-02  0.1216002E+00
         -2   -1    0    0    0  501 -0.00000000000E+00  0.00000000000E+00  0.11026777511E+04  0.11026777511E+04  0.00000000000E+00 0.  1.
          2   -1    0    0  501    0  0.00000000000E+00 -0.00000000000E+00 -0.24771591010E+02  0.24771591010E+02  0.00000000000E+00 0. -1.
         25    2    1    2    0    0 -0.12070042670E+03 -0.15273243302E+02  0.47044426349E+03  0.50176001104E+03  0.12507373291E+03 0.  0.
          5    1    3    3  502    0 -0.27553959736E+02 -0.20411079096E+02  0.33768957062E+03  0.33945183951E+03  0.41800000000E+01 0. -1.
         -5    1    3    3    0  502 -0.93146466963E+02  0.51378357943E+01  0.13275469288E+03  0.16230817153E+03  0.41800000000E+01 0. -1.
        -11    1    1    2    0    0  0.12823204077E+02  0.36063913769E+02  0.20272941650E+03  0.20631106793E+03  0.00000000000E+00 0.  1.
         11    1    1    2    0    0  0.10787722262E+03 -0.20790670467E+02  0.40473248009E+03  0.41937826312E+03  0.00000000000E+00 0. -1.
</event>
<event>
 7    1  0.2855090E-009  0.8373869E+02  0.7561462E-02  0.1318764E+00
         -3   -1    0    0    0  501 -0.00000000000E+00  0.00000000000E+00  0.20058394385E+03  0.20058394385E+03  0.00000000000E+00 0.  1.
          3   -1    0    0  501    0  0.00000000000E+00 -0.00000000000E+00 -0.54965593008E+02  0.54965593008E+02  0.00000000000E+00 0. -1.
         25    2    1    2    0    0  0.13809058665E+01  0.14094426397E+02  0.69161134140E+02  0.14363511951E+03  0.12508886971E+03 0.  0.
          5    1    3    3  502    0 -0.31685295156E+02  0.58965333300E+02  0.22252446571E+02  0.70664787827E+02  0.41800000000E+01 0. -1.
         -5    1    3    3    0  502  0.33066201022E+02 -0.44870906903E+02  0.46908687569E+02  0.72970331682E+02  0.41800000000E+01 0. -1.
        -11    1    1    2    0    0 -0.10084151269E+02  0.12771256171E+02  0.81602603565E+02  0.83209254291E+02  0.00000000000E+00 0.  1.
         11    1    1    2    0    0  0.87032454028E+01 -0.26865682568E+02 -0.51453868607E+01  0.28705163060E+02  0.00000000000E+00 0. -1.
</event>
<event>
 7    1  0.2855090E-009  0.1175522E+03  0.7561462E-02  0.1247191E+00
          1   -1    0    0  501    0  0.00000000000E+00  0.00000000000E+00  0.41349677574E+03  0.41349677574E+03  0.00000000000E+00 0. -1.
         -1   -1    0    0    0  501 -0.00000000000E+00 -0.00000000000E+00 -0.54482693187E+02  0.54482693187E+02  0.00000000000E+00 0.  1.
         25    2    1    2    0    0  0.35059352722E+02 -0.35829466737E+02  0.25609965587E+03  0.28938857154E+03  0.12508318312E+03 0.  0.
          5    1    3    3  502    0  0.62974128510E+02  0.12319593603E+01  0.57463572351E+02  0.85362715121E+02  0.41800000000E+01 0. -1.
         -5    1    3    3    0  502 -0.27914775788E+02 -0.37061426097E+02  0.19863608352E+03  0.20402585642E+03  0.41800000000E+01 0. -1.
        -11    1    1    2    0    0  0.30326588282E+01  0.72473740357E+02  0.10270054917E+03  0.12573401632E+03  0.00000000000E+00 0. -1.
         11    1    1    2    0    0 -0.38092011550E+02 -0.36644273620E+02  0.21387751963E+00  0.52856881072E+02  0.00000000000E+00 0.  1.
</event>
<event>
 7    1  0.2855090E-009  0.1152839E+03  0.7561462E-02  0.1251086E+00
          2   -1    0    0  501    0  0.00000000000E+00  0.00000000000E+00  0.12148901827E+03  0.12148901827E+03  0.00000000000E+00 0. -1.
         -2   -1    0    0    0  501 -0.00000000000E+00 -0.00000000000E+00 -0.13592679585E+03  0.13592679585E+03  0.00000000000E+00 0.  1.
         25    2    1    2    0    0 -0.33273497235E+02 -0.29842950593E+02 -0.60925602521E+02  0.14612424377E+03  0.12507053312E+03 0.  0.
          5    1    3    3  502    0  0.47000310890E+02 -0.70890492506E+01 -0.11588800689E+02  0.49102510571E+02  0.41800000000E+01 0.  1.
         -5    1    3    3    0  502 -0.80273808125E+02 -0.22753901342E+02 -0.49336801832E+02  0.97021733195E+02  0.41800000000E+01 0.  1.
        -11    1    1    2    0    0 -0.27236423078E+02 -0.74442485508E+01  0.40884178181E+01  0.28529892023E+02  0.00000000000E+00 0. -1.
         11    1    1    2    0    0  0.60509920313E+02  0.37287199143E+02  0.42399407125E+02  0.82761678335E+02  0.00000000000E+00 0.  1.
</event>
<event>
 7    1  0.2855090E-009  0.1119043E+03  0.7561462E-02  0.1257083E+00
         -4   -1    0    0    0  501 -0.00000000000E+00  0.00000000000E+00  0.92807861872E+03  0.92807861872E+03  0.00000000000E+00 0.  1.
          4   -1    0    0  501    0  0.00000000000E+00 -0.00000000000E+00 -0.23266295134E+02  0.23266295134E+02  0.00000000000E+00 0. -1.
         25    2    1    2    0    0  0.36019949594E+02  0.42880991904E+02  0.76379003261E+03  0.77598843714E+03  0.12508646783E+03 0.  0.
          5    1    3    3  502    0 -0.23041477524E+01 -0.33739996922E+02  0.81626862617E+02  0.88454019636E+02  0.41800000000E+01 0. -1.
         -5    1    3    3    0  502  0.38324097346E+02  0.76620988826E+02  0.68216316999E+03  0.68753441751E+03  0.41800000000E+01 0. -1.
        -11    1    1    2    0    0  0.12651277976E+02 -0.52794609613E+02  0.79857950725E+02  0.96564061289E+02  0.00000000000E+00 0. -1.
         11    1    1    2    0    0 -0.48671227570E+02  0.99136177083E+01  0.61164340256E+02  0.78792415423E+02  0.00000000000E+00 0.  1.
</event>
<event>
 7    1  0.2855090E-009  0.1214240E+03  0.7561462E-02  0.1240766E+00
          1   -1    0    0  501    0  0.00000000000E+00  0.00000000000E+00  0.99249505651E+03  0.99249505651E+03  0.00000000000E+00 0. -1.
         -1   -1    0    0    0  501 -0.00000000000E+00 -0.00000000000E+00 -0.18881217119E+02  0.18881217119E+02  0.00000000000E+00 0.  1.
         25    2    1    2    0    0  0.20794740771E+02 -0.77449831943E+02  0.63371341153E+03  0.65089995544E+03  0.12508863388E+03 0.  0.
          5    1    3    3  502    0  0.26557624824E+01  0.22112807990E+02  0.32928390760E+03  0.33006271155E+03  0.41800000000E+01 0.  1.
         -5    1    3    3    0  502  0.18138978289E+02 -0.99562639933E+02  0.30442950393E+03  0.32083724389E+03  0.41800000000E+01 0.  1.
        -11    1    1    2    0    0  0.29624525142E+02  0.57488660701E+02  0.15984911740E+03  0.17243636198E+03  0.00000000000E+00 0. -1.
         11    1    1    2    0    0 -0.50419265913E+02  0.19961171242E+02  0.18005131046E+03  0.18803995621E+03  0.00000000000E+00 0.  1.
</event>
<event>
 7    1  0.2855090E-009  0.1072392E+03  0.7561462E-02  0.1265770E+00
          3   -1    0    0  501    0  0.00000000000E+00  0.00000000000E+00  0.35139385551E+03  0.35139385551E+03  0.00000000000E+00 0. -1.
         -3   -1    0    0    0  501 -0.00000000000E+00 -0.00000000000E+00 -0.40729231051E+02  0.40729231051E+02  0.00000000000E+00 0.  1.
         25    2    1    2    0    0  0.32721523025E+02 -0.37540673154E+02  0.15285580949E+03  0.20369540515E+03  0.12508764678E+03 0.  0.
          5    1    3    3  502    0 -0.38267318078E+02 -0.13622962658E+02  0.95475116936E+01  0.41935666491E+02  0.41800000000E+01 0.  1.
         -5    1    3    3    0  502  0.70988841103E+02 -0.23917710496E+02  0.14330829779E+03  0.16175973866E+03  0.41800000000E+01 0.  1.
        -11    1    1    2    0    0 -0.44802541096E+02 -0.13002168937E+02  0.10204772605E+03  0.11220544763E+03  0.00000000000E+00 0. -1.
         11    1    1    2    0    0  0.12081018071E+02  0.50542842090E+02  0.55761088924E+02  0.76222233779E+02  0.00000000000E+00 0.  1.
</event>
<event>
 7    1  0.2855090E-009  0.1020362E+03  0.7561462E-02  0.1276072E+00
          4   -1    0    0  501    0  0.00000000000E+00  0.00000000000E+00  0.45859540266E+02  0.45859540266E+02  0.00000000000E+00 0.  1.
         -4   -1    0    0    0  501 -0.00000000000E+00 -0.00000000000E+00 -0.26809745770E+03  0.26809745770E+03  0.00000000000E+00 0. -1.
         25    2    1    2    0    0 -0.80852237240E+01  0.66321437082E+01 -0.12385084509E+03  0.17634000024E+03  0.12508959861E+03 0.  0.
          5    1    3    3  502    0  0.17970791035E+02  0.56446037191E+02 -0.29204464131E+02  0.66177621370E+02  0.41800000000E+01 0. -1.
         -5    1    3    3    0  502 -0.26056014759E+02 -0.49813893483E+02 -0.94646380961E+02  0.11016237887E+03  0.41800000000E+01 0. -1.
        -11    1    1    2    0    0  0.36936132296E+02  0.25688551390E+02 -0.22666178117E+02  0.50377923458E+02  0.00000000000E+00 0.  1.
         11    1    1    2    0    0 -0.28850908572E+02 -0.32320695098E+02 -0.75720894223E+02  0.87239074267E+02  0.00000000000E+00 0. -1.
</event>
<event>
 7    1  0.2855090E-009  0.1103056E+03  0.7561462E-02  0.1260005E+00
         -3   -1    0    0    0  501 -0.00000000000E+00  0.00000000000E+00  0.70857158788E+02  0.70857158788E+02  0.00000000000E+00 0.  1.
          3   -1    0    0  501    0  0.00000000000E+00 -0.00000000000E+00 -0.28698256195E+03  0.28698256195E+03  0.00000000000E+00 0. -1.
         25    2    1    2    0    0  0.87082180674E+01  0.68903798342E+02 -0.19373056649E+03  0.24083800501E+03  0.12509134973E+03 0.  0.
          5    1    3    3  502    0 -0.37187411514E+02  0.81611554847E+02 -0.15577864993E+03  0.17979935938E+03  0.41800000000E+01 0.  1.
         -5    1    3    3    0  502  0.45895629582E+02 -0.12707756505E+02 -0.37951916564E+02  0.61038645635E+02  0.41800000000E+01 0.  1.
        -11    1    1    2    0    0 -0.26086479904E+02 -0.54614887360E+02 -0.52015545551E+02  0.79805434239E+02  0.00000000000E+00 0. -1.
         11    1    1    2    0    0  0.17378261837E+02 -0.14288910982E+02  0.29620708882E+02  0.37196281483E+02  0.00000000000E+00 0.  1.
</event>
<event>
 7    1  0.2855090E-009  0.1704360E+03  0.7561462E-02  0.1177394E+00
         -1   -1    0    0    0  501 -0.00000000000E+00  0.00000000000E+00  0.76554029242E+02  0.76554029242E+02  0.00000000000E+00 0.  1.
          1   -1    0    0  501    0  0.00000000000E+00 -0.00000000000E+00 -0.43308631101E+03  0.43308631101E+03  0.00000000000E+00 0. -1.
         25    2    1    2    0    0 -0.89629165227E+02 -0.11355427140E+03 -0.16070239005E+03  0.24980106788E+03  0.12508939017E+03 0.  0.
          5    1    3    3  502    0 -0.23911116666E+02  0.20091277370E+02 -0.66343489493E+02  0.73446115790E+02  0.41800000000E+01 0. -1.
         -5    1    3    3    0  502 -0.65718048560E+02 -0.13364554877E+03 -0.94358900560E+02  0.17635495209E+03  0.41800000000E+01 0. -1.
        -11    1    1    2    0    0  0.87081912441E+02  0.57703448606E+02 -0.16687843725E+03  0.19687904986E+03  0.00000000000E+00 0.  1.
         11    1    1    2    0    0  0.25472527859E+01  0.55850822789E+02 -0.28951454465E+02  0.62960222511E+02  0.00000000000E+00 0. -1.
</event>
<event>
 7    1  0.2855090E-009  0.1811084E+03  0.7561462E-02  0.1166735E+00
          2   -1    0    0  501    0  0.00000000000E+00  0.00000000000E+00  0.40379844799E+03  0.40379844799E+03  0.00000000000E+00 0. -1.
         -2   -1    0    0    0  501 -0.00000000000E+00 -0.00000000000E+00 -0.99604927041E+02  0.99604927041E+02  0.00000000000E+00 0.  1.
         25    2    1    2    0    0 -0.12579861305E+03 -0.84971534435E+02  0.25288055521E+03  0.32037788347E+03  0.12509180750E+03 0.  0.
          5    1    3    3  502    0 -0.98791450935E+02  0.79556211206E+01  0.14089522687E+03  0.17231360956E+03  0.41800000000E+01 0.  1.
         -5    1    3    3    0  502 -0.27007162117E+02 -0.92927155555E+02  0.11198532834E+03  0.14806427391E+03  0.41800000000E+01 0.  1.
        -11    1    1    2    0    0  0.38581763024E+02  0.66685068976E+02  0.53649815286E+02  0.93881593204E+02  0.00000000000E+00 0. -1.
         11    1    1    2    0    0  0.87216850028E+02  0.18286465459E+02 -0.23368495485E+01  0.89143898353E+02  0.00000000000E+00 0.  1.
</event>
<event>
 7    1  0.2855090E-009  0.1178683E+03  0.7561462E-02  0.1246656E+00
          2   -1    0    0  501    0  0.00000000000E+00  0.00000000000E+00  0.15258014161E+04  0.15258014161E+04  0.00000000000E+00 0. -1.
         -2   -1    0    0    0  501 -0.00000000000E+00 -0.00000000000E+00 -0.11775619115E+02  0.11775619115E+02  0.00000000000E+00 0.  1.
         25    2    1    2    0    0  0.27959216855E+02 -0.51060053929E+02  0.11277571193E+04  0.11361650290E+04  0.12508399622E+03 0.  0.
          5    1    3    3  502    0 -0.28783607412E+02  0.20282907263E+02  0.55998757033E+03  0.56110911925E+03  0.41800000000E+01 0. -1.
         -5    1    3    3    0  502  0.56742824267E+02 -0.71342961192E+02  0.56776954899E+03  0.57505590979E+03  0.41800000000E+01 0. -1.
        -11    1    1    2    0    0  0.23696616511E+01 -0.26053566073E+02  0.10318795880E+03  0.10645261125E+03  0.00000000000E+00 0. -1.
         11    1    1    2    0    0 -0.30328878506E+02  0.77113620002E+02  0.28308071882E+03  0.29495939488E+03  0.00000000000E+00 0.  1.
</event>
<event>
 7    1  0.3648897E-009  0.9821369E+02  0.7561462E-02  0.1284098E+00
         -2   -1    0    0    0  501 -0.00000000000E+00  0.00000000000E+00  0.15185906759E+03  0.15185906759E+03  0.00000000000E+00 0.  1.
          2   -1    0    0  501    0  0.00000000000E+00 -0.00000000000E+00 -0.14778748061E+03  0.14778748061E+03  0.00000000000E+00 0. -1.
         25    2    1    2    0    0 -0.35347234774E+02 -0.80751074515E+02  0.55486822897E+02  0.16277367662E+03  0.12508524790E+03 0.  0.
          5    1    3    3  502    0  0.39948337789E+00 -0.70807997568E+02  0.88163609490E+02  0.11315576231E+03  0.41800000000E+01 0.  1.
         -5    1    3    3    0  502 -0.35746718152E+02 -0.99430769470E+01 -0.32676786593E+02  0.49617914303E+02  0.41800000000E+01 0.  1.
        -11    1    1    2    0    0  0.25979670721E+02  0.58028553954E+02  0.15623987018E+02  0.65470339354E+02  0.00000000000E+00 0.  1.
         11    1    1    2    0    0  0.93675640530E+01  0.22722520561E+02 -0.67039222933E+02  0.71402532227E+02  0.00000000000E+00 0. -1.
</event>
<event>
 7    1  0.2855090E-009  0.1174394E+03  0.7561462E-02  0.1247382E+00
          1   -1    0    0  501    0  0.00000000000E+00  0.00000000000E+00  0.18073055979E+04  0.18073055979E+04  0.00000000000E+00 0. -1.
         -1   -1    0    0    0  501 -0.00000000000E+00 -0.00000000000E+00 -0.10445363060E+02  0.10445363060E+02  0.00000000000E+00 0.  1.
         25    2    1    2    0    0  0.45600916869E+02 -0.16579787517E+02  0.14476503013E+04  0.14538548245E+04  0.12509245709E+03 0.  0.
          5    1    3    3  502    0 -0.42925848238E+02 -0.68192708379E+01  0.57751886722E+03  0.57916719978E+03  0.41800000000E+01 0. -1.
         -5    1    3    3    0  502  0.88526765107E+02 -0.97605166787E+01  0.87013143407E+03  0.87468762469E+03  0.41800000000E+01 0. -1.
        -11    1    1    2    0    0  0.11838940401E+02  0.38723221027E+02  0.12550512687E+03  0.13187564304E+03  0.00000000000E+00 0.  1.
         11    1    1    2    0    0 -0.57439857270E+02 -0.22143433510E+02  0.22370480666E+03  0.23202049343E+03  0.00000000000E+00 0. -1.
</event>
<event>
 7    1  0.2855090E-009  0.1284425E+03  0.7561462E-02  0.1229785E+00
         -2   -1    0    0    0  501 -0.00000000000E+00  0.00000000000E+00  0.23901693839E+02  0.23901693839E+02  0.00000000000E+00 0.  1.
          2   -1    0    0  501    0  0.00000000000E+00 -0.00000000000E+00 -0.71460992045E+03  0.71460992045E+03  0.00000000000E+00 0. -1.
         25    2    1    2    0    0 -0.21529457506E+02  0.67560130739E+02 -0.42132955613E+03  0.44518881345E+03  0.12508635394E+03 0.  0.
          5    1    3    3  502    0 -0.71925057125E+02  0.30458744450E+02 -0.18910936369E+03  0.20464792398E+03  0.41800000000E+01 0. -1.
         -5    1    3    3    0  502  0.50395599619E+02  0.37101386290E+02 -0.23222019245E+03  0.24054088947E+03  0.41800000000E+01 0. -1.
        -11    1    1    2    0    0 -0.61800597890E+01 -0.83666797073E+02 -0.18858082779E+03  0.20640022936E+03  0.00000000000E+00 0.  1.
         11    1    1    2    0    0  0.27709517295E+02  0.16106666334E+02 -0.80797842688E+02  0.86922571477E+02  0.00000000000E+00 0. -1.
</event>
<event>
 7    1  0.2855090E-009  0.8504134E+02  0.7561462E-02  0.1315324E+00
          2   -1    0    0  501    0  0.00000000000E+00  0.00000000000E+00  0.22946871840E+03  0.22946871840E+03  0.00000000000E+00 0. -1.
         -2   -1    0    0    0  501 -0.00000000000E+00 -0.00000000000E+00 -0.92950451103E+02  0.92950451103E+02  0.00000000000E+00 0.  1.
         25    2    1    2    0    0 -0.55843296410E+01  0.36367335887E+02 -0.28267013631E+02  0.13341791650E+03  0.12509016159E+03 0.  0.
          5    1    3    3  502    0 -0.25636352169E+02  0.60974695175E+02 -0.59223953001E+02  0.88882422409E+02  0.41800000000E+01 0. -1.
         -5    1    3    3    0  502  0.20052022528E+02 -0.24607359288E+02  0.30956939370E+02  0.44535494089E+02  0.41800000000E+01 0. -1.
        -11    1    1    2    0    0  0.26196346056E+02  0.39653001909E+01  0.12782130370E+03  0.13053833856E+03  0.00000000000E+00 0. -1.
         11    1    1    2    0    0 -0.20612016415E+02 -0.40332636078E+02  0.36963977221E+02  0.58462914447E+02  0.00000000000E+00 0.  1.
</event>
<event>
 7    1  0.2855090E-009  0.1555833E+03  0.7561462E-02  0.1193775E+00
          2   -1    0    0  501    0  0.00000000000E+00  0.00000000000E+00  0.22836109385E+03  0.22836109385E+03  0.00000000000E+00 0.  1.
         -2   -1    0    0    0  501 -0.00000000000E+00 -0.00000000000E+00 -0.14361164231E+03  0.14361164231E+03  0.00000000000E+00 0. -1.
         25    2    1    2    0    0  0.11184360818E+03 -0.44775217736E+01  0.13855302208E+03  0.21764238016E+03  0.12506888031E+03 0.  0.
          5    1    3    3  502    0  0.13125982766E+03  0.22583545814E+02  0.11981644252E+03  0.17919991963E+03  0.41800000000E+01 0.  1.
         -5    1    3    3    0  502 -0.19416219480E+02 -0.27061067587E+02  0.18736579569E+02  0.38442460532E+02  0.41800000000E+01 0.  1.
        -11    1    1    2    0    0 -0.64989569798E+02  0.47687317422E+02 -0.34988026564E+02  0.87874264880E+02  0.00000000000E+00 0.  1.
         11    1    1    2    0    0 -0.46854038379E+02 -0.43209795649E+02 -0.18815543982E+02  0.66456091126E+02  0.00000000000E+00 0. -1.
</event>
<event>
 7    1  0.2855090E-009  0.1602884E+03  0.7561462E-02  0.1188371E+00
         -2   -1    0    0    0  501 -0.00000000000E+00  0.00000000000E+00  0.43432655900E+02  0.43432655900E+02  0.00000000000E+00 0.  1.
          2   -1    0    0  501    0  0.00000000000E+00 -0.00000000000E+00 -0.82142697140E+03  0.82142697140E+03  0.00000000000E+00 0. -1.
         25    2    1    2    0    0 -0.22338222782E+02 -0.14940244277E+03 -0.46609663238E+03  0.50568317256E+03  0.12509721897E+03 0.  0.
          5    1    3    3  502    0  0.23370255971E+02 -0.27577765103E+02 -0.25563358085E+03  0.25821057696E+03  0.41800000000E+01 0. -1.
         -5    1    3    3    0  502 -0.45708478753E+02 -0.12182467766E+03 -0.21046305153E+03  0.24747259560E+03  0.41800000000E+01 0. -1.
        -11    1    1    2    0    0  0.29509426147E+02  0.10681812515E+03 -0.12366650083E+03  0.16605517613E+03  0.00000000000E+00 0.  1.
         11    1    1    2    0    0 -0.71712033651E+01  0.42584317617E+02 -0.18823118229E+03  0.19312127861E+03  0.00000000000E+00 0. -1.
</event>
<event>
 7    1  0.2855090E-009  0.1187812E+03  0.7561462E-02  0.1245121E+00
         -2   -1    0    0    0  501 -0.00000000000E+00  0.00000000000E+00  0.11641097823E+03  0.11641097823E+03  0.00000000000E+00 0.  1.
          2   -1    0    0  501    0  0.00000000000E+00 -0.00000000000E+00 -0.20715113025E+03  0.20715113025E+03  0.00000000000E+00 0. -1.
         25    2    1    2    0    0 -0.10833434430E+02  0.96231064452E+02 -0.10305552262E+03  0.18880001677E+03  0.12508886650E+03 0.  0.
          5    1    3    3  502    0  0.16868162028E+02  0.90195221411E+02 -0.11148046290E+02  0.92528180527E+02  0.41800000000E+01 0.  1.
         -5    1    3    3    0  502 -0.27701596458E+02  0.60358430408E+01 -0.91907476331E+02  0.96271836240E+02  0.41800000000E+01 0.  1.
        -11    1    1    2    0    0  0.12046857403E+02  0.69194641583E+01  0.27193789007E+02  0.30536992617E+02  0.00000000000E+00 0.  1.
         11    1    1    2    0    0 -0.12134229731E+01 -0.10315052861E+03 -0.14878418403E+02  0.10422509910E+03  0.00000000000E+00 0. -1.
</event>
<event>
 7    1  0.2855090E-009  0.1536672E+03  0.7561462E-02  0.1196038E+00
          2   -1    0    0  501    0  0.00000000000E+00  0.00000000000E+00  0.12451355706E+04  0.12451355706E+04  0.00000000000E+00 0.  1.
         -2   -1    0    0    0  501 -0.00000000000E+00 -0.00000000000E+00 -0.21861657197E+02  0.21861657197E+02  0.00000000000E+00 0. -1.
         25    2    1    2    0    0 -0.32623488863E+02  0.11124364666E+03  0.48108938796E+03  0.51042443199E+03  0.12508661246E+03 0.  0.
          5    1    3    3  502    0  0.26321010973E+02 -0.83904588895E+01  0.16463995394E+03  0.16699395873E+03  0.41800000000E+01 0. -1.
         -5    1    3    3    0  502 -0.58944499836E+02  0.11963410555E+03  0.31644943402E+03  0.34343047326E+03  0.41800000000E+01 0. -1.
        -11    1    1    2    0    0  0.51264530681E+02 -0.23740506103E+02  0.32873289837E+03  0.33355206821E+03  0.00000000000E+00 0.  1.
         11    1    1    2    0    0 -0.18641041817E+02 -0.87503140561E+02  0.41345162711E+03  0.42302072763E+03  0.00000000000E+00 0. -1.
</event>
<event>
 7    1  0.2855090E-009  0.7727615E+02  0.7561462E-02  0.1336964E+00
         -2   -1    0    0    0  501 -0.00000000000E+00  0.00000000000E+00  0.30038397678E+02  0.30038397678E+02  0.00000000000E+00 0.  1.
          2   -1    0    0  501    0  0.00000000000E+00 -0.00000000000E+00 -0.43016680419E+03  0.43016680419E+03  0.00000000000E+00 0. -1.
         25    2    1    2    0    0 -0.51753864503E+01  0.37752353805E+00 -0.15895641827E+03  0.20234037702E+03  0.12509019992E+03 0.  0.
          5    1    3    3  502    0  0.38150042530E+02 -0.22202620252E+00 -0.15378721603E+03  0.15850380202E+03  0.41800000000E+01 0.  1.
         -5    1    3    3    0  502 -0.43325428980E+02  0.59954974057E+00 -0.51692022426E+01  0.43836575004E+02  0.41800000000E+01 0.  1.
        -11    1    1    2    0    0  0.31373806691E+02 -0.22292025107E+02 -0.20311160816E+03  0.20672584623E+03  0.00000000000E+00 0. -1.
         11    1    1    2    0    0 -0.26198420240E+02  0.21914501569E+02 -0.38060380079E+02  0.51138978616E+02  0.00000000000E+00 0.  1.
</event>
<event>
 7    1  0.2855090E-009  0.1198267E+03  0.7561462E-02  0.1243383E+00
         -2   -1    0    0    0  501 -0.00000000000E+00  0.00000000000E+00  0.29259164651E+02  0.29259164651E+02  0.00000000000E+00 0.  1.
          2   -1    0    0  501    0  0.00000000000E+00 -0.00000000000E+00 -0.64045677512E+03  0.64045677512E+03  0.00000000000E+00 0. -1.
         25    2    1    2    0    0  0.65976080574E+02  0.46805968933E+02 -0.27400895214E+03  0.31188589944E+03  0.12509303129E+03 0.  0.
          5    1    3    3  502    0 -0.19869145053E+02 -0.30281566004E+01 -0.11380134579E+00  0.20528955363E+02  0.41800000000E+01 0.  1.
         -5    1    3    3    0  502  0.85845225627E+02  0.49834125533E+02 -0.27389515080E+03  0.29135694408E+03  0.41800000000E+01 0.  1.
        -11    1    1    2    0    0 -0.80179456836E+02 -0.10592453292E+02 -0.22766121950E+03  0.24160003359E+03  0.00000000000E+00 0. -1.
         11    1    1    2    0    0  0.14203376262E+02 -0.36213515641E+02 -0.10952743883E+03  0.11623000675E+03  0.00000000000E+00 0.  1.
</event>
<event>
 7    1  0.2855090E-009  0.9328080E+02  0.7561462E-02  0.1295096E+00
         -1   -1    0    0    0  501 -0.00000000000E+00  0.00000000000E+00  0.33555298405E+02  0.33555298405E+02  0.00000000000E+00 0.  1.
          1   -1    0    0  501    0  0.00000000000E+00 -0.00000000000E+00 -0.49642007617E+03  0.49642007617E+03  0.00000000000E+00 0. -1.
         25    2    1    2    0    0  0.33324027363E+02 -0.16249758736E+02 -0.37988150435E+03  0.40166419108E+03  0.12509843960E+03 0.  0.
          5    1    3    3  502    0  0.55228373184E+02  0.19045966203E+02 -0.81424786303E+02  0.10030149679E+03  0.41800000000E+01 0.  1.
         -5    1    3    3    0  502 -0.21904345821E+02 -0.35295724939E+02 -0.29845671804E+03  0.30136269429E+03  0.41800000000E+01 0.  1.
        -11    1    1    2    0    0 -0.36018399045E+02 -0.25673799650E+02 -0.72638839727E+02  0.85046282077E+02  0.00000000000E+00 0. -1.
         11    1    1    2    0    0  0.26943716824E+01  0.41923558386E+02 -0.10344433692E+02  0.43264901420E+02  0.00000000000E+00 0.  1.
</event>
<event>
 7    1  0.2855090E-009  0.1144924E+03  0.7561462E-02  0.1252470E+00
          1   -1    0    0  501    0  0.00000000000E+00  0.00000000000E+00  0.19107018818E+03  0.19107018818E+03  0.00000000000E+00 0. -1.
         -1   -1    0    0    0  501 -0.00000000000E+00 -0.00000000000E+00 -0.92893147249E+02  0.92893147249E+02  0.00000000000E+00 0.  1.
         25    2    1    2    0    0 -0.76436848869E+02 -0.85925631843E-01  0.37895354411E+02  0.15141199112E+03  0.12508770491E+03 0.  0.
          5    1    3    3  502    0  0.36075237368E+01  0.42712037586E+02  0.42400125616E+02  0.60436540557E+02  0.41800000000E+01 0.  1.
         -5    1    3    3    0  502 -0.80044372606E+02 -0.42797963218E+02 -0.45047712050E+01  0.90975450563E+02  0.41800000000E+01 0.  1.
        -11    1    1    2    0    0  0.61205063495E+01  0.20854656955E+02  0.54887279062E+02  0.59033809952E+02  0.00000000000E+00 0. -1.
         11    1    1    2    0    0  0.70316342519E+02 -0.20768731323E+02  0.53944074588E+01  0.73517534357E+02  0.00000000000E+00 0.  1.
</event>
<event>
 7    1  0.2855090E-009  0.1989060E+03  0.7561462E-02  0.1150665E+00
          2   -1    0    0  501    0  0.00000000000E+00  0.00000000000E+00  0.64194425214E+03  0.64194425214E+03  0.00000000000E+00 0. -1.
         -2   -1    0    0    0  501 -0.00000000000E+00 -0.00000000000E+00 -0.68640941244E+02  0.68640941244E+02  0.00000000000E+00 0.  1.
         25    2    1    2    0    0 -0.17608772549E+03 -0.16590639643E+02  0.25720823574E+03  0.33627943102E+03  0.12508254394E+03 0.  0.
          5    1    3    3  502    0 -0.83174466631E+02 -0.68917431726E+02  0.15113062421E+03  0.18581050097E+03  0.41800000000E+01 0. -1.
         -5    1    3    3    0  502 -0.92913258858E+02  0.52326792084E+02  0.10607761153E+03  0.15046893005E+03  0.41800000000E+01 0. -1.
        -11    1    1    2    0    0  0.10325190988E+02 -0.10851923125E+02 -0.14502005793E+01  0.15049149018E+02  0.00000000000E+00 0.  1.
         11    1    1    2    0    0  0.16576253450E+03  0.27442562768E+02  0.31754527573E+03  0.35925661335E+03  0.00000000000E+00 0. -1.
</event>
<event>
 7    1  0.2855090E-009  0.1072871E+03  0.7561462E-02  0.1265678E+00
          2   -1    0    0  501    0  0.00000000000E+00  0.00000000000E+00  0.31290341552E+03  0.31290341552E+03  0.00000000000E+00 0. -1.
         -2   -1    0    0    0  501 -0.00000000000E+00 -0.00000000000E+00 -0.45632525001E+02  0.45632525001E+02  0.00000000000E+00 0.  1.
         25    2    1    2    0    0 -0.27683806442E+02  0.40516204116E+02  0.17066595446E+03  0.21721424029E+03  0.12508877742E+03 0.  0.
          5    1    3    3  502    0  0.48562344095E+02  0.28563614569E+02  0.62188182260E+02  0.84017996608E+02  0.41800000000E+01 0.  1.
         -5    1    3    3    0  502 -0.76246150537E+02  0.11952589547E+02  0.10847777221E+03  0.13319624368E+03  0.41800000000E+01 0.  1.
        -11    1    1    2    0    0 -0.15638762649E+02  0.64290464412E+01 -0.80375005109E+01  0.18721777421E+02  0.00000000000E+00 0.  1.
         11    1    1    2    0    0  0.43322569092E+02 -0.46945250558E+02  0.10464243657E+03  0.12259992281E+03  0.00000000000E+00 0. -1.
</event>
<event>
 7    1  0.2855090E-009  0.1345424E+03  0.7561462E-02  0.1220867E+00
         -2   -1    0    0    0  501 -0.00000000000E+00  0.00000000000E+00  0.15999061629E+03  0.15999061629E+03  0.00000000000E+00 0.  1.
          2   -1    0    0  501    0  0.00000000000E+00 -0.00000000000E+00 -0.14889892180E+03  0.14889892180E+03  0.00000000000E+00 0. -1.
         25    2    1    2    0    0  0.10227410430E+03 -0.38092674722E+02  0.13092344621E+02  0.16652359683E+03  0.12509058533E+03 0.  0.
          5    1    3    3  502    0 -0.76905308635E+01  0.30217339808E+01  0.44071401921E+02  0.45033720793E+02  0.41800000000E+01 0.  1.
         -5    1    3    3    0  502  0.10996463516E+03 -0.41114408703E+02 -0.30979057300E+02  0.12148987604E+03  0.41800000000E+01 0.  1.
        -11    1    1    2    0    0 -0.67337000846E+02 -0.23683080234E+02 -0.12357684578E+01  0.71391085550E+02  0.00000000000E+00 0.  1.
         11    1    1    2    0    0 -0.34937103453E+02  0.61775754956E+02 -0.76488166960E+00  0.70974855703E+02  0.00000000000E+00 0. -1.
</event>
<event>
 7    1  0.2855090E-009  0.1966281E+03  0.7561462E-02  0.1152615E+00
          2   -1    0    0  501    0  0.00000000000E+00  0.00000000000E+00  0.12973975001E+03  0.12973975001E+03  0.00000000000E+00 0. -1.
         -2   -1    0    0    0  501 -0.00000000000E+00 -0.00000000000E+00 -0.30552405811E+03  0.30552405811E+03  0.00000000000E+00 0.  1.
         25    2    1    2    0    0 -0.16222914692E+03  0.37320000985E+02 -0.10537811903E+03  0.23337184665E+03  0.12508713864E+03 0.  0.
          5    1    3    3  502    0 -0.18141475833E+03  0.30684452908E+02 -0.10646833931E+03  0.21261662650E+03  0.41800000000E+01 0.  1.
         -5    1    3    3    0  502  0.19185611403E+02  0.66355480769E+01  0.10902202774E+01  0.20755220149E+02  0.41800000000E+01 0.  1.
        -11    1    1    2    0    0  0.15719450753E+03 -0.65705509190E+01 -0.65175028795E+02  0.17029700442E+03  0.00000000000E+00 0.  1.
         11    1    1    2    0    0  0.50346393936E+01 -0.30749450066E+02 -0.52311602766E+01  0.31594957050E+02  0.00000000000E+00 0. -1.
</event>
<event>
 7    1  0.2855090E-009  0.1607631E+03  0.7561462E-02  0.1187838E+00
         -3   -1    0    0    0  501 -0.00000000000E+00  0.00000000000E+00  0.87965793942E+03  0.87965793942E+03  0.00000000000E+00 0.  1.
          3   -1    0    0  501    0  0.00000000000E+00 -0.00000000000E+00 -0.30256808265E+02  0.30256808265E+02  0.00000000000E+00 0. -1.
         25    2    1    2    0    0 -0.11999489250E+03 -0.12386794405E+02  0.41754596147E+03  0.45226509451E+03  0.12508748487E+03 0.  0.
          5    1    3    3  502    0 -0.25558680149E+02 -0.61653820398E+02  0.14800036202E+03  0.16240695570E+03  0.41800000000E+01 0.  1.
         -5    1    3    3    0  502 -0.94436212352E+02  0.49267025993E+02  0.26954559945E+03  0.28985813882E+03  0.41800000000E+01 0.  1.
        -11    1    1    2    0    0  0.74461194211E+02  0.49416361836E+02  0.30599896076E+03  0.31878175959E+03  0.00000000000E+00 0.  1.
         11    1    1    2    0    0  0.45533698290E+02 -0.37029567431E+02  0.12585620893E+03  0.13886789359E+03  0.00000000000E+00 0. -1.
</event>
<event>
 7    1  0.2855090E-009  0.1121332E+03  0.7561462E-02  0.1256670E+00
         -2   -1    0    0    0  501 -0.00000000000E+00  0.00000000000E+00  0.23715705614E+03  0.23715705614E+03  0.00000000000E+00 0.  1.
          2   -1    0    0  501    0  0.00000000000E+00 -0.00000000000E+00 -0.75900937673E+02  0.75900937673E+02  0.00000000000E+00 0. -1.
         25    2    1    2    0    0 -0.91571613649E+01 -0.74017334051E+02  0.11813311587E+03  0.18752195940E+03  0.12508650146E+03 0.  0.
          5    1    3    3  502    0 -0.52964150345E+02 -0.55638311349E+02  0.21686178704E+02  0.79928628527E+02  0.41800000000E+01 0.  1.
         -5    1    3    3    0  502  0.43806988980E+02 -0.18379022702E+02  0.96446937165E+02  0.10759333087E+03  0.41800000000E+01 0.  1.
        -11    1    1    2    0    0 -0.25933179860E+02  0.12417662701E+02  0.46378320908E+02  0.54568093377E+02  0.00000000000E+00 0.  1.
         11    1    1    2    0    0  0.35090341224E+02  0.61599671349E+02 -0.32553183136E+01  0.70967941036E+02  0.00000000000E+00 0. -1.
</event>
<event>
 7    1  0.2855090E-009  0.1163036E+03  0.7561462E-02  0.1249323E+00
          2   -1    0    0  501    0  0.00000000000E+00  0.00000000000E+00  0.17933340438E+03  0.17933340438E+03  0.00000000000E+00 0. -1.
         -2   -1    0    0    0  501 -0.00000000000E+00 -0.00000000000E+00 -0.15588808639E+03  0.15588808639E+03  0.00000000000E+00 0.  1.
         25    2    1    2    0    0  0.74664242960E+02  0.26957875487E+02  0.11256434701E+03  0.18606398993E+03  0.12509036694E+03 0.  0.
          5    1    3    3  502    0  0.48797938988E+02  0.77180912544E+02  0.66222149122E+02  0.11287593873E+03  0.41800000000E+01 0. -1.
         -5    1    3    3    0  502  0.25866303972E+02 -0.50223037057E+02  0.46342197886E+02  0.73188051192E+02  0.41800000000E+01 0. -1.
        -11    1    1    2    0    0 -0.50825205385E+02 -0.32479238609E+01 -0.10131201346E+03  0.11339256846E+03  0.00000000000E+00 0.  1.
         11    1    1    2    0    0 -0.23839037575E+02 -0.23709951626E+02  0.12192984438E+02  0.35764932380E+02  0.00000000000E+00 0. -1.
</event>
<event>
 7    1  0.2855090E-009  0.1644394E+03  0.7561462E-02  0.1183774E+00
         -2   -1    0    0    0  501 -0.00000000000E+00  0.00000000000E+00  0.53309402374E+02  0.53309402374E+02  0.00000000000E+00 0.  1.
          2   -1    0    0  501    0  0.00000000000E+00 -0.00000000000E+00 -0.63041813867E+03  0.63041813867E+03  0.00000000000E+00 0. -1.
         25    2    1    2    0    0  0.34127152060E+02  0.14012283188E+03 -0.24509578934E+03  0.31067345024E+03  0.12508787396E+03 0.  0.
          5    1    3    3  502    0  0.29156044716E+02  0.15635099580E+03 -0.24622748425E+03  0.29315721931E+03  0.41800000000E+01 0.  1.
         -5    1    3    3    0  502  0.49711073443E+01 -0.16228163927E+02  0.11316949130E+01  0.17516230932E+02  0.41800000000E+01 0.  1.
        -11    1    1    2    0    0  0.12000710567E+02 -0.45121098132E+02 -0.36581160852E+02  0.59313673635E+02  0.00000000000E+00 0.  1.
         11    1    1    2    0    0 -0.46127862627E+02 -0.95001733743E+02 -0.29543178611E+03  0.31374041717E+03  0.00000000000E+00 0. -1.
</event>
<event>
 7    1  0.2855090E-009  0.3844984E+03  0.7561462E-02  0.1049284E+00
          4   -1    0    0  501    0  0.00000000000E+00  0.00000000000E+00  0.53618637861E+03  0.53618637861E+03  0.00000000000E+00 0. -1.
         -4   -1    0    0    0  501 -0.00000000000E+00 -0.00000000000E+00 -0.36899713677E+03  0.36899713677E+03  0.00000000000E+00 0.  1.
         25    2    1    2    0    0 -0.45911468145E+01 -0.37537717599E+03 -0.13105730579E+03  0.41683670658E+03  0.12509084566E+03 0.  0.
          5    1    3    3  502    0  0.51892811648E+02 -0.25024293681E+03 -0.61602369722E+02  0.26291959927E+03  0.41800000000E+01 0.  1.
         -5    1    3    3    0  502 -0.56483958462E+02 -0.12513423918E+03 -0.69454936072E+02  0.15391710731E+03  0.41800000000E+01 0.  1.
        -11    1    1    2    0    0  0.12538145603E+02  0.14996889694E+03  0.17681160348E+03  0.23218574088E+03  0.00000000000E+00 0.  1.
         11    1    1    2    0    0 -0.79469987883E+01  0.22540827905E+03  0.12143494417E+03  0.25616106792E+03  0.00000000000E+00 0. -1.
</event>
<event>
 7    1  0.2855090E-009  0.1344935E+03  0.7561462E-02  0.1220936E+00
         -2   -1    0    0    0  501 -0.00000000000E+00  0.00000000000E+00  0.20534306067E+02  0.20534306067E+02  0.00000000000E+00 0.  1.
          2   -1    0    0  501    0  0.00000000000E+00 -0.00000000000E+00 -0.11578957663E+04  0.11578957663E+04  0.00000000000E+00 0. -1.
         25    2    1    2    0    0 -0.50509587927E+02  0.89104875669E+02 -0.75609757812E+03  0.77318924769E+03  0.12508863966E+03 0.  0.
          5    1    3    3  502    0 -0.68251660032E+02  0.34789836352E+01 -0.43569313813E+03  0.44104010638E+03  0.41800000000E+01 0.  1.
         -5    1    3    3    0  502  0.17742072104E+02  0.85625892034E+02 -0.32040443999E+03  0.33214914131E+03  0.41800000000E+01 0.  1.
        -11    1    1    2    0    0  0.36737148988E+02 -0.91855959239E+02 -0.37812146217E+03  0.39084904441E+03  0.00000000000E+00 0. -1.
         11    1    1    2    0    0  0.13772438939E+02  0.27510835700E+01 -0.31424199066E+01  0.14391780224E+02  0.00000000000E+00 0.  1.
</event>
<event>
 7    1  0.2855090E-009  0.1488580E+03  0.7561462E-02  0.1201883E+00
          1   -1    0    0  501    0  0.00000000000E+00  0.00000000000E+00  0.87000746331E+03  0.87000746331E+03  0.00000000000E+00 0. -1.
         -1   -1    0    0    0  501 -0.00000000000E+00 -0.00000000000E+00 -0.34019068805E+02  0.34019068805E+02  0.00000000000E+00 0.  1.
         25    2    1    2    0    0 -0.48606757658E+02  0.12542602738E+03  0.48131325391E+03  0.51517016011E+03  0.12507413900E+03 0.  0.
          5    1    3    3  502    0 -0.62370597917E+02  0.93720417266E+02  0.18344859609E+03  0.21527765305E+03  0.41800000000E+01 0.  1.
         -5    1    3    3    0  502  0.13763840260E+02  0.31705610110E+02  0.29786465782E+03  0.29989250706E+03  0.41800000000E+01 0.  1.
        -11    1    1    2    0    0  0.65538614701E+02 -0.10413564851E+03  0.32976250162E+03  0.35196995722E+03  0.00000000000E+00 0. -1.
         11    1    1    2    0    0 -0.16931857043E+02 -0.21290378867E+02  0.24912638973E+02  0.36886414787E+02  0.00000000000E+00 0.  1.
</event>
<event>
 7    1  0.2855090E-009  0.2422493E+03  0.7561462E-02  0.1118303E+00
         -1   -1    0    0    0  501 -0.00000000000E+00  0.00000000000E+00  0.55682827587E+03  0.55682827587E+03  0.00000000000E+00 0.  1.
          1   -1    0    0  501    0  0.00000000000E+00 -0.00000000000E+00 -0.11868084806E+03  0.11868084806E+03  0.00000000000E+00 0. -1.
         25    2    1    2    0    0 -0.95214931136E+02 -0.20978897284E+03  0.18235023205E+03  0.31933738176E+03  0.12508980783E+03 0.  0.
          5    1    3    3  502    0 -0.10028643061E+03 -0.17864132729E+03  0.19704265162E+03  0.28427692650E+03  0.41800000000E+01 0.  1.
         -5    1    3    3    0  502  0.50714994718E+01 -0.31147645554E+02 -0.14692419573E+02  0.35060455265E+02  0.41800000000E+01 0.  1.
        -11    1    1    2    0    0 -0.17553905565E+02  0.42767903859E+02  0.51450615138E+02  0.69169350143E+02  0.00000000000E+00 0. -1.
         11    1    1    2    0    0  0.11276883670E+03  0.16702106898E+03  0.20434658062E+03  0.28700239202E+03  0.00000000000E+00 0.  1.
</event>
<event>
 7    1  0.2855090E-009  0.1223530E+03  0.7561462E-02  0.1239265E+00
          2   -1    0    0  501    0  0.00000000000E+00  0.00000000000E+00  0.65970194734E+03  0.65970194734E+03  0.00000000000E+00 0. -1.
         -2   -1    0    0    0  501 -0.00000000000E+00 -0.00000000000E+00 -0.28681574399E+02  0.28681574399E+02  0.00000000000E+00 0.  1.
         25    2    1    2    0    0  0.83207349238E+02  0.80549081724E+01  0.36068824000E+03  0.39080929255E+03  0.12509017609E+03 0.  0.
          5    1    3    3  502    0  0.10038157448E+03  0.39295225307E+02  0.21224683295E+03  0.23808982700E+03  0.41800000000E+01 0.  1.
         -5    1    3    3    0  502 -0.17174225243E+02 -0.31240317135E+02  0.14844140706E+03  0.15271946554E+03  0.41800000000E+01 0.  1.
        -11    1    1    2    0    0 -0.24953047866E+02 -0.29695963499E+02  0.29165846611E+02  0.48529902684E+02  0.00000000000E+00 0.  1.
         11    1    1    2    0    0 -0.58254301372E+02  0.21641055326E+02  0.24116628633E+03  0.24904432651E+03  0.00000000000E+00 0. -1.
</event>
<event>
 7    1  0.2855090E-009  0.1009773E+03  0.7561462E-02  0.1278254E+00
          1   -1    0    0  501    0  0.00000000000E+00  0.00000000000E+00  0.18673221223E+03  0.18673221223E+03  0.00000000000E+00 0. -1.
         -1   -1    0    0    0  501 -0.00000000000E+00 -0.00000000000E+00 -0.64606640554E+02  0.64606640554E+02  0.00000000000E+00 0.  1.
         25    2    1    2    0    0 -0.18000802071E+02 -0.10311148792E+02  0.70528089713E+02  0.14509523778E+03  0.12509223767E+03 0.  0.
          5    1    3    3  502    0  0.40127393679E+02  0.32894175949E+02  0.16388646200E+02  0.54573754306E+02  0.41800000000E+01 0.  1.
         -5    1    3    3    0  502 -0.58128195750E+02 -0.43205324741E+02  0.54139443513E+02  0.90521483478E+02  0.41800000000E+01 0.  1.
        -11    1    1    2    0    0 -0.21942481141E+02  0.26367332858E+02 -0.54940800179E+01  0.34740374723E+02  0.00000000000E+00 0.  1.
         11    1    1    2    0    0  0.39943283212E+02 -0.16056184066E+02  0.57091561981E+02  0.71503240276E+02  0.00000000000E+00 0. -1.
</event>
<event>
 7    1  0.2855090E-009  0.1194236E+03  0.7561462E-02  0.1244051E+00
          1   -1    0    0  501    0  0.00000000000E+00  0.00000000000E+00  0.11901528014E+04  0.11901528014E+04  0.00000000000E+00 0. -1.
         -1   -1    0    0    0  501 -0.00000000000E+00 -0.00000000000E+00 -0.23281291084E+02  0.23281291084E+02  0.00000000000E+00 0.  1.
         25    2    1    2    0    0 -0.34882859959E+02 -0.60970423422E+02  0.10045559632E+04  0.10147465460E+04  0.12507462999E+03 0.  0.
          5    1    3    3  502    0 -0.72103091735E+02 -0.74039256717E+02  0.75669261219E+03  0.76372891075E+03  0.41800000000E+01 0.  1.
         -5    1    3    3    0  502  0.37220231777E+02  0.13068833294E+02  0.24786335101E+03  0.25101763530E+03  0.41800000000E+01 0.  1.
        -11    1    1    2    0    0 -0.15319079331E+02  0.37140767330E+02  0.17964541867E+02  0.44009493906E+02  0.00000000000E+00 0.  1.
         11    1    1    2    0    0  0.50201939289E+02  0.23829656092E+02  0.14435100526E+03  0.15467805254E+03  0.00000000000E+00 0. -1.
</event>
<event>
 7    1  0.2855090E-009  0.1133050E+03  0.7561462E-02  0.1254569E+00
          2   -1    0    0  501    0  0.00000000000E+00  0.00000000000E+00  0.97798130041E+02  0.97798130041E+02  0.00000000000E+00 0. -1.
         -2   -1    0    0    0  501 -0.00000000000E+00 -0.00000000000E+00 -0.18392273719E+03  0.18392273719E+03  0.00000000000E+00 0.  1.
         25    2    1    2    0    0  0.17285253300E+02 -0.54797489855E+02 -0.96881309920E+02  0.16833065299E+03  0.12509066971E+03 0.  0.
          5    1    3    3  502    0 -0.56767072807E+01  0.31098562315E+02  0.58311115905E+01  0.32416351522E+02  0.41800000000E+01 0.  1.
         -5    1    3    3    0  502  0.22961960581E+02 -0.85896052170E+02 -0.10271242151E+03  0.13591430147E+03  0.41800000000E+01 0.  1.
        -11    1    1    2    0    0 -0.40856191723E+02  0.67525963392E+02  0.25337059664E+02  0.82891198124E+02  0.00000000000E+00 0. -1.
         11    1    1    2    0    0  0.23570938423E+02 -0.12728473536E+02 -0.14580356893E+02  0.30499016113E+02  0.00000000000E+00 0.  1.
</event>
<event>
 7    1  0.2855090E-009  0.1371996E+03  0.7561462E-02  0.1217148E+00
         -3   -1    0    0    0  501 -0.00000000000E+00  0.00000000000E+00  0.13604496223E+04  0.13604496223E+04  0.00000000000E+00 0.  1.
          3   -1    0    0  501    0  0.00000000000E+00 -0.00000000000E+00 -0.25659343066E+02  0.25659343066E+02  0.00000000000E+00 0. -1.
         25    2    1    2    0    0 -0.10109199607E+03  0.59557153934E+02  0.10602970356E+04  0.10740782357E+04  0.12509039324E+03 0.  0.
          5    1    3    3  502    0 -0.68360867206E+02  0.81956224981E+01  0.19890467801E+03  0.21052534225E+03  0.41800000000E+01 0. -1.
         -5    1    3    3    0  502 -0.32731128868E+02  0.51361531436E+02  0.86139235754E+03  0.86355289342E+03  0.41800000000E+01 0. -1.
        -11    1    1    2    0    0  0.97360894672E+02 -0.13646796266E+02  0.21797241241E+03  0.23911786096E+03  0.00000000000E+00 0.  1.
         11    1    1    2    0    0  0.37311014023E+01 -0.45910357668E+02  0.56520831255E+02  0.72912868718E+02  0.00000000000E+00 0. -1.
</event>
<event>
 7    1  0.2855090E-009  0.9637916E+02  0.7561462E-02  0.1288100E+00
          1   -1    0    0  501    0  0.00000000000E+00  0.00000000000E+00  0.10276840729E+04  0.10276840729E+04  0.00000000000E+00 0. -1.
         -1   -1    0    0    0  501 -0.00000000000E+00 -0.00000000000E+00 -0.17469727351E+02  0.17469727351E+02  0.00000000000E+00 0.  1.
         25    2    1    2    0    0  0.70385810104E+02 -0.35767556882E+02  0.48225281469E+03  0.50443065251E+03  0.12509606519E+03 0.  0.
          5    1    3    3  502    0  0.76047128191E+01 -0.18692396619E+02  0.39486556967E+03  0.39540299425E+03  0.41800000000E+01 0. -1.
         -5    1    3    3    0  502  0.62781097284E+02 -0.17075160264E+02  0.87387245022E+02  0.10902765827E+03  0.41800000000E+01 0. -1.
        -11    1    1    2    0    0  0.28963419145E+01 -0.16621082475E+02  0.27838129332E+02  0.32551660846E+02  0.00000000000E+00 0.  1.
         11    1    1    2    0    0 -0.73282152018E+02  0.52388639358E+02  0.50012340153E+03  0.50817148690E+03  0.00000000000E+00 0. -1.
</event>
<event>
 7    1  0.2855090E-009  0.9468155E+02  0.7561462E-02  0.1291895E+00
          1   -1    0    0  501    0  0.00000000000E+00  0.00000000000E+00  0.16846206249E+03  0.16846206249E+03  0.00000000000E+00 0. -1.
         -1   -1    0    0    0  501 -0.00000000000E+00 -0.00000000000E+00 -0.88920465625E+02  0.88920465625E+02  0.00000000000E+00 0.  1.
         25    2    1    2    0    0 -0.36782887212E+02  0.25219040460E+02  0.14821783398E+02  0.13361532803E+03  0.12507753527E+03 0.  0.
          5    1    3    3  502    0 -0.83153491711E+02  0.15924663987E+02  0.15290414492E+02  0.86135749153E+02  0.41800000000E+01 0. -1.
         -5    1    3    3    0  502  0.46370604499E+02  0.92943764740E+01 -0.46863109467E+00  0.47479578881E+02  0.41800000000E+01 0. -1.
        -11    1    1    2    0    0  0.31570555137E+02 -0.20958804921E+00 -0.18583560111E+02  0.36634581821E+02  0.00000000000E+00 0.  1.
         11    1    1    2    0    0  0.52123320747E+01 -0.25009452411E+02  0.83303373577E+02  0.87132618260E+02  0.00000000000E+00 0. -1.
</event>
<event>
 7    1  0.2859800E-009  0.1156808E+03  0.7561462E-02  0.1250397E+00
          3   -1    0    0  501    0  0.00000000000E+00  0.00000000000E+00  0.13248441377E+03  0.13248441377E+03  0.00000000000E+00 0. -1.
         -3   -1    0    0    0  501 -0.00000000000E+00 -0.00000000000E+00 -0.14797283716E+03  0.14797283716E+03  0.00000000000E+00 0.  1.
         25    2    1    2    0    0 -0.35052310626E+02  0.80513930761E+02 -0.15652915620E+02  0.15363518928E+03  0.12509036770E+03 0.  0.
          5    1    3    3  502    0 -0.55175945105E+02 -0.48118538312E+01 -0.32375686466E+02  0.64289939568E+02  0.41800000000E+01 0.  1.
         -5    1    3    3    0  502  0.20123634479E+02  0.85325784592E+02  0.16722770846E+02  0.89345249710E+02  0.41800000000E+01 0.  1.
        -11    1    1    2    0    0  0.37377166769E+01 -0.14711156034E+02 -0.40583795417E+02  0.43329355964E+02  0.00000000000E+00 0.  1.
         11    1    1    2    0    0  0.31314593949E+02 -0.65802774727E+02  0.40748287649E+02  0.83492705683E+02  0.00000000000E+00 0. -1.
</event>
<event>
 7    1  0.2855090E-009  0.1002072E+03  0.7561462E-02  0.1279861E+00
         -2   -1    0    0    0  501 -0.00000000000E+00  0.00000000000E+00  0.73554871339E+02  0.73554871339E+02  0.00000000000E+00 0.  1.
          2   -1    0    0  501    0  0.00000000000E+00 -0.00000000000E+00 -0.18176615318E+03  0.18176615318E+03  0.00000000000E+00 0. -1.
         25    2    1    2    0    0 -0.20200681619E+02  0.14595985741E+02 -0.99739122786E+02  0.16192281910E+03  0.12509994561E+03 0.  0.
          5    1    3    3  502    0 -0.65110353188E+02  0.37897436790E+02 -0.70896893955E+02  0.10353461151E+03  0.41800000000E+01 0.  1.
         -5    1    3    3    0  502  0.44909671569E+02 -0.23301451050E+02 -0.28842228831E+02  0.58388207589E+02  0.41800000000E+01 0.  1.
        -11    1    1    2    0    0 -0.26912090942E+01  0.26776599645E+02 -0.30975343281E+02  0.41032923200E+02  0.00000000000E+00 0. -1.
         11    1    1    2    0    0  0.22891890713E+02 -0.41372585385E+02  0.22503184226E+02  0.52365282222E+02  0.00000000000E+00 0.  1.
</event>
<event>
 7    1  0.2855090E-009  0.1276856E+03  0.7561462E-02  0.1230931E+00
          1   -1    0    0  501    0  0.00000000000E+00  0.00000000000E+00  0.75176733462E+02  0.75176733462E+02  0.00000000000E+00 0. -1.
         -1   -1    0    0    0  501 -0.00000000000E+00 -0.00000000000E+00 -0.26152311356E+03  0.26152311356E+03  0.00000000000E+00 0.  1.
         25    2    1    2    0    0 -0.76858350632E+02 -0.42537279768E+02 -0.97026649266E+02  0.18103220611E+03  0.12506743281E+03 0.  0.
          5    1    3    3  502    0 -0.77305621041E+02 -0.70659081951E+02 -0.31253605100E+02  0.10937607206E+03  0.41800000000E+01 0. -1.
         -5    1    3    3    0  502  0.44727040905E+00  0.28121802183E+02 -0.65773044166E+02  0.71656134055E+02  0.41800000000E+01 0. -1.
        -11    1    1    2    0    0  0.87838082638E+02  0.10752922773E+02 -0.42890759934E+02  0.98340080320E+02  0.00000000000E+00 0.  1.
         11    1    1    2    0    0 -0.10979732006E+02  0.31784356996E+02 -0.46428970900E+02  0.57327560592E+02  0.00000000000E+00 0. -1.
</event>
<event>
 7    1  0.2855090E-009  0.1126052E+03  0.7561462E-02  0.1255820E+00
         -4   -1    0    0    0  501 -0.00000000000E+00  0.00000000000E+00  0.91851651153E+02  0.91851651153E+02  0.00000000000E+00 0.  1.
          4   -1    0    0  501    0  0.00000000000E+00 -0.00000000000E+00 -0.38923422471E+03  0.38923422471E+03  0.00000000000E+00 0. -1.
         25    2    1    2    0    0  0.69770024643E+02  0.29564720100E+02 -0.32615993060E+03  0.35744809261E+03  0.12508760757E+03 0.  0.
          5    1    3    3  502    0  0.22185626559E+02 -0.39755440102E+02 -0.45766241371E+02  0.64689398612E+02  0.41800000000E+01 0. -1.
         -5    1    3    3    0  502  0.47584398084E+02  0.69320160202E+02 -0.28039368923E+03  0.29275869400E+03  0.41800000000E+01 0. -1.
        -11    1    1    2    0    0  0.35360680351E+01  0.10980463430E+02  0.37668763757E+02  0.39395559613E+02  0.00000000000E+00 0.  1.
         11    1    1    2    0    0 -0.73306092678E+02 -0.40545183531E+02 -0.88914067182E+01  0.84242223645E+02  0.00000000000E+00 0. -1.
</event>
<event>
 7    1  0.2855090E-009  0.8751054E+02  0.7561462E-02  0.1308995E+00
          3   -1    0    0  501    0  0.00000000000E+00  0.00000000000E+00  0.14386460454E+03  0.14386460454E+03  0.00000000000E+00 0. -1.
         -3   -1    0    0    0  501 -0.00000000000E+00 -0.00000000000E+00 -0.14826183750E+03  0.14826183750E+03  0.00000000000E+00 0.  1.
         25    2    1    2    0    0  0.32888436793E+02  0.40844992658E+02 -0.82517691531E+02  0.15876812981E+03  0.12509271333E+03 0.  0.
          5    1    3    3  502    0  0.62711295853E+02  0.39424567501E+02 -0.99539020540E+02  0.12414705861E+03  0.41800000000E+01 0. -1.
         -5    1    3    3    0  502 -0.29822859060E+02  0.14204251568E+01  0.17021329009E+02  0.34621071205E+02  0.41800000000E+01 0. -1.
        -11    1    1    2    0    0 -0.12234625200E+02 -0.47446010489E+02 -0.32913387643E+01  0.49108480693E+02  0.00000000000E+00 0.  1.
         11    1    1    2    0    0 -0.20653811593E+02  0.66010178308E+01  0.81411797329E+02  0.84249831538E+02  0.00000000000E+00 0. -1.
</event>
<event>
 7    1  0.2855090E-009  0.9139617E+02  0.7561462E-02  0.1299505E+00
         -2   -1    0    0    0  501 -0.00000000000E+00  0.00000000000E+00  0.76460341255E+01  0.76460341255E+01  0.00000000000E+00 0.  1.
          2   -1    0    0  501    0  0.00000000000E+00 -0.00000000000E+00 -0.29216309187E+04  0.29216309187E+04  0.00000000000E+00 0. -1.
         25    2    1    2    0    0  0.28350117643E+01 -0.37162670842E+02 -0.25074945942E+04  0.25108892936E+04  0.12508718203E+03 0.  0.
          5    1    3    3  502    0 -0.14447062579E+02  0.19546412623E+02 -0.11312341221E+03  0.11578064887E+03  0.41800000000E+01 0.  1.
         -5    1    3    3    0  502  0.17282074343E+02 -0.56709083465E+02 -0.23943711820E+04  0.23951086447E+04  0.41800000000E+01 0.  1.
        -11    1    1    2    0    0 -0.39979649518E+02  0.45562233442E+02 -0.26681336605E+03  0.27361224716E+03  0.00000000000E+00 0.  1.
         11    1    1    2    0    0  0.37144637754E+02 -0.83995626002E+01 -0.13967692429E+03  0.14477541208E+03  0.00000000000E+00 0. -1.
</event>
<event>
 7    1  0.2855090E-009  0.1072858E+03  0.7561462E-02  0.1265680E+00
         -1   -1    0    0    0  501 -0.00000000000E+00  0.00000000000E+00  0.43051656667E+02  0.43051656667E+02  0.00000000000E+00 0.  1.
          1   -1    0    0  501    0  0.00000000000E+00 -0.00000000000E+00 -0.27513741316E+03  0.27513741316E+03  0.00000000000E+00 0. -1.
         25    2    1    2    0    0  0.11256270748E+02  0.95172278686E+01 -0.13150674935E+03  0.18209700168E+03  0.12509201269E+03 0.  0.
          5    1    3    3  502    0 -0.22560678864E+02 -0.51208586366E+02 -0.53469908588E+02  0.77510044980E+02  0.41800000000E+01 0. -1.
         -5    1    3    3    0  502  0.33816949612E+02  0.60725814234E+02 -0.78036840762E+02  0.10458695670E+03  0.41800000000E+01 0. -1.
        -11    1    1    2    0    0  0.30210942339E+02 -0.29999335273E+02 -0.65166894509E+02  0.77842053504E+02  0.00000000000E+00 0. -1.
         11    1    1    2    0    0 -0.41467213087E+02  0.20482107405E+02 -0.35412112637E+02  0.58250014647E+02  0.00000000000E+00 0.  1.
</event>
<event>
 7    1  0.2855090E-009  0.1174125E+03  0.7561462E-02  0.1247428E+00
         -2   -1    0    0    0  501 -0.00000000000E+00  0.00000000000E+00  0.10208373470E+02  0.10208373470E+02  0.00000000000E+00 0.  1.
          2   -1    0    0  501    0  0.00000000000E+00 -0.00000000000E+00 -0.19660095021E+04  0.19660095021E+04  0.00000000000E+00 0. -1.
         25    2    1    2    0    0 -0.68492466799E+02 -0.47528484669E+01 -0.14949331036E+04  0.15017279558E+04  0.12509221213E+03 0.  0.
          5    1    3    3  502    0 -0.19169909051E+02  0.58225008711E+02 -0.55616045691E+03  0.55954406732E+03  0.41800000000E+01 0. -1.
         -5    1    3    3    0  502 -0.49322557749E+02 -0.62977857178E+02 -0.93877264668E+03  0.94218388851E+03  0.41800000000E+01 0. -1.
        -11    1    1    2    0    0 -0.11122042121E+02 -0.64887056649E+01 -0.94622692118E+01  0.15979288495E+02  0.00000000000E+00 0.  1.
         11    1    1    2    0    0  0.79614508921E+02  0.11241554132E+02 -0.45140575579E+03  0.45851063120E+03  0.00000000000E+00 0. -1.
</event>
<event>
 7    1  0.2855090E-009  0.1027577E+03  0.7561462E-02  0.1274602E+00
          2   -1    0    0  501    0  0.00000000000E+00  0.00000000000E+00  0.32561077801E+03  0.32561077801E+03  0.00000000000E+00 0.  1.
         -2   -1    0    0    0  501 -0.00000000000E+00 -0.00000000000E+00 -0.44670692508E+02  0.44670692508E+02  0.00000000000E+00 0. -1.
         25    2    1    2    0    0  0.52224539253E+02  0.25581906681E+01  0.15128023094E+03  0.20314372884E+03  0.12509084480E+03 0.  0.
          5    1    3    3  502    0  0.32851490352E+02  0.43533017352E+02  0.14768164017E+03  0.15748550175E+03  0.41800000000E+01 0.  1.
         -5    1    3    3    0  502  0.19373048901E+02 -0.40974826684E+02  0.35985907728E+01  0.45658227091E+02  0.41800000000E+01 0.  1.
        -11    1    1    2    0    0 -0.77908535298E+02  0.62262994772E+01  0.92039799127E+02  0.12074697222E+03  0.00000000000E+00 0.  1.
         11    1    1    2    0    0  0.25683996045E+02 -0.87844901453E+01  0.37620055434E+02  0.46390769457E+02  0.00000000000E+00 0. -1.
</event>
<event>
 7    1  0.2855090E-009  0.1239460E+03  0.7561462E-02  0.1236726E+00
         -2   -1    0    0    0  501 -0.00000000000E+00  0.00000000000E+00  0.40968526888E+02  0.40968526888E+02  0.00000000000E+00 0.  1.
          2   -1    0    0  501    0  0.00000000000E+00 -0.00000000000E+00 -0.58800598300E+03  0.58800598300E+03  0.00000000000E+00 0. -1.
         25    2    1    2    0    0  0.43926897383E+02  0.85175572057E+02 -0.18506542145E+03  0.24306630582E+03  0.12509024111E+03 0.  0.
          5    1    3    3  502    0  0.35300656781E+02 -0.93826871933E+01 -0.12579372920E+03  0.13105611735E+03  0.41800000000E+01 0.  1.
         -5    1    3    3    0  502  0.86262406026E+01  0.94558259251E+02 -0.59271692245E+02  0.11201018847E+03  0.41800000000E+01 0.  1.
        -11    1    1    2    0    0 -0.59674244710E+02 -0.51167552074E+02 -0.32055369009E+03  0.33005121133E+03  0.00000000000E+00 0.  1.
         11    1    1    2    0    0  0.15747347327E+02 -0.34008019984E+02 -0.41418344572E+02  0.55856992741E+02  0.00000000000E+00 0. -1.
</event>
<event>
 7    1  0.2855090E-009  0.8767279E+02  0.7561462E-02  0.1308587E+00
         -1   -1    0    0    0  501 -0.00000000000E+00  0.00000000000E+00  0.29060645880E+03  0.29060645880E+03  0.00000000000E+00 0.  1.
          1   -1    0    0  501    0  0.00000000000E+00 -0.00000000000E+00 -0.61852373618E+02  0.61852373618E+02  0.00000000000E+00 0. -1.
         25    2    1    2    0    0  0.43859328324E+02 -0.17822735629E+02  0.45078525900E+02  0.14113886874E+03  0.12508723430E+03 0.  0.
          5    1    3    3  502    0  0.72029609040E+02  0.22371142022E+02  0.51553544342E+02  0.91454758804E+02  0.41800000000E+01 0. -1.
         -5    1    3    3    0  502 -0.28170280716E+02 -0.40193877651E+02 -0.64750184422E+01  0.49684109935E+02  0.41800000000E+01 0. -1.
        -11    1    1    2    0    0 -0.34227588171E+02  0.21290294943E+02  0.19318632870E+03  0.19734680653E+03  0.00000000000E+00 0.  1.
         11    1    1    2    0    0 -0.96317401527E+01 -0.34675593139E+01 -0.95107694137E+01  0.13973157152E+02  0.00000000000E+00 0. -1.
</event>
<event>
 7    1  0.2855090E-009  0.1227302E+03  0.7561462E-02  0.1238660E+00
          1   -1    0    0  501    0  0.00000000000E+00  0.00000000000E+00  0.40307290655E+03  0.40307290655E+03  0.00000000000E+00 0. -1.
         -1   -1    0    0    0  501 -0.00000000000E+00 -0.00000000000E+00 -0.45765171592E+02  0.45765171592E+02  0.00000000000E+00 0.  1.
         25    2    1    2    0    0 -0.53286295842E+02 -0.34773582314E+02  0.28183671042E+03  0.31484605595E+03  0.12508987272E+03 0.  0.
          5    1    3    3  502    0  0.28412284871E+02  0.21254953933E+02  0.11850641218E+03  0.12377509090E+03  0.41800000000E+01 0. -1.
         -5    1    3    3    0  502 -0.81698580713E+02 -0.56028536247E+02  0.16333029824E+03  0.19107096505E+03  0.41800000000E+01 0. -1.
        -11    1    1    2    0    0  0.78992927646E+02  0.29603067554E+02  0.54694238509E+02  0.10053697804E+03  0.00000000000E+00 0.  1.
         11    1    1    2    0    0 -0.25706631804E+02  0.51705147604E+01  0.20776786029E+02  0.33455044153E+02  0.00000000000E+00 0. -1.
</event>
<event>
 7    1  0.2855090E-009  0.9071572E+02  0.7561462E-02  0.1301128E+00
         -1   -1    0    0    0  501 -0.00000000000E+00  0.00000000000E+00  0.48599874750E+02  0.48599874750E+02  0.00000000000E+00 0.  1.
          1   -1    0    0  501    0  0.00000000000E+00 -0.00000000000E+00 -0.30298011703E+03  0.30298011703E+03  0.00000000000E+00 0. -1.
         25    2    1    2    0    0  0.26756527165E+02  0.30836912043E+02 -0.99853309367E+02  0.16518468277E+03  0.12509384133E+03 0.  0.
          5    1    3    3  502    0  0.46715398039E+02  0.49177223879E+02 -0.69431753754E+01  0.68311110712E+02  0.41800000000E+01 0. -1.
         -5    1    3    3    0  502 -0.19958870874E+02 -0.18340311836E+02 -0.92910133991E+02  0.96873572057E+02  0.41800000000E+01 0. -1.
        -11    1    1    2    0    0 -0.19148835076E+02  0.23990251603E+02 -0.11071070958E+02  0.32630946491E+02  0.00000000000E+00 0.  1.
         11    1    1    2    0    0 -0.76076920889E+01 -0.54827163646E+02 -0.14345586195E+03  0.15376436252E+03  0.00000000000E+00 0. -1.
</event>
<event>
 7    1  0.2855090E-009  0.1606368E+03  0.7561462E-02  0.1187980E+00
          1   -1    0    0  501    0  0.00000000000E+00  0.00000000000E+00  0.11114306415E+04  0.11114306415E+04  0.00000000000E+00 0. -1.
         -1   -1    0    0    0  501 -0.00000000000E+00 -0.00000000000E+00 -0.32677696249E+02  0.32677696249E+02  0.00000000000E+00 0.  1.
         25    2    1    2    0    0 -0.11395315494E+03  0.10810673204E+03  0.55080765172E+03  0.58626736648E+03  0.12509184135E+03 0.  0.
          5    1    3    3  502    0 -0.19524854239E+02  0.63807420238E+01  0.29034804746E+03  0.29110375275E+03  0.41800000000E+01 0.  1.
         -5    1    3    3    0  502 -0.94428300697E+02  0.10172599002E+03  0.26045960427E+03  0.29516361373E+03  0.41800000000E+01 0.  1.
        -11    1    1    2    0    0  0.32264355903E+02 -0.55781794132E+02  0.34296240177E+03  0.34896390393E+03  0.00000000000E+00 0.  1.
         11    1    1    2    0    0  0.81688799033E+02 -0.52324937912E+02  0.18498289174E+03  0.20887706731E+03  0.00000000000E+00 0. -1.
</event>
<event>
 7    1  0.2855090E-009  0.1766120E+03  0.7561462E-02  0.1171123E+00
          2   -1    0    0  501    0  0.00000000000E+00  0.00000000000E+00  0.27795249678E+04  0.27795249678E+04  0.00000000000E+00 0.  1.
         -2   -1    0    0    0  501 -0.00000000000E+00 -0.00000000000E+00 -0.16033139488E+02  0.16033139488E+02  0.00000000000E+00 0. -1.
         25    2    1    2    0    0 -0.42272648699E+02 -0.15069146012E+03  0.20185743201E+04  0.20284931416E+04  0.12508895579E+03 0.  0.
          5    1    3    3  502    0  0.28271019040E+01 -0.12187203344E+03  0.17694966778E+04  0.17736957885E+04  0.41800000000E+01 0. -1.
         -5    1    3    3    0  502 -0.45099750603E+02 -0.28819426676E+02  0.24907764232E+03  0.25479735313E+03  0.41800000000E+01 0. -1.
        -11    1    1    2    0    0 -0.17988871635E+02  0.90933714545E+02  0.48057434191E+03  0.48943256741E+03  0.00000000000E+00 0.  1.
         11    1    1    2    0    0  0.60261520334E+02  0.59757745574E+02  0.26434316632E+03  0.27763239827E+03  0.00000000000E+00 0. -1.
</event>
<event>
 7    1  0.2855090E-009  0.1227643E+03  0.7561462E-02  0.1238605E+00
          3   -1    0    0  501    0  0.00000000000E+00  0.00000000000E+00  0.17853400804E+03  0.17853400804E+03  0.00000000000E+00 0. -1.
         -3   -1    0    0    0  501 -0.00000000000E+00 -0.00000000000E+00 -0.10829298463E+03  0.10829298463E+03  0.00000000000E+00 0.  1.
         25    2    1    2    0    0 -0.53056847175E+02  0.54216583997E+02  0.70687257403E+02  0.16245955242E+03  0.12506778483E+03 0.  0.
          5    1    3    3  502    0  0.24190000333E+02 -0.39057573253E+01 -0.18404992666E+02  0.30929390738E+02  0.41800000000E+01 0.  1.
         -5    1    3    3    0  502 -0.77246847508E+02  0.58122341322E+02  0.89092250069E+02  0.13153016169E+03  0.41800000000E+01 0.  1.
        -11    1    1    2    0    0  0.73550816478E+02 -0.67218549189E+02 -0.45923982714E+01  0.99745406318E+02  0.00000000000E+00 0.  1.
         11    1    1    2    0    0 -0.20493969303E+02  0.13001965192E+02  0.41461642838E+01  0.24622033931E+02  0.00000000000E+00 0. -1.
</event>
<event>
 7    1  0.3276246E-009  0.1398679E+03  0.7561462E-02  0.1213507E+00
         -2   -1    0    0    0  501 -0.00000000000E+00  0.00000000000E+00  0.12374233902E+02  0.12374233902E+02  0.00000000000E+00 0.  1.
          2   -1    0    0  501    0  0.00000000000E+00 -0.00000000000E+00 -0.17040976527E+04  0.17040976527E+04  0.00000000000E+00 0. -1.
         25    2    1    2    0    0 -0.76429626314E+02  0.56115474402E+02 -0.10385051001E+04  0.10503006950E+04  0.12509305628E+03 0.  0.
          5    1    3    3  502    0 -0.11230695576E+02 -0.36350405004E+02 -0.40078486919E+03  0.40260832609E+03  0.41800000000E+01 0. -1.
         -5    1    3    3    0  502 -0.65198930737E+02  0.92465879406E+02 -0.63772023092E+03  0.64769236891E+03  0.41800000000E+01 0. -1.
        -11    1    1    2    0    0  0.18577566414E+02  0.23419704961E+02 -0.10376317590E+03  0.10798335625E+03  0.00000000000E+00 0.  1.
         11    1    1    2    0    0  0.57852059900E+02 -0.79535179363E+02 -0.54945514279E+03  0.55818783534E+03  0.00000000000E+00 0. -1.
</event>
<event>
 7    1  0.2855090E-009  0.1589543E+03  0.7561462E-02  0.1189882E+00
         -2   -1    0    0    0  501 -0.00000000000E+00  0.00000000000E+00  0.20464861375E+03  0.20464861375E+03  0.00000000000E+00 0.  1.
          2   -1    0    0  501    0  0.00000000000E+00 -0.00000000000E+00 -0.14052353334E+03  0.14052353334E+03  0.00000000000E+00 0. -1.
         25    2    1    2    0    0  0.46997334264E+02 -0.11881125931E+03  0.22675633628E+02  0.18023951334E+03  0.12508890056E+03 0.  0.
          5    1    3    3  502    0  0.86130465607E+02 -0.97394139610E+02  0.13419353281E+00  0.13008291949E+03  0.41800000000E+01 0.  1.
         -5    1    3    3    0  502 -0.39133131343E+02 -0.21417119704E+02  0.22541440096E+02  0.50156593851E+02  0.41800000000E+01 0.  1.
        -11    1    1    2    0    0 -0.17359765885E+02 -0.30331334482E+01  0.35217632349E+02  0.39380744005E+02  0.00000000000E+00 0.  1.
         11    1    1    2    0    0 -0.29637568379E+02  0.12184439276E+03  0.62318144346E+01  0.12555188974E+03  0.00000000000E+00 0. -1.
</event>
<event>
 7    1  0.2855090E-009  0.1008885E+03  0.7561462E-02  0.1278439E+00
          1   -1    0    0  501    0  0.00000000000E+00  0.00000000000E+00  0.61457687644E+02  0.61457687644E+02  0.00000000000E+00 0. -1.
         -1   -1    0    0    0  501 -0.00000000000E+00 -0.00000000000E+00 -0.36332413053E+03  0.36332413053E+03  0.00000000000E+00 0.  1.
         25    2    1    2    0    0  0.55464508443E+02  0.24807811333E+02 -0.45992780707E+02  0.14647291403E+03  0.12508892624E+03 0.  0.
          5    1    3    3  502    0  0.57305370095E+02  0.63882904354E+02 -0.59906921203E+02  0.10474369918E+03  0.41800000000E+01 0.  1.
         -5    1    3    3    0  502 -0.18408616517E+01 -0.39075093021E+02  0.13914140496E+02  0.41729214850E+02  0.41800000000E+01 0.  1.
        -11    1    1    2    0    0 -0.65651849430E+01 -0.26782772261E+02 -0.12878859462E+02  0.30434907005E+02  0.00000000000E+00 0. -1.
         11    1    1    2    0    0 -0.48899323500E+02  0.19749609285E+01 -0.24299480272E+03  0.24787399714E+03  0.00000000000E+00 0.  1.
</event>
<event>
 7    1  0.2855090E-009  0.5832045E+02  0.7561462E-02  0.1405018E+00
         -1   -1    0    0    0  501 -0.00000000000E+00  0.00000000000E+00  0.90251985667E+02  0.90251985667E+02  0.00000000000E+00 0.  1.
          1   -1    0    0  501    0  0.00000000000E+00 -0.00000000000E+00 -0.15559919300E+03  0.15559919300E+03  0.00000000000E+00 0. -1.
         25    2    1    2    0    0  0.11834790155E+01  0.37445466684E+02 -0.70045574033E+01  0.13076527708E+03  0.12508769031E+03 0.  0.
          5    1    3    3  502    0  0.66519694808E+01  0.28587014616E+02 -0.65133708369E+02  0.71563527502E+02  0.41800000000E+01 0.  1.
         -5    1    3    3    0  502 -0.54684904653E+01  0.88584520686E+01  0.58129150966E+02  0.59201749577E+02  0.41800000000E+01 0.  1.
        -11    1    1    2    0    0 -0.32047068654E+02 -0.78041739320E+01  0.99871841664E+01  0.34462495378E+02  0.00000000000E+00 0.  1.
         11    1    1    2    0    0  0.30863589639E+02 -0.29641292752E+02 -0.68329834100E+02  0.80623406214E+02  0.00000000000E+00 0. -1.
</event>
<event>
 7    1  0.2855090E-009  0.1145211E+03  0.7561462E-02  0.1252419E+00
          1   -1    0    0  501    0  0.00000000000E+00  0.00000000000E+00  0.13417216779E+03  0.13417216779E+03  0.00000000000E+00 0. -1.
         -1   -1    0    0    0  501 -0.00000000000E+00 -0.00000000000E+00 -0.21013691093E+03  0.21013691093E+03  0.00000000000E+00 0.  1.
         25    2    1    2    0    0  0.52258647490E+02 -0.70117940611E+02 -0.13704669512E+03  0.20512719669E+03  0.12509147990E+03 0.  0.
          5    1    3    3  502    0 -0.11422258330E+02  0.10800710865E+01 -0.10286566460E+03  0.10358789453E+03  0.41800000000E+01 0. -1.
         -5    1    3    3    0  502  0.63680905821E+02 -0.71198011698E+02 -0.34181030523E+02  0.10153930216E+03  0.41800000000E+01 0. -1.
        -11    1    1    2    0    0  0.22405857347E+02  0.70700096497E+01  0.26750949055E+02  0.35603662104E+02  0.00000000000E+00 0. -1.
         11    1    1    2    0    0 -0.74664504837E+02  0.63047930962E+02  0.34331002933E+02  0.10357821993E+03  0.00000000000E+00 0.  1.
</event>
<event>
 7    1  0.2855090E-009  0.1456114E+03  0.7561462E-02  0.1205972E+00
         -1   -1    0    0    0  501 -0.00000000000E+00  0.00000000000E+00  0.86374192135E+02  0.86374192135E+02  0.00000000000E+00 0.  1.
          1   -1    0    0  501    0  0.00000000000E+00 -0.00000000000E+00 -0.35657597726E+03  0.35657597726E+03  0.00000000000E+00 0. -1.
         25    2    1    2    0    0  0.97047562801E+02 -0.83673638257E+02 -0.78636401776E+02  0.19557931867E+03  0.12509228202E+03 0.  0.
          5    1    3    3  502    0  0.85646331524E+02 -0.81082343435E+01 -0.82065745320E+02  0.11896762804E+03  0.41800000000E+01 0.  1.
         -5    1    3    3    0  502  0.11401231277E+02 -0.75565403913E+02  0.34293435432E+01  0.76611690625E+02  0.41800000000E+01 0.  1.
        -11    1    1    2    0    0 -0.40330182094E+02  0.41581460784E+02 -0.19086180421E+02  0.60990357858E+02  0.00000000000E+00 0.  1.
         11    1    1    2    0    0 -0.56717380707E+02  0.42092177473E+02 -0.17247920293E+03  0.18638049287E+03  0.00000000000E+00 0. -1.
</event>
<event>
 7    1  0.2855090E-009  0.8703645E+02  0.7561462E-02  0.1310191E+00
          1   -1    0    0  501    0  0.00000000000E+00  0.00000000000E+00  0.38295101254E+03  0.38295101254E+03  0.00000000000E+00 0. -1.
         -1   -1    0    0    0  501 -0.00000000000E+00 -0.00000000000E+00 -0.38634297217E+02  0.38634297217E+02  0.00000000000E+00 0.  1.
         25    2    1    2    0    0  0.33098345740E+02  0.10136119989E+02  0.11821243780E+03  0.17555805306E+03  0.12509279805E+03 0.  0.
          5    1    3    3  502    0  0.61131199552E+02  0.13644917436E+02  0.99085794726E+01  0.63552023396E+02  0.41800000000E+01 0.  1.
         -5    1    3    3    0  502 -0.28032853812E+02 -0.35087974467E+01  0.10830385833E+03  0.11200602967E+03  0.41800000000E+01 0.  1.
        -11    1    1    2    0    0 -0.48732483706E+02 -0.30178377805E+02  0.84165235723E+02  0.10183013483E+03  0.00000000000E+00 0.  1.
         11    1    1    2    0    0  0.15634137965E+02  0.20042257816E+02  0.14193904179E+03  0.14419712186E+03  0.00000000000E+00 0. -1.
</event>
<event>
 7    1  0.2855090E-009  0.1036082E+03  0.7561462E-02  0.1272886E+00
          1   -1    0    0  501    0  0.00000000000E+00  0.00000000000E+00  0.20549206737E+03  0.20549206737E+03  0.00000000000E+00 0. -1.
         -1   -1    0    0    0  501 -0.00000000000E+00 -0.00000000000E+00 -0.63838921746E+02  0.63838921746E+02  0.00000000000E+00 0.  1.
         25    2    1    2    0    0  0.21935690803E+02  0.22455099020E+02  0.10041034048E+03  0.16344860143E+03  0.12509117807E+03 0.  0.
          5    1    3    3  502    0 -0.44764646339E+02  0.34493661171E+01  0.78615907331E+02  0.90629492849E+02  0.41800000000E+01 0. -1.
         -5    1    3    3    0  502  0.66700337142E+02  0.19005732903E+02  0.21794433147E+02  0.72819108579E+02  0.41800000000E+01 0. -1.
        -11    1    1    2    0    0  0.10508214018E+02 -0.49378138782E+02  0.58229882809E+01  0.50818602341E+02  0.00000000000E+00 0.  1.
         11    1    1    2    0    0 -0.32443904821E+02  0.26923039762E+02  0.35419816865E+02  0.55063785348E+02  0.00000000000E+00 0. -1.
</event>
<event>
 7    1  0.2855090E-009  0.1423084E+03  0.7561462E-02  0.1210256E+00
         -4   -1    0    0    0  501 -0.00000000000E+00  0.00000000000E+00  0.66311256497E+03  0.66311256497E+03  0.00000000000E+00 0.  1.
          4   -1    0    0  501    0  0.00000000000E+00 -0.00000000000E+00 -0.33278950843E+02  0.33278950843E+02  0.00000000000E+00 0. -1.
         25    2    1    2    0    0  0.10344816522E+03  0.18013847264E+02  0.37138815644E+03  0.40571232518E+03  0.12508919411E+03 0.  0.
          5    1    3    3  502    0  0.12605605542E+03  0.21800358000E+01  0.34484131537E+03  0.36718917039E+03  0.41800000000E+01 0.  1.
         -5    1    3    3    0  502 -0.22607890198E+02  0.15833811464E+02  0.26546841061E+02  0.38523154790E+02  0.41800000000E+01 0.  1.
        -11    1    1    2    0    0 -0.13237588911E+01 -0.27921531541E+02  0.81217044265E+02  0.85892796789E+02  0.00000000000E+00 0.  1.
         11    1    1    2    0    0 -0.10212440633E+03  0.99076842766E+01  0.17722841343E+03  0.20478639384E+03  0.00000000000E+00 0. -1.
</event>
<event>
 7    1  0.2855090E-009  0.1104677E+03  0.7561462E-02  0.1259706E+00
          3   -1    0    0  501    0  0.00000000000E+00  0.00000000000E+00  0.44670990572E+03  0.44670990572E+03  0.00000000000E+00 0. -1.
         -3   -1    0    0    0  501 -0.00000000000E+00 -0.00000000000E+00 -0.43937505507E+02  0.43937505507E+02  0.00000000000E+00 0.  1.
         25    2    1    2    0    0 -0.65173088827E+01  0.27623525505E+02  0.36405199122E+03  0.38599020717E+03  0.12509617599E+03 0.  0.
          5    1    3    3  502    0  0.71300938247E+01  0.76589865944E+02  0.23037136181E+03  0.24291002973E+03  0.41800000000E+01 0.  1.
         -5    1    3    3    0  502 -0.13647402707E+02 -0.48966340439E+02  0.13368062941E+03  0.14308017744E+03  0.41800000000E+01 0.  1.
        -11    1    1    2    0    0 -0.56586668855E+01  0.31768898998E+02 -0.81270732354E+00  0.32279156552E+02  0.00000000000E+00 0.  1.
         11    1    1    2    0    0  0.12175975768E+02 -0.59392424504E+02  0.39533116314E+02  0.72378047500E+02  0.00000000000E+00 0. -1.
</event>
<event>
 7    1  0.2855090E-009  0.8864289E+02  0.7561462E-02  0.1306172E+00
         -1   -1    0    0    0  501 -0.00000000000E+00  0.00000000000E+00  0.78949551422E+02  0.78949551422E+02  0.00000000000E+00 0.  1.
          1   -1    0    0  501    0  0.00000000000E+00 -0.00000000000E+00 -0.21962814601E+03  0.21962814601E+03  0.00000000000E+00 0. -1.
         25    2    1    2    0    0 -0.40161347348E+02  0.60139376644E+02 -0.91309809720E+02  0.17092233730E+03  0.12508911060E+03 0.  0.
          5    1    3    3  502    0 -0.62707262107E+02  0.43552915188E+02 -0.11989640813E+01  0.76472001786E+02  0.41800000000E+01 0.  1.
         -5    1    3    3    0  502  0.22545914759E+02  0.16586461457E+02 -0.90110845639E+02  0.94450335509E+02  0.41800000000E+01 0.  1.
        -11    1    1    2    0    0  0.27226682008E+02 -0.45153742465E+02 -0.77208582758E+02  0.93495015500E+02  0.00000000000E+00 0. -1.
         11    1    1    2    0    0  0.12934665340E+02 -0.14985634180E+02  0.27839797890E+02  0.34160344638E+02  0.00000000000E+00 0.  1.
</event>
<event>
 7    1  0.3053808E-009  0.1612907E+03  0.7561462E-02  0.1187247E+00
         -2   -1    0    0    0  501 -0.00000000000E+00  0.00000000000E+00  0.23219621838E+02  0.23219621838E+02  0.00000000000E+00 0.  1.
          2   -1    0    0  501    0  0.00000000000E+00 -0.00000000000E+00 -0.11823177496E+04  0.11823177496E+04  0.00000000000E+00 0. -1.
         25    2    1    2    0    0 -0.62703037796E+02  0.10754370800E+03 -0.63209906136E+03  0.65627256666E+03  0.12508852184E+03 0.  0.
          5    1    3    3  502    0 -0.89882395187E+02  0.11486236198E+03 -0.48610146283E+03  0.50752764627E+03  0.41800000000E+01 0.  1.
         -5    1    3    3    0  502  0.27179357391E+02 -0.73186539827E+01 -0.14599759854E+03  0.14874492039E+03  0.41800000000E+01 0.  1.
        -11    1    1    2    0    0  0.50829616732E+02 -0.12382101746E+02 -0.11641657797E+03  0.12763144600E+03  0.00000000000E+00 0.  1.
         11    1    1    2    0    0  0.11873421064E+02 -0.95161606251E+02 -0.41058248840E+03  0.42163335875E+03  0.00000000000E+00 0. -1.
</event>
<event>
 7    1  0.2855090E-009  0.1051393E+03  0.7561462E-02  0.1269845E+00
         -1   -1    0    0    0  501 -0.00000000000E+00  0.00000000000E+00  0.36674287437E+02  0.36674287437E+02  0.00000000000E+00 0.  1.
          1   -1    0    0  501    0  0.00000000000E+00 -0.00000000000E+00 -0.43172261886E+03  0.43172261886E+03  0.00000000000E+00 0. -1.
         25    2    1    2    0    0 -0.29314414585E+02  0.46706418880E+02 -0.15973233198E+03  0.21024860938E+03  0.12509690403E+03 0.  0.
          5    1    3    3  502    0  0.19988514286E+02  0.76172739729E+02 -0.98670022710E+02  0.12631339107E+03  0.41800000000E+01 0.  1.
         -5    1    3    3    0  502 -0.49302928872E+02 -0.29466320849E+02 -0.61062309271E+02  0.83935218313E+02  0.41800000000E+01 0.  1.
        -11    1    1    2    0    0  0.25865052004E+02  0.11075248513E+01 -0.99416489826E+01  0.27732001568E+02  0.00000000000E+00 0.  1.
         11    1    1    2    0    0  0.34493625814E+01 -0.47813943731E+02 -0.22537435045E+03  0.23041629534E+03  0.00000000000E+00 0. -1.
</event>
<event>
 7    1  0.2855090E-009  0.9501768E+02  0.7561462E-02  0.1291136E+00
          2   -1    0    0  501    0  0.00000000000E+00  0.00000000000E+00  0.48520078030E+03  0.48520078030E+03  0.00000000000E+00 0. -1.
         -2   -1    0    0    0  501 -0.00000000000E+00 -0.00000000000E+00 -0.25015370852E+02  0.25015370852E+02  0.00000000000E+00 0.  1.
         25    2    1    2    0    0 -0.13373138960E+02  0.10060400876E+02  0.25491898386E+03  0.28444986886E+03  0.12509191441E+03 0.  0.
          5    1    3    3  502    0  0.27804279560E+02 -0.28366827030E+02  0.23720386667E+02  0.46453029840E+02  0.41800000000E+01 0.  1.
         -5    1    3    3    0  502 -0.41177418521E+02  0.38427227907E+02  0.23119859719E+03  0.23799683902E+03  0.41800000000E+01 0.  1.
        -11    1    1    2    0    0  0.14155828817E+02  0.40576388305E+02  0.10444045586E+03  0.11293644052E+03  0.00000000000E+00 0.  1.
         11    1    1    2    0    0 -0.78268985692E+00 -0.50636789181E+02  0.10082596973E+03  0.11282984177E+03  0.00000000000E+00 0. -1.
</event>
<event>
 7    1  0.2855090E-009  0.2312356E+03  0.7561462E-02  0.1125773E+00
          2   -1    0    0  501    0  0.00000000000E+00  0.00000000000E+00  0.15393744438E+04  0.15393744438E+04  0.00000000000E+00 0. -1.
         -2   -1    0    0    0  501 -0.00000000000E+00 -0.00000000000E+00 -0.40585697506E+02  0.40585697506E+02  0.00000000000E+00 0.  1.
         25    2    1    2    0    0 -0.96679311672E+02  0.18576540046E+03  0.10334027978E+04  0.10618009160E+04  0.12507665390E+03 0.  0.
          5    1    3    3  502    0 -0.42969091159E+02  0.17496311720E+03  0.89356362817E+03  0.91155464190E+03  0.41800000000E+01 0. -1.
         -5    1    3    3    0  502 -0.53710220514E+02  0.10802283255E+02  0.13983916961E+03  0.15024627406E+03  0.41800000000E+01 0. -1.
        -11    1    1    2    0    0  0.94641465389E+02 -0.87075973297E+02  0.24596387786E+03  0.27755623090E+03  0.00000000000E+00 0.  1.
         11    1    1    2    0    0  0.20378462829E+01 -0.98689427161E+02  0.21942207066E+03  0.24060299446E+03  0.00000000000E+00 0. -1.
</event>
<event>
 7    1  0.2855090E-009  0.9048182E+02  0.7561462E-02  0.1301689E+00
         -2   -1    0    0    0  501 -0.00000000000E+00  0.00000000000E+00  0.14466326978E+03  0.14466326978E+03  0.00000000000E+00 0.  1.
          2   -1    0    0  501    0  0.00000000000E+00 -0.00000000000E+00 -0.93449919889E+02  0.93449919889E+02  0.00000000000E+00 0. -1.
         25    2    1    2    0    0  0.20655990748E+02 -0.28966168669E+02  0.90732321273E+01  0.13036636650E+03  0.12508939640E+03 0.  0.
          5    1    3    3  502    0 -0.31682761277E+02 -0.56889935526E+02 -0.13721476463E+02  0.66678433115E+02  0.41800000000E+01 0.  1.
         -5    1    3    3    0  502  0.52338752025E+02  0.27923766858E+02  0.22794708591E+02  0.63687933385E+02  0.41800000000E+01 0.  1.
        -11    1    1    2    0    0  0.98745707906E+01  0.23144192749E+02 -0.23934113099E+02  0.34727547799E+02  0.00000000000E+00 0. -1.
         11    1    1    2    0    0 -0.30530561539E+02  0.58219759191E+01  0.66074230861E+02  0.73019275368E+02  0.00000000000E+00 0.  1.
</event>
<event>
 7    1  0.2855090E-009  0.1117127E+03  0.7561462E-02  0.1257431E+00
          1   -1    0    0  501    0  0.00000000000E+00  0.00000000000E+00  0.91386583912E+03  0.91386583912E+03  0.00000000000E+00 0. -1.
         -1   -1    0    0    0  501 -0.00000000000E+00 -0.00000000000E+00 -0.33237077528E+02  0.33237077528E+02  0.00000000000E+00 0.  1.
         25    2    1    2    0    0  0.20193058265E+02  0.61167135618E+02  0.78680647013E+03  0.79928622354E+03  0.12507944523E+03 0.  0.
          5    1    3    3  502    0 -0.28692824877E+02  0.54542514618E+02  0.17691977984E+03  0.18739328963E+03  0.41800000000E+01 0.  1.
         -5    1    3    3    0  502  0.48885883143E+02  0.66246210005E+01  0.60988669029E+03  0.61189293391E+03  0.41800000000E+01 0.  1.
        -11    1    1    2    0    0  0.33803878357E+02 -0.43997555034E+02  0.60473002354E+02  0.82069915649E+02  0.00000000000E+00 0.  1.
         11    1    1    2    0    0 -0.53996936622E+02 -0.17169580584E+02  0.33349289103E+02  0.65746777454E+02  0.00000000000E+00 0. -1.
</event>
<event>
 7    1  0.2855090E-009  0.9263306E+02  0.7561462E-02  0.1296598E+00
         -2   -1    0    0    0  501 -0.00000000000E+00  0.00000000000E+00  0.39603420236E+02  0.39603420236E+02  0.00000000000E+00 0. -1.
          2   -1    0    0  501    0  0.00000000000E+00 -0.00000000000E+00 -0.53185189892E+03  0.53185189892E+03  0.00000000000E+00 0.  1.
         25    2    1    2    0    0  0.57632133923E+02  0.39307924086E+01 -0.42091855760E+03  0.44289622736E+03  0.12509085534E+03 0.  0.
          5    1    3    3  502    0  0.52635727008E+02 -0.17725948361E+02 -0.41605157955E+03  0.41976316923E+03  0.41800000000E+01 0. -1.
         -5    1    3    3    0  502  0.49964069156E+01  0.21656740769E+02 -0.48669780503E+01  0.23133058124E+02  0.41800000000E+01 0. -1.
        -11    1    1    2    0    0 -0.18279002954E+02  0.42395764635E+02 -0.30394217716E+02  0.55275051140E+02  0.00000000000E+00 0.  1.
         11    1    1    2    0    0 -0.39353130969E+02 -0.46326557043E+02 -0.40935703372E+02  0.73284040657E+02  0.00000000000E+00 0. -1.
</event>
<event>
 7    1  0.2855090E-009  0.1587214E+03  0.7561462E-02  0.1190148E+00
          2   -1    0    0  501    0  0.00000000000E+00  0.00000000000E+00  0.20017902965E+03  0.20017902965E+03  0.00000000000E+00 0. -1.
         -2   -1    0    0    0  501 -0.00000000000E+00 -0.00000000000E+00 -0.14830019954E+03  0.14830019954E+03  0.00000000000E+00 0.  1.
         25    2    1    2    0    0  0.37103112322E+02  0.11765924725E+03 -0.24680906730E+02  0.17742197589E+03  0.12509624680E+03 0.  0.
          5    1    3    3  502    0  0.30766786751E+02 -0.18636892002E+02 -0.18765322035E+02  0.40786500482E+02  0.41800000000E+01 0. -1.
         -5    1    3    3    0  502  0.63363255712E+01  0.13629613926E+03 -0.59155846951E+01  0.13663547541E+03  0.41800000000E+01 0. -1.
        -11    1    1    2    0    0  0.23262588435E+02 -0.25143256784E+02 -0.37831568318E+01  0.34462206227E+02  0.00000000000E+00 0.  1.
         11    1    1    2    0    0 -0.60365700757E+02 -0.92515990469E+02  0.80342893672E+02  0.13659504707E+03  0.00000000000E+00 0. -1.
</event>
<event>
 7    1  0.2855090E-009  0.1162999E+03  0.7561462E-02  0.1249329E+00
         -2   -1    0    0    0  501 -0.00000000000E+00  0.00000000000E+00  0.45362972796E+02  0.45362972796E+02  0.00000000000E+00 0. -1.
          2   -1    0    0  501    0  0.00000000000E+00 -0.00000000000E+00 -0.37728660781E+03  0.37728660781E+03  0.00000000000E+00 0.  1.
         25    2    1    2    0    0  0.32133286350E+02  0.63818584302E+02 -0.15739983009E+03  0.21337107017E+03  0.12508855775E+03 0.  0.
          5    1    3    3  502    0  0.49755214503E+02  0.94155974577E+02 -0.10108249436E+03  0.14688795725E+03  0.41800000000E+01 0. -1.
         -5    1    3    3    0  502 -0.17621928154E+02 -0.30337390275E+02 -0.56317335727E+02  0.66483112923E+02  0.41800000000E+01 0. -1.
        -11    1    1    2    0    0  0.12875543040E+02 -0.34885318071E+02 -0.13438564702E+02  0.39539348082E+02  0.00000000000E+00 0. -1.
         11    1    1    2    0    0 -0.45008829390E+02 -0.28933266230E+02 -0.16108524022E+03  0.16973916235E+03  0.00000000000E+00 0.  1.
</event>
<event>
 7    1  0.2855090E-009  0.2918879E+03  0.7561462E-02  0.1089368E+00
          1   -1    0    0  501    0  0.00000000000E+00  0.00000000000E+00  0.95273631999E+02  0.95273631999E+02  0.00000000000E+00 0. -1.
         -1   -1    0    0    0  501 -0.00000000000E+00 -0.00000000000E+00 -0.99029989709E+03  0.99029989709E+03  0.00000000000E+00 0.  1.
         25    2    1    2    0    0 -0.23781060111E+03 -0.15066971220E+03 -0.35880679103E+03  0.47291107489E+03  0.12508927727E+03 0.  0.
          5    1    3    3  502    0 -0.19148096446E+03 -0.86631401075E+02 -0.17766387121E+03  0.27523059957E+03  0.41800000000E+01 0.  1.
         -5    1    3    3    0  502 -0.46329636650E+02 -0.64038311121E+02 -0.18114291982E+03  0.19768047532E+03  0.41800000000E+01 0.  1.
        -11    1    1    2    0    0  0.15204281638E+03  0.45492300596E+02 -0.25393794670E+03  0.29945124511E+03  0.00000000000E+00 0.  1.
         11    1    1    2    0    0  0.85767784737E+02  0.10517741160E+03 -0.28228152736E+03  0.31321120909E+03  0.00000000000E+00 0. -1.
</event>
<event>
 7    1  0.2855090E-009  0.1172388E+03  0.7561462E-02  0.1247723E+00
          1   -1    0    0  501    0  0.00000000000E+00  0.00000000000E+00  0.75839762308E+02  0.75839762308E+02  0.00000000000E+00 0. -1.
         -1   -1    0    0    0  501 -0.00000000000E+00 -0.00000000000E+00 -0.25087921249E+03  0.25087921249E+03  0.00000000000E+00 0.  1.
         25    2    1    2    0    0 -0.78200995392E+02  0.26848872159E+02 -0.11934322082E+03  0.19164249620E+03  0.12509110431E+03 0.  0.
          5    1    3    3  502    0 -0.77074686254E+02 -0.25399811381E+02 -0.11248807991E+03  0.13876850580E+03  0.41800000000E+01 0.  1.
         -5    1    3    3    0  502 -0.11263091383E+01  0.52248683540E+02 -0.68551409097E+01  0.52873990400E+02  0.41800000000E+01 0.  1.
        -11    1    1    2    0    0  0.52827300633E+02  0.12203686194E+02 -0.67939821545E+02  0.86922223858E+02  0.00000000000E+00 0.  1.
         11    1    1    2    0    0  0.25373694759E+02 -0.39052558353E+02  0.12243592188E+02  0.48154254737E+02  0.00000000000E+00 0. -1.
</event>
<event>
 7    1  0.2855090E-009  0.7681539E+02  0.7561462E-02  0.1338340E+00
         -2   -1    0    0    0  501 -0.00000000000E+00  0.00000000000E+00  0.17031971284E+02  0.17031971284E+02  0.00000000000E+00 0. -1.
          2   -1    0    0  501    0  0.00000000000E+00 -0.00000000000E+00 -0.75961958219E+03  0.75961958219E+03  0.00000000000E+00 0.  1.
         25    2    1    2    0    0  0.20274247576E+02 -0.24606540387E+02 -0.36255274208E+03  0.38485170609E+03  0.12509923242E+03 0.  0.
          5    1    3    3  502    0  0.22094686934E+01 -0.38075181321E+02 -0.23431018685E+02  0.44956492536E+02  0.41800000000E+01 0. -1.
         -5    1    3    3    0  502  0.18064778882E+02  0.13468640933E+02 -0.33912172339E+03  0.33989521356E+03  0.41800000000E+01 0. -1.
        -11    1    1    2    0    0 -0.25492550378E+02 -0.28927792697E+02 -0.11286838270E+03  0.11927262522E+03  0.00000000000E+00 0. -1.
         11    1    1    2    0    0  0.52183028018E+01  0.53534333084E+02 -0.26716648613E+03  0.27252722215E+03  0.00000000000E+00 0.  1.
</event>
<event>
 7    1  0.2855090E-009  0.1567421E+03  0.7561462E-02  0.1192425E+00
          1   -1    0    0  501    0  0.00000000000E+00  0.00000000000E+00  0.36540616023E+03  0.36540616023E+03  0.00000000000E+00 0. -1.
         -1   -1    0    0    0  501 -0.00000000000E+00 -0.00000000000E+00 -0.10349303968E+03  0.10349303968E+03  0.00000000000E+00 0.  1.
         25    2    1    2    0    0  0.13156438536E+03 -0.60844072013E+02  0.22334781285E+03  0.29418251809E+03  0.12509164581E+03 0.  0.
          5    1    3    3  502    0  0.11114718081E+03 -0.46719772947E+02  0.23671065461E+03  0.26567995670E+03  0.41800000000E+01 0.  1.
         -5    1    3    3    0  502  0.20417204552E+02 -0.14124299066E+02 -0.13362841763E+02  0.28502561390E+02  0.41800000000E+01 0.  1.
        -11    1    1    2    0    0 -0.65845037830E+02  0.75660334417E+02  0.38253881908E+02  0.10734716900E+03  0.00000000000E+00 0. -1.
         11    1    1    2    0    0 -0.65719347533E+02 -0.14816262404E+02  0.31142579319E+00  0.67369512822E+02  0.00000000000E+00 0.  1.
</event>
<event>
 7    1  0.2855090E-009  0.9440770E+02  0.7561462E-02  0.1292516E+00
          3   -1    0    0  501    0  0.00000000000E+00  0.00000000000E+00  0.24490473868E+03  0.24490473868E+03  0.00000000000E+00 0. -1.
         -3   -1    0    0    0  501 -0.00000000000E+00 -0.00000000000E+00 -0.53683859802E+02  0.53683859802E+02  0.00000000000E+00 0.  1.
         25    2    1    2    0    0 -0.98702582707E+01 -0.30958124243E+02  0.11771046015E+03  0.17481194187E+03  0.12509050778E+03 0.  0.
          5    1    3    3  502    0 -0.17501648170E+02  0.30914347058E+02 -0.59515951130E+01  0.36261528195E+02  0.41800000000E+01 0.  1.
         -5    1    3    3    0  502  0.76313898989E+01 -0.61872471300E+02  0.12366205526E+03  0.13855041367E+03  0.41800000000E+01 0.  1.
        -11    1    1    2    0    0 -0.13872596411E+02  0.55031045929E+02  0.19411256493E+02  0.59980512050E+02  0.00000000000E+00 0.  1.
         11    1    1    2    0    0  0.23742854681E+02 -0.24072921686E+02  0.54099162235E+02  0.63796144566E+02  0.00000000000E+00 0. -1.
</event>
<event>
 7    1  0.2855090E-009  0.8240437E+02  0.7561462E-02  0.1322363E+00
         -1   -1    0    0    0  501 -0.00000000000E+00  0.00000000000E+00  0.53247244143E+02  0.53247244143E+02  0.00000000000E+00 0.  1.
          1   -1    0    0  501    0  0.00000000000E+00 -0.00000000000E+00 -0.18489611339E+03  0.18489611339E+03  0.00000000000E+00 0. -1.
         25    2    1    2    0    0  0.12795306337E+02  0.40560711324E+00 -0.12746667694E+03  0.17905220295E+03  0.12509217909E+03 0.  0.
          5    1    3    3  502    0 -0.80961374587E+01 -0.50971220740E+02 -0.15528482056E+02  0.54057552112E+02  0.41800000000E+01 0.  1.
         -5    1    3    3    0  502  0.20891443795E+02  0.51376827853E+02 -0.11193819488E+03  0.12499465083E+03  0.41800000000E+01 0.  1.
        -11    1    1    2    0    0 -0.23486767316E+02 -0.22713224651E+02  0.42676442746E+01  0.32950441585E+02  0.00000000000E+00 0.  1.
         11    1    1    2    0    0  0.10691460979E+02  0.22307617537E+02 -0.84498365888E+01  0.26140713006E+02  0.00000000000E+00 0. -1.
</event>
<event>
 7    1  0.2855090E-009  0.1416733E+03  0.7561462E-02  0.1211095E+00
         -4   -1    0    0    0  501 -0.00000000000E+00  0.00000000000E+00  0.26394911807E+03  0.26394911807E+03  0.00000000000E+00 0.  1.
          4   -1    0    0  501    0  0.00000000000E+00 -0.00000000000E+00 -0.12193287373E+03  0.12193287373E+03  0.00000000000E+00 0. -1.
         25    2    1    2    0    0 -0.96955506577E+02 -0.66942677248E+02  0.16038814986E+03  0.23506006404E+03  0.12508869973E+03 0.  0.
          5    1    3    3  502    0  0.98173855182E+00 -0.53309844707E+02  0.11365816666E+03  0.12561271672E+03  0.41800000000E+01 0.  1.
         -5    1    3    3    0  502 -0.97937245129E+02 -0.13632832540E+02  0.46729983205E+02  0.10944734733E+03  0.41800000000E+01 0.  1.
        -11    1    1    2    0    0  0.67677498344E+02  0.12135272634E+02  0.27015068636E+02  0.73873693270E+02  0.00000000000E+00 0.  1.
         11    1    1    2    0    0  0.29278008234E+02  0.54807404614E+02 -0.45386974161E+02  0.76948234483E+02  0.00000000000E+00 0. -1.
</event>
<event>
 7    1  0.2855090E-009  0.1478348E+03  0.7561462E-02  0.1203159E+00
          2   -1    0    0  501    0  0.00000000000E+00  0.00000000000E+00  0.10324621121E+03  0.10324621121E+03  0.00000000000E+00 0.  1.
         -2   -1    0    0    0  501 -0.00000000000E+00 -0.00000000000E+00 -0.26624134410E+03  0.26624134410E+03  0.00000000000E+00 0. -1.
         25    2    1    2    0    0 -0.35128159717E+02  0.11375127392E+03 -0.86122464367E+02  0.19297044790E+03  0.12508866844E+03 0.  0.
          5    1    3    3  502    0  0.12030099015E+02  0.11113780456E+03 -0.92464878496E+02  0.14513290819E+03  0.41800000000E+01 0.  1.
         -5    1    3    3    0  502 -0.47158258732E+02  0.26134693592E+01  0.63424141293E+01  0.47837539712E+02  0.41800000000E+01 0.  1.
        -11    1    1    2    0    0  0.44600627788E+02 -0.34012712343E+02 -0.78165198953E+02  0.96207478542E+02  0.00000000000E+00 0. -1.
         11    1    1    2    0    0 -0.94724680706E+01 -0.79738561575E+02  0.12925304338E+01  0.80309628864E+02  0.00000000000E+00 0.  1.
</event>
<event>
 7    1  0.2855090E-009  0.1085589E+03  0.7561462E-02  0.1263262E+00
         -1   -1    0    0    0  501 -0.00000000000E+00  0.00000000000E+00  0.17295388349E+03  0.17295388349E+03  0.00000000000E+00 0.  1.
          1   -1    0    0  501    0  0.00000000000E+00 -0.00000000000E+00 -0.14529871112E+03  0.14529871112E+03  0.00000000000E+00 0. -1.
         25    2    1    2    0    0 -0.31839273955E+02  0.40982416186E+02 -0.87484525162E+02  0.16122754676E+03  0.12508989523E+03 0.  0.
          5    1    3    3  502    0 -0.49417091171E+02 -0.28436526057E+02 -0.63849176897E+02  0.85702244453E+02  0.41800000000E+01 0. -1.
         -5    1    3    3    0  502  0.17577817215E+02  0.69418942243E+02 -0.23635348265E+02  0.75525302302E+02  0.41800000000E+01 0. -1.
        -11    1    1    2    0    0  0.39233810907E+02  0.68416648160E+01  0.97837184934E+02  0.10563245264E+03  0.00000000000E+00 0.  1.
         11    1    1    2    0    0 -0.73945369511E+01 -0.47824081002E+02  0.17302512592E+02  0.51392595209E+02  0.00000000000E+00 0. -1.
</event>
<event>
 7    1  0.2855090E-009  0.1002836E+03  0.7561462E-02  0.1279701E+00
          1   -1    0    0  501    0  0.00000000000E+00  0.00000000000E+00  0.10761188913E+03  0.10761188913E+03  0.00000000000E+00 0. -1.
         -1   -1    0    0    0  501 -0.00000000000E+00 -0.00000000000E+00 -0.11998736954E+03  0.11998736954E+03  0.00000000000E+00 0.  1.
         25    2    1    2    0    0 -0.20079554115E+01 -0.10671547019E+02 -0.42403850270E+02  0.13253281932E+03  0.12509575484E+03 0.  0.
          5    1    3    3  502    0  0.58172108386E+02 -0.31955424540E+01  0.13745732108E-01  0.58409573484E+02  0.41800000000E+01 0. -1.
         -5    1    3    3    0  502 -0.60180063797E+02 -0.74760045648E+01 -0.42417596002E+02  0.74123245838E+02  0.41800000000E+01 0. -1.
        -11    1    1    2    0    0 -0.38740367001E+02 -0.17249583070E+01 -0.60496263934E+01  0.39247796066E+02  0.00000000000E+00 0.  1.
         11    1    1    2    0    0  0.40748322413E+02  0.12396505326E+02  0.36077996259E+02  0.55818643282E+02  0.00000000000E+00 0. -1.
</event>
<event>
 7    1  0.2855090E-009  0.1446676E+03  0.7561462E-02  0.1207183E+00
         -1   -1    0    0    0  501 -0.00000000000E+00  0.00000000000E+00  0.33426524801E+03  0.33426524801E+03  0.00000000000E+00 0.  1.
          1   -1    0    0  501    0  0.00000000000E+00 -0.00000000000E+00 -0.81583471364E+02  0.81583471364E+02  0.00000000000E+00 0. -1.
         25    2    1    2    0    0 -0.10855559287E+03 -0.49435629370E+02  0.89856651431E+02  0.19480768368E+03  0.12509043776E+03 0.  0.
          5    1    3    3  502    0 -0.16669829379E+02  0.36556435932E+02  0.46592923055E+02  0.61665461147E+02  0.41800000000E+01 0. -1.
         -5    1    3    3    0  502 -0.91885763489E+02 -0.85992065302E+02  0.43263728376E+02  0.13314222253E+03  0.41800000000E+01 0. -1.
        -11    1    1    2    0    0  0.43530622515E+02  0.36311821763E+02  0.14432056934E+02  0.58495707224E+02  0.00000000000E+00 0. -1.
         11    1    1    2    0    0  0.65024970353E+02  0.13123807607E+02  0.14839306828E+03  0.16254532848E+03  0.00000000000E+00 0.  1.
</event>
<event>
 7    1  0.2855090E-009  0.9282384E+02  0.7561462E-02  0.1296154E+00
         -2   -1    0    0    0  501 -0.00000000000E+00  0.00000000000E+00  0.31157887812E+02  0.31157887812E+02  0.00000000000E+00 0.  1.
          2   -1    0    0  501    0  0.00000000000E+00 -0.00000000000E+00 -0.63091720890E+03  0.63091720890E+03  0.00000000000E+00 0. -1.
         25    2    1    2    0    0  0.17794997004E+02 -0.66201310370E+02 -0.20009444792E+03  0.24573455382E+03  0.12509359470E+03 0.  0.
          5    1    3    3  502    0  0.13855682057E+02 -0.44501525743E+02 -0.21418102847E+03  0.21923355371E+03  0.41800000000E+01 0. -1.
         -5    1    3    3    0  502  0.39393149472E+01 -0.21699784627E+02  0.14086580542E+02  0.26501000104E+02  0.41800000000E+01 0. -1.
        -11    1    1    2    0    0  0.28600847639E+02 -0.72702711096E+01 -0.11350120950E+03  0.11727484762E+03  0.00000000000E+00 0. -1.
         11    1    1    2    0    0 -0.46395844643E+02  0.73471581480E+02 -0.28616366367E+03  0.29906569527E+03  0.00000000000E+00 0.  1.
</event>
<event>
 7    1  0.2855090E-009  0.1006825E+03  0.7561462E-02  0.1278867E+00
          1   -1    0    0  501    0  0.00000000000E+00  0.00000000000E+00  0.62073920658E+02  0.62073920658E+02  0.00000000000E+00 0. -1.
         -1   -1    0    0    0  501 -0.00000000000E+00 -0.00000000000E+00 -0.29313358306E+03  0.29313358306E+03  0.00000000000E+00 0.  1.
         25    2    1    2    0    0  0.66958283782E+02  0.36450129033E+02 -0.15752246112E+03  0.21511211503E+03  0.12509145695E+03 0.  0.
          5    1    3    3  502    0  0.65200489477E+02  0.66712905871E+02 -0.55558030185E+02  0.10865487912E+03  0.41800000000E+01 0. -1.
         -5    1    3    3    0  502  0.17577943056E+01 -0.30262776838E+02 -0.10196443094E+03  0.10645723592E+03  0.41800000000E+01 0. -1.
        -11    1    1    2    0    0 -0.13211946833E+02 -0.15460149502E+01  0.21611551714E+02  0.25377251010E+02  0.00000000000E+00 0. -1.
         11    1    1    2    0    0 -0.53746336949E+02 -0.34904114083E+02 -0.95148752994E+02  0.11471813768E+03  0.00000000000E+00 0.  1.
</event>
<event>
 7    1  0.2855090E-009  0.4633992E+03  0.7561462E-02  0.1023800E+00
          2   -1    0    0  501    0  0.00000000000E+00  0.00000000000E+00  0.31956118730E+03  0.31956118730E+03  0.00000000000E+00 0. -1.
         -2   -1    0    0    0  501 -0.00000000000E+00 -0.00000000000E+00 -0.68337877383E+03  0.68337877383E+03  0.00000000000E+00 0.  1.
         25    2    1    2    0    0 -0.40369029106E+02 -0.44900445240E+03 -0.24410908292E+03  0.52770588532E+03  0.12509836230E+03 0.  0.
          5    1    3    3  502    0 -0.71259044225E+02 -0.41708579982E+03 -0.21781560759E+03  0.47591966455E+03  0.41800000000E+01 0.  1.
         -5    1    3    3    0  502  0.30890015120E+02 -0.31918652582E+02 -0.26293475332E+02  0.51786220772E+02  0.41800000000E+01 0.  1.
        -11    1    1    2    0    0  0.67893053904E+02  0.31595235364E+03 -0.97573828836E+02  0.33757370841E+03  0.00000000000E+00 0. -1.
         11    1    1    2    0    0 -0.27524024798E+02  0.13305209876E+03 -0.22134674763E+02  0.13766036740E+03  0.00000000000E+00 0.  1.
</event>
<event>
 7    1  0.2855090E-009  0.9373949E+02  0.7561462E-02  0.1294041E+00
          1   -1    0    0  501    0  0.00000000000E+00  0.00000000000E+00  0.11208827365E+03  0.11208827365E+03  0.00000000000E+00 0. -1.
         -1   -1    0    0    0  501 -0.00000000000E+00 -0.00000000000E+00 -0.36630943234E+03  0.36630943234E+03  0.00000000000E+00 0.  1.
         25    2    1    2    0    0  0.27533706914E+02 -0.67822029531E+02 -0.31543184262E+03  0.34715681438E+03  0.12515060417E+03 0.  0.
          5    1    3    3  502    0  0.36225330663E+02 -0.38978858232E+02 -0.32284831404E+02  0.62381156687E+02  0.41800000000E+01 0. -1.
         -5    1    3    3    0  502 -0.86916237490E+01 -0.28843171299E+02 -0.28314701121E+03  0.28477565769E+03  0.41800000000E+01 0. -1.
        -11    1    1    2    0    0  0.24448178489E+02  0.11411903485E+02 -0.77712060251E+01  0.28077332774E+02  0.00000000000E+00 0.  1.
         11    1    1    2    0    0 -0.51981885404E+02  0.56410126046E+02  0.68981889953E+02  0.10316355884E+03  0.00000000000E+00 0. -1.
</event>
<event>
 7    1  0.2855090E-009  0.1083733E+03  0.7561462E-02  0.1263612E+00
         -1   -1    0    0    0  501 -0.00000000000E+00  0.00000000000E+00  0.33554931252E+02  0.33554931252E+02  0.00000000000E+00 0.  1.
          1   -1    0    0  501    0  0.00000000000E+00 -0.00000000000E+00 -0.40053790599E+03  0.40053790599E+03  0.00000000000E+00 0. -1.
         25    2    1    2    0    0 -0.29616149295E+02 -0.52976327393E+02 -0.23136190474E+03  0.26992434198E+03  0.12508881591E+03 0.  0.
          5    1    3    3  502    0 -0.77113457472E+02 -0.18668388715E+02 -0.11813104936E+03  0.14236365857E+03  0.41800000000E+01 0. -1.
         -5    1    3    3    0  502  0.47497308177E+02 -0.34307938678E+02 -0.11323085538E+03  0.12756068341E+03  0.41800000000E+01 0. -1.
        -11    1    1    2    0    0  0.78168154283E+01 -0.95475960407E+01  0.96650914135E+00  0.12377129454E+02  0.00000000000E+00 0.  1.
         11    1    1    2    0    0  0.21799333867E+02  0.62523923434E+02 -0.13658757914E+03  0.15179136581E+03  0.00000000000E+00 0. -1.
</event>
<event>
 7    1  0.2855090E-009  0.1294527E+03  0.7561462E-02  0.1228270E+00
         -1   -1    0    0    0  501 -0.00000000000E+00  0.00000000000E+00  0.98213945167E+02  0.98213945167E+02  0.00000000000E+00 0.  1.
          1   -1    0    0  501    0  0.00000000000E+00 -0.00000000000E+00 -0.22424529378E+03  0.22424529378E+03  0.00000000000E+00 0. -1.
         25    2    1    2    0    0 -0.89045950869E+02  0.26966910403E+02 -0.11134866254E+03  0.19158116660E+03  0.12509365740E+03 0.  0.
          5    1    3    3  502    0 -0.26859280314E+02 -0.32740791810E+02  0.89864849791E+01  0.43492639603E+02  0.41800000000E+01 0. -1.
         -5    1    3    3    0  502 -0.62186670555E+02  0.59707702213E+02 -0.12033514752E+03  0.14808852699E+03  0.41800000000E+01 0. -1.
        -11    1    1    2    0    0  0.19633777393E+00 -0.40208438634E+02 -0.37172802910E+01  0.40380382102E+02  0.00000000000E+00 0.  1.
         11    1    1    2    0    0  0.88849613095E+02  0.13241528231E+02 -0.10965405783E+02  0.90497690252E+02  0.00000000000E+00 0. -1.
</event>
<event>
 7    1  0.2855090E-009  0.5484771E+02  0.7561462E-02  0.1420820E+00
         -2   -1    0    0    0  501 -0.00000000000E+00  0.00000000000E+00  0.62554216156E+02  0.62554216156E+02  0.00000000000E+00 0.  1.
          2   -1    0    0  501    0  0.00000000000E+00 -0.00000000000E+00 -0.24707559706E+03  0.24707559706E+03  0.00000000000E+00 0. -1.
         25    2    1    2    0    0  0.27507003360E+02 -0.72548025171E+01 -0.17095542413E+03  0.21373265325E+03  0.12508646063E+03 0.  0.
          5    1    3    3  502    0 -0.68870596268E+01  0.18238258203E+02  0.13662155664E+02  0.24170075506E+02  0.41800000000E+01 0. -1.
         -5    1    3    3    0  502  0.34394062987E+02 -0.25493060720E+02 -0.18461757979E+03  0.18956257775E+03  0.41800000000E+01 0. -1.
        -11    1    1    2    0    0 -0.13821360089E+02  0.22405156421E+02  0.34662097461E+02  0.43525647949E+02  0.00000000000E+00 0.  1.
         11    1    1    2    0    0 -0.13685643271E+02 -0.15150353904E+02 -0.48228054236E+02  0.52371512013E+02  0.00000000000E+00 0. -1.
</event>
<event>
 7    1  0.2855090E-009  0.8980583E+02  0.7561462E-02  0.1303323E+00
         -1   -1    0    0    0  501 -0.00000000000E+00  0.00000000000E+00  0.19218021155E+03  0.19218021155E+03  0.00000000000E+00 0.  1.
          1   -1    0    0  501    0  0.00000000000E+00 -0.00000000000E+00 -0.12447768377E+03  0.12447768377E+03  0.00000000000E+00 0. -1.
         25    2    1    2    0    0 -0.95627999813E+01 -0.30698032041E+02  0.14399514994E+03  0.19343161785E+03  0.12508945305E+03 0.  0.
          5    1    3    3  502    0  0.29299911744E+02 -0.65223858246E+02  0.55095418305E+02  0.90363787166E+02  0.41800000000E+01 0. -1.
         -5    1    3    3    0  502 -0.38862711725E+02  0.34525826205E+02  0.88899731635E+02  0.10306783069E+03  0.41800000000E+01 0. -1.
        -11    1    1    2    0    0  0.27767818300E+02  0.13849991997E+02 -0.89780407948E+02  0.94991555745E+02  0.00000000000E+00 0. -1.
         11    1    1    2    0    0 -0.18205018319E+02  0.16848040044E+02  0.13487785786E+02  0.28234721722E+02  0.00000000000E+00 0.  1.
</event>
<event>
 7    1  0.2855090E-009  0.9314631E+02  0.7561462E-02  0.1295406E+00
          2   -1    0    0  501    0  0.00000000000E+00  0.00000000000E+00  0.11305740928E+03  0.11305740928E+03  0.00000000000E+00 0.  1.
         -2   -1    0    0    0  501 -0.00000000000E+00 -0.00000000000E+00 -0.11556624205E+03  0.11556624205E+03  0.00000000000E+00 0. -1.
         25    2    1    2    0    0 -0.14169969538E+01 -0.69468342136E+01 -0.35874920995E+02  0.13032052804E+03  0.12508462610E+03 0.  0.
          5    1    3    3  502    0  0.54168149883E+02  0.51747898353E+01  0.11964349074E+02  0.55871146045E+02  0.41800000000E+01 0.  1.
         -5    1    3    3    0  502 -0.55585146837E+02 -0.12121624049E+02 -0.47839270069E+02  0.74449381993E+02  0.41800000000E+01 0.  1.
        -11    1    1    2    0    0 -0.27773859156E+02  0.27411583253E+02 -0.11795257422E+02  0.40766533413E+02  0.00000000000E+00 0. -1.
         11    1    1    2    0    0  0.29190856110E+02 -0.20464749039E+02  0.45161345656E+02  0.57536589881E+02  0.00000000000E+00 0.  1.
</event>
<event>
 7    1  0.2855090E-009  0.1546852E+03  0.7561462E-02  0.1194831E+00
         -2   -1    0    0    0  501 -0.00000000000E+00  0.00000000000E+00  0.83187251887E+02  0.83187251887E+02  0.00000000000E+00 0. -1.
          2   -1    0    0  501    0  0.00000000000E+00 -0.00000000000E+00 -0.41378137243E+03  0.41378137243E+03  0.00000000000E+00 0.  1.
         25    2    1    2    0    0 -0.10726122264E+03  0.96508420297E+02 -0.23026928658E+03  0.29915042913E+03  0.12509272493E+03 0.  0.
          5    1    3    3  502    0 -0.11075929679E+03  0.69221572892E+02 -0.23689413612E+03  0.27054676510E+03  0.41800000000E+01 0.  1.
         -5    1    3    3    0  502  0.34980741492E+01  0.27286847405E+02  0.66248495384E+01  0.28603664021E+02  0.41800000000E+01 0.  1.
        -11    1    1    2    0    0  0.38468927539E+02 -0.89140274441E+01 -0.73219436269E+02  0.83188966328E+02  0.00000000000E+00 0.  1.
         11    1    1    2    0    0  0.68792295105E+02 -0.87594392853E+02 -0.27105397687E+02  0.11462922886E+03  0.00000000000E+00 0. -1.
</event>
<event>
 7    1  0.2855090E-009  0.1353065E+03  0.7561462E-02  0.1219788E+00
          4   -1    0    0  501    0  0.00000000000E+00  0.00000000000E+00  0.62297667526E+03  0.62297667526E+03  0.00000000000E+00 0. -1.
         -4   -1    0    0    0  501 -0.00000000000E+00 -0.00000000000E+00 -0.49654106960E+02  0.49654106960E+02  0.00000000000E+00 0.  1.
         25    2    1    2    0    0 -0.90463903211E+02 -0.61293470008E+02  0.46194642015E+03  0.49089919814E+03  0.12508765082E+03 0.  0.
          5    1    3    3  502    0 -0.87663832262E+01 -0.76649404276E+02  0.15979567894E+03  0.17749397753E+03  0.41800000000E+01 0.  1.
         -5    1    3    3    0  502 -0.81697519985E+02  0.15355934269E+02  0.30215074121E+03  0.31340522061E+03  0.41800000000E+01 0.  1.
        -11    1    1    2    0    0  0.17303702016E+02  0.18630807693E+02 -0.15059919823E+02  0.29552094407E+02  0.00000000000E+00 0.  1.
         11    1    1    2    0    0  0.73160201195E+02  0.42662662314E+02  0.12643606797E+03  0.15217948967E+03  0.00000000000E+00 0. -1.
</event>
<event>
 7    1  0.2855090E-009  0.1289177E+03  0.7561462E-02  0.1229071E+00
          4   -1    0    0  501    0  0.00000000000E+00  0.00000000000E+00  0.19140344164E+03  0.19140344164E+03  0.00000000000E+00 0. -1.
         -4   -1    0    0    0  501 -0.00000000000E+00 -0.00000000000E+00 -0.10025281165E+03  0.10025281165E+03  0.00000000000E+00 0.  1.
         25    2    1    2    0    0  0.77818902103E+02  0.85807647320E+00  0.88139959947E+02  0.17168032174E+03  0.12509581334E+03 0.  0.
          5    1    3    3  502    0 -0.29531184568E+02 -0.53739824995E+01 -0.32742673163E+01  0.30482187854E+02  0.41800000000E+01 0. -1.
         -5    1    3    3    0  502  0.10735008667E+03  0.62320589727E+01  0.91414227263E+02  0.14119813389E+03  0.41800000000E+01 0. -1.
        -11    1    1    2    0    0  0.46416327636E+01  0.31126933029E+02  0.17676605327E+01  0.31520712845E+02  0.00000000000E+00 0.  1.
         11    1    1    2    0    0 -0.82460534867E+02 -0.31985009502E+02  0.12430095168E+01  0.88455218704E+02  0.00000000000E+00 0. -1.
</event>
<event>
 7    1  0.2855090E-009  0.7013726E+02  0.7561462E-02  0.1359627E+00
         -2   -1    0    0    0  501 -0.00000000000E+00  0.00000000000E+00  0.33135024003E+02  0.33135024003E+02  0.00000000000E+00 0.  1.
          2   -1    0    0  501    0  0.00000000000E+00 -0.00000000000E+00 -0.43136610358E+03  0.43136610358E+03  0.00000000000E+00 0. -1.
         25    2    1    2    0    0 -0.10368920874E+02 -0.31394912879E+02 -0.38021879124E+03  0.40162836096E+03  0.12508339634E+03 0.  0.
          5    1    3    3  502    0 -0.13503276964E+02  0.23581020907E+02 -0.13235270059E+02  0.30513076039E+02  0.41800000000E+01 0. -1.
         -5    1    3    3    0  502  0.31343560903E+01 -0.54975933786E+02 -0.36698352118E+03  0.37111528492E+03  0.41800000000E+01 0. -1.
        -11    1    1    2    0    0 -0.13456267265E+02  0.30927359736E+02 -0.12742545023E+01  0.33751984142E+02  0.00000000000E+00 0.  1.
         11    1    1    2    0    0  0.23825188139E+02  0.46755314251E+00 -0.16738033839E+02  0.29120782485E+02  0.00000000000E+00 0. -1.
</event>
<event>
 7    1  0.2979718E-009  0.1343549E+03  0.7561462E-02  0.1221133E+00
         -2   -1    0    0    0  501 -0.00000000000E+00  0.00000000000E+00  0.25524763529E+02  0.25524763529E+02  0.00000000000E+00 0.  1.
          2   -1    0    0  501    0  0.00000000000E+00 -0.00000000000E+00 -0.78567965409E+03  0.78567965409E+03  0.00000000000E+00 0. -1.
         25    2    1    2    0    0  0.15754063811E+02  0.83285863439E+02 -0.51026156205E+03  0.53216472028E+03  0.12509077596E+03 0.  0.
          5    1    3    3  502    0 -0.52474284353E+02  0.22976438957E+02 -0.15206500490E+03  0.16255062405E+03  0.41800000000E+01 0.  1.
         -5    1    3    3    0  502  0.68228348164E+02  0.60309424482E+02 -0.35819655715E+03  0.36961409623E+03  0.41800000000E+01 0.  1.
        -11    1    1    2    0    0  0.31544928949E+02 -0.59098885428E+02 -0.10333184405E+03  0.12314719159E+03  0.00000000000E+00 0.  1.
         11    1    1    2    0    0 -0.47298992760E+02 -0.24186978011E+02 -0.14656148446E+03  0.15589250575E+03  0.00000000000E+00 0. -1.
</event>
<event>
 7    1  0.2855090E-009  0.1063713E+03  0.7561462E-02  0.1267441E+00
         -4   -1    0    0    0  501 -0.00000000000E+00  0.00000000000E+00  0.20622362782E+02  0.20622362782E+02  0.00000000000E+00 0. -1.
          4   -1    0    0  501    0  0.00000000000E+00 -0.00000000000E+00 -0.76729332441E+03  0.76729332441E+03  0.00000000000E+00 0.  1.
         25    2    1    2    0    0 -0.31204721422E+02 -0.55376097289E+02 -0.45723594159E+03  0.47828047476E+03  0.12508900616E+03 0.  0.
          5    1    3    3  502    0  0.28329587393E+02  0.62984937783E+01 -0.27979047158E+02  0.40528212712E+02  0.41800000000E+01 0. -1.
         -5    1    3    3    0  502 -0.59534308815E+02 -0.61674591067E+02 -0.42925689443E+03  0.43775226204E+03  0.41800000000E+01 0. -1.
        -11    1    1    2    0    0 -0.23259701656E+02  0.58507470549E+01 -0.23046743459E+02  0.33262551710E+02  0.00000000000E+00 0. -1.
         11    1    1    2    0    0  0.54464423078E+02  0.49525350234E+02 -0.26638827658E+03  0.27637266073E+03  0.00000000000E+00 0.  1.
</event>
<event>
 7    1  0.2855090E-009  0.9573100E+02  0.7561462E-02  0.1289538E+00
          1   -1    0    0  501    0  0.00000000000E+00  0.00000000000E+00  0.36283179845E+02  0.36283179845E+02  0.00000000000E+00 0. -1.
         -1   -1    0    0    0  501 -0.00000000000E+00 -0.00000000000E+00 -0.37796789255E+03  0.37796789255E+03  0.00000000000E+00 0.  1.
         25    2    1    2    0    0 -0.95885733136E+01  0.32789218403E+02 -0.14849301363E+03  0.19714600849E+03  0.12509716217E+03 0.  0.
          5    1    3    3  502    0  0.26367235620E+02 -0.17255666520E+02  0.45481908256E+01  0.32111486747E+02  0.41800000000E+01 0. -1.
         -5    1    3    3    0  502 -0.35955808934E+02  0.50044884922E+02 -0.15304120446E+03  0.16503452174E+03  0.41800000000E+01 0. -1.
        -11    1    1    2    0    0 -0.41321365493E+02 -0.15833134427E+02 -0.10389620974E+03  0.11292725885E+03  0.00000000000E+00 0.  1.
         11    1    1    2    0    0  0.50909938806E+02 -0.16956083975E+02 -0.89295489328E+02  0.10417780506E+03  0.00000000000E+00 0. -1.
</event>
<event>
 7    1  0.2855090E-009  0.1118388E+03  0.7561462E-02  0.1257202E+00
          1   -1    0    0  501    0  0.00000000000E+00  0.00000000000E+00  0.25218483847E+03  0.25218483847E+03  0.00000000000E+00 0. -1.
         -1   -1    0    0    0  501 -0.00000000000E+00 -0.00000000000E+00 -0.56214535334E+02  0.56214535334E+02  0.00000000000E+00 0.  1.
         25    2    1    2    0    0  0.21272139134E+02  0.15064309810E+02  0.78236183069E+02  0.14982230524E+03  0.12508551264E+03 0.  0.
          5    1    3    3  502    0  0.62471140203E+02  0.41569835736E+02  0.63791733418E+02  0.98577645812E+02  0.41800000000E+01 0. -1.
         -5    1    3    3    0  502 -0.41199001070E+02 -0.26505525926E+02  0.14444449651E+02  0.51244659424E+02  0.41800000000E+01 0. -1.
        -11    1    1    2    0    0 -0.56865513220E+02  0.72818359091E+01  0.94567838020E+02  0.11058837062E+03  0.00000000000E+00 0. -1.
         11    1    1    2    0    0  0.35593374087E+02 -0.22346145719E+02  0.23166282051E+02  0.47988697955E+02  0.00000000000E+00 0.  1.
</event>
<event>
 7    1  0.2855090E-009  0.2157470E+03  0.7561462E-02  0.1137094E+00
         -2   -1    0    0    0  501 -0.00000000000E+00  0.00000000000E+00  0.11924364169E+03  0.11924364169E+03  0.00000000000E+00 0.  1.
          2   -1    0    0  501    0  0.00000000000E+00 -0.00000000000E+00 -0.41191675765E+03  0.41191675765E+03  0.00000000000E+00 0. -1.
         25    2    1    2    0    0  0.18987427372E+03 -0.31732583535E+02 -0.13587521914E+03  0.26677583158E+03  0.12509225581E+03 0.  0.
          5    1    3    3  502    0 -0.79500126878E+01 -0.22304400145E+02 -0.40071998194E+02  0.46732498402E+02  0.41800000000E+01 0.  1.
         -5    1    3    3    0  502  0.19782428641E+03 -0.94281833892E+01 -0.95803220947E+02  0.22004333318E+03  0.41800000000E+01 0.  1.
        -11    1    1    2    0    0 -0.17875112744E+03  0.32521627315E+01 -0.14925121193E+03  0.23289153352E+03  0.00000000000E+00 0.  1.
         11    1    1    2    0    0 -0.11123146279E+02  0.28480420803E+02 -0.75466848935E+01  0.31493034232E+02  0.00000000000E+00 0. -1.
</event>
<event>
 7    1  0.2855090E-009  0.1715226E+03  0.7561462E-02  0.1176269E+00
          1   -1    0    0  501    0  0.00000000000E+00  0.00000000000E+00  0.80472085883E+03  0.80472085883E+03  0.00000000000E+00 0. -1.
         -1   -1    0    0    0  501 -0.00000000000E+00 -0.00000000000E+00 -0.43497911891E+02  0.43497911891E+02  0.00000000000E+00 0.  1.
         25    2    1    2    0    0 -0.65293426844E+02  0.13684023148E+03  0.42250750042E+03  0.46599152141E+03  0.12508808727E+03 0.  0.
          5    1    3    3  502    0 -0.88433617672E+02  0.11713879621E+03  0.40471675849E+03  0.43052889487E+03  0.41800000000E+01 0. -1.
         -5    1    3    3    0  502  0.23140190828E+02  0.19701435265E+02  0.17790741926E+02  0.35462626543E+02  0.41800000000E+01 0. -1.
        -11    1    1    2    0    0 -0.13780697307E+02 -0.25316730860E+02  0.12683820404E+03  0.13007218951E+03  0.00000000000E+00 0. -1.
         11    1    1    2    0    0  0.79074124151E+02 -0.11152350062E+03  0.21187724248E+03  0.25215505979E+03  0.00000000000E+00 0.  1.
</event>
<event>
 7    1  0.2855090E-009  0.1085407E+03  0.7561462E-02  0.1263296E+00
         -1   -1    0    0    0  501 -0.00000000000E+00  0.00000000000E+00  0.83629982197E+02  0.83629982197E+02  0.00000000000E+00 0.  1.
          1   -1    0    0  501    0  0.00000000000E+00 -0.00000000000E+00 -0.20800345912E+03  0.20800345912E+03  0.00000000000E+00 0. -1.
         25    2    1    2    0    0  0.31840037180E+02  0.61155423404E+02 -0.36875174768E+02  0.14751294001E+03  0.12508603110E+03 0.  0.
          5    1    3    3  502    0  0.68664499331E+02  0.58846667545E+02 -0.55277979813E+02  0.10607012398E+03  0.41800000000E+01 0. -1.
         -5    1    3    3    0  502 -0.36824462152E+02  0.23087558585E+01  0.18402805044E+02  0.41442816023E+02  0.41800000000E+01 0. -1.
        -11    1    1    2    0    0 -0.36444478576E+02 -0.70298656048E+02 -0.28370357427E+02  0.84112889865E+02  0.00000000000E+00 0.  1.
         11    1    1    2    0    0  0.46044413967E+01  0.91432326446E+01 -0.59127944732E+02  0.60007611451E+02  0.00000000000E+00 0. -1.
</event>
<event>
 7    1  0.2855090E-009  0.2148525E+03  0.7561462E-02  0.1137780E+00
         -1   -1    0    0    0  501 -0.00000000000E+00  0.00000000000E+00  0.17935285524E+03  0.17935285524E+03  0.00000000000E+00 0.  1.
          1   -1    0    0  501    0  0.00000000000E+00 -0.00000000000E+00 -0.27788586604E+03  0.27788586604E+03  0.00000000000E+00 0. -1.
         25    2    1    2    0    0  0.25284176125E+02 -0.18590716894E+03 -0.10592096788E+03  0.24913353416E+03  0.12508997313E+03 0.  0.
          5    1    3    3  502    0  0.27549627624E+02 -0.20442512378E+03 -0.95291596167E+02  0.22725882582E+03  0.41800000000E+01 0. -1.
         -5    1    3    3    0  502 -0.22654514993E+01  0.18517954835E+02 -0.10629371710E+02  0.21874708334E+02  0.41800000000E+01 0. -1.
        -11    1    1    2    0    0  0.29329892909E+02  0.77957412952E+02 -0.16187794514E+02  0.84850725061E+02  0.00000000000E+00 0. -1.
         11    1    1    2    0    0 -0.54614069034E+02  0.10794975599E+03  0.23575751590E+02  0.12325446206E+03  0.00000000000E+00 0.  1.
</event>
<event>
 7    1  0.2855090E-009  0.1247813E+03  0.7561462E-02  0.1235411E+00
         -1   -1    0    0    0  501 -0.00000000000E+00  0.00000000000E+00  0.38487546845E+02  0.38487546845E+02  0.00000000000E+00 0.  1.
          1   -1    0    0  501    0  0.00000000000E+00 -0.00000000000E+00 -0.45544590138E+03  0.45544590138E+03  0.00000000000E+00 0. -1.
         25    2    1    2    0    0 -0.72576939907E+02 -0.68257572359E+01 -0.25928715905E+03  0.29697019229E+03  0.12508981211E+03 0.  0.
          5    1    3    3  502    0 -0.10607783634E+03 -0.62173309014E+01 -0.22491176460E+03  0.24878492081E+03  0.41800000000E+01 0.  1.
         -5    1    3    3    0  502  0.33500896433E+02 -0.60842633451E+00 -0.34375394447E+02  0.48185271483E+02  0.41800000000E+01 0.  1.
        -11    1    1    2    0    0  0.68954777163E+02 -0.28013106029E+02 -0.13799897505E+03  0.15679034574E+03  0.00000000000E+00 0. -1.
         11    1    1    2    0    0  0.36221627445E+01  0.34838863265E+02 -0.19672220440E+02  0.40172910195E+02  0.00000000000E+00 0.  1.
</event>
<event>
 7    1  0.2855090E-009  0.1025915E+03  0.7561462E-02  0.1274939E+00
          2   -1    0    0  501    0  0.00000000000E+00  0.00000000000E+00  0.34510279246E+02  0.34510279246E+02  0.00000000000E+00 0. -1.
         -2   -1    0    0    0  501 -0.00000000000E+00 -0.00000000000E+00 -0.50923811721E+03  0.50923811721E+03  0.00000000000E+00 0.  1.
         25    2    1    2    0    0  0.25002396371E+02 -0.58132684348E+02 -0.35142202668E+03  0.37836043174E+03  0.12511853043E+03 0.  0.
          5    1    3    3  502    0  0.30895111426E+02 -0.80833592403E+02 -0.34189814791E+03  0.35270439962E+03  0.41800000000E+01 0.  1.
         -5    1    3    3    0  502 -0.58927150549E+01  0.22700908055E+02 -0.95238787777E+01  0.25656032121E+02  0.41800000000E+01 0.  1.
        -11    1    1    2    0    0 -0.13744279992E+02 -0.15222172360E+02 -0.72762476164E+02  0.75597603807E+02  0.00000000000E+00 0.  1.
         11    1    1    2    0    0 -0.11258116379E+02  0.73354856708E+02 -0.50543335116E+02  0.89790360906E+02  0.00000000000E+00 0. -1.
</event>
<event>
 7    1  0.2855090E-009  0.1180973E+03  0.7561462E-02  0.1246269E+00
         -1   -1    0    0    0  501 -0.00000000000E+00  0.00000000000E+00  0.44123417041E+02  0.44123417041E+02  0.00000000000E+00 0.  1.
          1   -1    0    0  501    0  0.00000000000E+00 -0.00000000000E+00 -0.57019448174E+03  0.57019448174E+03  0.00000000000E+00 0. -1.
         25    2    1    2    0    0 -0.11918485009E+01 -0.67122825124E+02 -0.10039279208E+03  0.17387143222E+03  0.12508264502E+03 0.  0.
          5    1    3    3  502    0 -0.31001484957E+02 -0.85528205003E+02 -0.10419548045E+03  0.13838474073E+03  0.41800000000E+01 0. -1.
         -5    1    3    3    0  502  0.29809636456E+02  0.18405379879E+02  0.38026883692E+01  0.35486691491E+02  0.41800000000E+01 0. -1.
        -11    1    1    2    0    0  0.45602367509E+01 -0.21084123361E+02 -0.48569166514E+02  0.53144143167E+02  0.00000000000E+00 0.  1.
         11    1    1    2    0    0 -0.33683882500E+01  0.88206948484E+02 -0.37710910611E+03  0.38730232340E+03  0.00000000000E+00 0. -1.
</event>
<event>
 7    1  0.2855090E-009  0.1782358E+03  0.7561462E-02  0.1169521E+00
          1   -1    0    0  501    0  0.00000000000E+00  0.00000000000E+00  0.73685141944E+03  0.73685141944E+03  0.00000000000E+00 0. -1.
         -1   -1    0    0    0  501 -0.00000000000E+00 -0.00000000000E+00 -0.52863770153E+02  0.52863770153E+02  0.00000000000E+00 0.  1.
         25    2    1    2    0    0 -0.87821477066E+02  0.12375743671E+03  0.22669862251E+03  0.30013744722E+03  0.12514674107E+03 0.  0.
          5    1    3    3  502    0  0.78692769755E+01 -0.12923332140E+02  0.68149318127E+02  0.69933825827E+02  0.41800000000E+01 0. -1.
         -5    1    3    3    0  502 -0.95690754042E+02  0.13668076885E+03  0.15854930439E+03  0.23020362139E+03  0.41800000000E+01 0. -1.
        -11    1    1    2    0    0  0.52696434761E+02 -0.84935315280E+01  0.11749057505E+03  0.12904685017E+03  0.00000000000E+00 0.  1.
         11    1    1    2    0    0  0.35125042305E+02 -0.11526390518E+03  0.33979845172E+03  0.36053089220E+03  0.00000000000E+00 0. -1.
</event>
<event>
 6    1  0.2855090E-009  0.1791843E+03  0.7561462E-02  0.1168595E+00
         -1   -1    0    0    0  501 -0.00000000000E+00  0.00000000000E+00  0.18800125145E+03  0.18800125145E+03  0.00000000000E+00 0.  1.
          1   -1    0    0  501    0  0.00000000000E+00 -0.00000000000E+00 -0.17538747382E+03  0.17538747382E+03  0.00000000000E+00 0. -1.
          5    1    1    2  502    0  0.11285367226E+02 -0.27600295134E+02 -0.55444989192E+01  0.30616166859E+02  0.41800000000E+01 0. -1.
         -5    1    1    2    0  502  0.94424512280E+02  0.13226930295E+03  0.28593772947E+02  0.16506433071E+03  0.41800000000E+01 0. -1.
        -11    1    1    2    0    0 -0.28196962936E+02 -0.79247938456E+02 -0.17192418399E+02  0.85853850925E+02  0.00000000000E+00 0.  1.
         11    1    1    2    0    0 -0.77512916570E+02 -0.25421069359E+02  0.67569219952E+01  0.81854376776E+02  0.00000000000E+00 0. -1.
</event>
<event>
 7    1  0.2855090E-009  0.1512531E+03  0.7561462E-02  0.1198942E+00
          2   -1    0    0  501    0  0.00000000000E+00  0.00000000000E+00  0.39254832256E+03  0.39254832256E+03  0.00000000000E+00 0. -1.
         -2   -1    0    0    0  501 -0.00000000000E+00 -0.00000000000E+00 -0.11306549226E+03  0.11306549226E+03  0.00000000000E+00 0.  1.
         25    2    1    2    0    0 -0.12176220558E+03  0.23312546530E+02  0.28895757411E+03  0.33840015294E+03  0.12509466152E+03 0.  0.
          5    1    3    3  502    0 -0.20591184937E+01 -0.33275065315E+02  0.21376348119E+02  0.39823241952E+02  0.41800000000E+01 0.  1.
         -5    1    3    3    0  502 -0.11970308709E+03  0.56587611845E+02  0.26758122599E+03  0.29857691099E+03  0.41800000000E+01 0.  1.
        -11    1    1    2    0    0  0.10527331071E+03  0.30772526891E+01  0.36702432022E+02  0.11153030058E+03  0.00000000000E+00 0. -1.
         11    1    1    2    0    0  0.16488894875E+02 -0.26389799219E+02 -0.46177175837E+02  0.55683361296E+02  0.00000000000E+00 0.  1.
</event>
<event>
 7    1  0.2855090E-009  0.1323012E+03  0.7561462E-02  0.1224081E+00
         -2   -1    0    0    0  501 -0.00000000000E+00  0.00000000000E+00  0.78939356861E+02  0.78939356861E+02  0.00000000000E+00 0. -1.
          2   -1    0    0  501    0  0.00000000000E+00 -0.00000000000E+00 -0.27284931743E+03  0.27284931743E+03  0.00000000000E+00 0.  1.
         25    2    1    2    0    0 -0.55498199830E+02 -0.69384812387E+02 -0.15600925511E+03  0.21881489689E+03  0.12508704588E+03 0.  0.
          5    1    3    3  502    0  0.26304402661E+02 -0.44919562082E+02 -0.10992543458E+03  0.12169947504E+03  0.41800000000E+01 0. -1.
         -5    1    3    3    0  502 -0.81802602492E+02 -0.24465250305E+02 -0.46083820525E+02  0.97115421850E+02  0.41800000000E+01 0. -1.
        -11    1    1    2    0    0 -0.11321964343E+02  0.58021382164E+02 -0.11440895438E+02  0.60212637820E+02  0.00000000000E+00 0. -1.
         11    1    1    2    0    0  0.66820164173E+02  0.11363430223E+02 -0.26459810024E+02  0.72761139581E+02  0.00000000000E+00 0.  1.
</event>
<event>
 7    1  0.2855090E-009  0.2101468E+03  0.7561462E-02  0.1141450E+00
          2   -1    0    0  501    0  0.00000000000E+00  0.00000000000E+00  0.46220307185E+02  0.46220307185E+02  0.00000000000E+00 0. -1.
         -2   -1    0    0    0  501 -0.00000000000E+00 -0.00000000000E+00 -0.11772353540E+04  0.11772353540E+04  0.00000000000E+00 0.  1.
         25    2    1    2    0    0  0.13282179385E+02  0.19763440579E+03 -0.73769645539E+03  0.77400219940E+03  0.12509024639E+03 0.  0.
          5    1    3    3  502    0  0.36194472819E+02  0.22649553462E+02 -0.28313543964E+03  0.28636723226E+03  0.41800000000E+01 0.  1.
         -5    1    3    3    0  502 -0.22912293434E+02  0.17498485233E+03 -0.45456101575E+03  0.48763496714E+03  0.41800000000E+01 0.  1.
        -11    1    1    2    0    0  0.11153266668E+02 -0.50738765714E+02 -0.19286718525E+03  0.19974125475E+03  0.00000000000E+00 0.  1.
         11    1    1    2    0    0 -0.24435446052E+02 -0.14689564008E+03 -0.20045140613E+03  0.24971220699E+03  0.00000000000E+00 0. -1.
</event>
<event>
 7    1  0.2855090E-009  0.1039330E+03  0.7561462E-02  0.1272236E+00
          1   -1    0    0  501    0  0.00000000000E+00  0.00000000000E+00  0.21449073866E+03  0.21449073866E+03  0.00000000000E+00 0. -1.
         -1   -1    0    0    0  501 -0.00000000000E+00 -0.00000000000E+00 -0.16050517524E+03  0.16050517524E+03  0.00000000000E+00 0.  1.
         25    2    1    2    0    0  0.42490427553E+02 -0.79515950131E+01 -0.11688881708E+03  0.17658462825E+03  0.12510184283E+03 0.  0.
          5    1    3    3  502    0  0.55701451111E+01  0.54527500159E+02 -0.73998573238E+02  0.92182080858E+02  0.41800000000E+01 0.  1.
         -5    1    3    3    0  502  0.36920282442E+02 -0.62479095172E+02 -0.42890243838E+02  0.84402547388E+02  0.41800000000E+01 0.  1.
        -11    1    1    2    0    0  0.11566153870E+02  0.21553969856E+02  0.12152790870E+03  0.12396524564E+03  0.00000000000E+00 0. -1.
         11    1    1    2    0    0 -0.54056581423E+02 -0.13602374843E+02  0.49346471789E+02  0.74446040020E+02  0.00000000000E+00 0.  1.
</event>
<event>
 7    1  0.2993672E-009  0.6739354E+02  0.7561462E-02  0.1369188E+00
         -2   -1    0    0    0  501 -0.00000000000E+00  0.00000000000E+00  0.33481506277E+03  0.33481506277E+03  0.00000000000E+00 0.  1.
          2   -1    0    0  501    0  0.00000000000E+00 -0.00000000000E+00 -0.45863186078E+02  0.45863186078E+02  0.00000000000E+00 0. -1.
         25    2    1    2    0    0  0.43910335243E+02  0.36074038732E+02  0.19085040230E+03  0.23516060895E+03  0.12508869706E+03 0.  0.
          5    1    3    3  502    0  0.17245340321E+02  0.23863112282E+02  0.20149825986E+03  0.20368080670E+03  0.41800000000E+01 0.  1.
         -5    1    3    3    0  502  0.26664994922E+02  0.12210926450E+02 -0.10647857562E+02  0.31479802249E+02  0.41800000000E+01 0.  1.
        -11    1    1    2    0    0 -0.55053121901E+02 -0.31005966944E+02  0.11100745707E+03  0.12772968231E+03  0.00000000000E+00 0.  1.
         11    1    1    2    0    0  0.11142786657E+02 -0.50680717883E+01 -0.12905982683E+02  0.17787957588E+02  0.00000000000E+00 0. -1.
</event>
<event>
 7    1  0.2855090E-009  0.1564431E+03  0.7561462E-02  0.1192772E+00
         -2   -1    0    0    0  501 -0.00000000000E+00  0.00000000000E+00  0.11850398780E+02  0.11850398780E+02  0.00000000000E+00 0.  1.
          2   -1    0    0  501    0  0.00000000000E+00 -0.00000000000E+00 -0.23401542827E+04  0.23401542827E+04  0.00000000000E+00 0. -1.
         25    2    1    2    0    0 -0.11063799885E+03  0.41553195928E+02 -0.15550825404E+04  0.15645745607E+04  0.12507763048E+03 0.  0.
          5    1    3    3  502    0  0.22621659529E+02 -0.84890881217E+01 -0.12241322377E+03  0.12484499930E+03  0.41800000000E+01 0.  1.
         -5    1    3    3    0  502 -0.13325965838E+03  0.50042284050E+02 -0.14326693166E+04  0.14397295614E+04  0.41800000000E+01 0.  1.
        -11    1    1    2    0    0  0.86192858556E+02 -0.68115861335E+02 -0.64210240909E+03  0.65143263903E+03  0.00000000000E+00 0.  1.
         11    1    1    2    0    0  0.24445140293E+02  0.26562665407E+02 -0.13111893444E+03  0.13599748176E+03  0.00000000000E+00 0. -1.
</event>
<event>
 7    1  0.2855090E-009  0.1101150E+03  0.7561462E-02  0.1260357E+00
         -2   -1    0    0    0  501 -0.00000000000E+00  0.00000000000E+00  0.18857372063E+03  0.18857372063E+03  0.00000000000E+00 0.  1.
          2   -1    0    0  501    0  0.00000000000E+00 -0.00000000000E+00 -0.92387662557E+02  0.92387662557E+02  0.00000000000E+00 0. -1.
         25    2    1    2    0    0 -0.21237873388E+02  0.39278676358E+02 -0.12737080175E+02  0.13342951709E+03  0.12508933262E+03 0.  0.
          5    1    3    3  502    0 -0.36113914413E+02  0.74153664745E+02  0.17900952313E+02  0.84503830109E+02  0.41800000000E+01 0.  1.
         -5    1    3    3    0  502  0.14876041026E+02 -0.34874988387E+02 -0.30638032488E+02  0.48925686979E+02  0.41800000000E+01 0.  1.
        -11    1    1    2    0    0  0.53339127718E+02 -0.66932295267E+01  0.57997515575E+02  0.79079540212E+02  0.00000000000E+00 0.  1.
         11    1    1    2    0    0 -0.32101254330E+02 -0.32585446831E+02  0.50925622676E+02  0.68452325889E+02  0.00000000000E+00 0. -1.
</event>
<event>
 7    1  0.2855090E-009  0.9266860E+02  0.7561462E-02  0.1296515E+00
         -1   -1    0    0    0  501 -0.00000000000E+00  0.00000000000E+00  0.66763676064E+02  0.66763676064E+02  0.00000000000E+00 0.  1.
          1   -1    0    0  501    0  0.00000000000E+00 -0.00000000000E+00 -0.21576076600E+03  0.21576076600E+03  0.00000000000E+00 0. -1.
         25    2    1    2    0    0 -0.28107806309E+02  0.42158171610E+02 -0.78109115777E+02  0.15593610705E+03  0.12509066834E+03 0.  0.
          5    1    3    3  502    0 -0.13541033826E+02 -0.15573699158E+02 -0.92228019419E+02  0.94601161031E+02  0.41800000000E+01 0. -1.
         -5    1    3    3    0  502 -0.14566772483E+02  0.57731870768E+02  0.14118903642E+02  0.61334946018E+02  0.41800000000E+01 0. -1.
        -11    1    1    2    0    0  0.23941997403E+02  0.26554496966E+02 -0.19864548291E+02  0.40901843816E+02  0.00000000000E+00 0.  1.
         11    1    1    2    0    0  0.41658089062E+01 -0.68712668575E+02 -0.51023425869E+02  0.85686491199E+02  0.00000000000E+00 0. -1.
</event>
<event>
 7    1  0.2855090E-009  0.1390621E+03  0.7561462E-02  0.1214597E+00
          1   -1    0    0  501    0  0.00000000000E+00  0.00000000000E+00  0.57199472447E+02  0.57199472447E+02  0.00000000000E+00 0. -1.
         -1   -1    0    0    0  501 -0.00000000000E+00 -0.00000000000E+00 -0.59690101640E+03  0.59690101640E+03  0.00000000000E+00 0.  1.
         25    2    1    2    0    0 -0.11688900443E+03  0.49085293530E+02 -0.42406479096E+03  0.45994643605E+03  0.12508945480E+03 0.  0.
          5    1    3    3  502    0 -0.41450584592E+01 -0.93204117539E+01  0.52634580852E+01  0.12215890303E+02  0.41800000000E+01 0. -1.
         -5    1    3    3    0  502 -0.11274394597E+03  0.58405705284E+02 -0.42932824905E+03  0.44773054574E+03  0.41800000000E+01 0. -1.
        -11    1    1    2    0    0  0.53660057822E+02  0.87480667141E+01 -0.89229318758E+02  0.10448828548E+03  0.00000000000E+00 0.  1.
         11    1    1    2    0    0  0.63228946604E+02 -0.57833360244E+02 -0.26407434230E+02  0.89665767317E+02  0.00000000000E+00 0. -1.
</event>
<event>
 7    1  0.2855090E-009  0.1495551E+03  0.7561462E-02  0.1201021E+00
         -2   -1    0    0    0  501 -0.00000000000E+00  0.00000000000E+00  0.36369210073E+03  0.36369210073E+03  0.00000000000E+00 0.  1.
          2   -1    0    0  501    0  0.00000000000E+00 -0.00000000000E+00 -0.67750053151E+02  0.67750053151E+02  0.00000000000E+00 0. -1.
         25    2    1    2    0    0  0.10586921547E+03 -0.46917178297E+01  0.98868280364E+02  0.19144887530E+03  0.12508969578E+03 0.  0.
          5    1    3    3  502    0 -0.19643082726E+02  0.27379961720E+02  0.15393654442E+02  0.37282033205E+02  0.41800000000E+01 0. -1.
         -5    1    3    3    0  502  0.12551229820E+03 -0.32071679550E+02  0.83474625921E+02  0.15416684209E+03  0.41800000000E+01 0. -1.
        -11    1    1    2    0    0 -0.35503208562E+02 -0.38980403937E+02  0.60296687921E+02  0.80097692123E+02  0.00000000000E+00 0. -1.
         11    1    1    2    0    0 -0.70366006913E+02  0.43672121766E+02  0.13677707929E+03  0.15989558646E+03  0.00000000000E+00 0.  1.
</event>
<event>
 7    1  0.2855090E-009  0.1294922E+03  0.7561462E-02  0.1228211E+00
          1   -1    0    0  501    0  0.00000000000E+00  0.00000000000E+00  0.16719328773E+04  0.16719328773E+04  0.00000000000E+00 0. -1.
         -1   -1    0    0    0  501 -0.00000000000E+00 -0.00000000000E+00 -0.12311705016E+02  0.12311705016E+02  0.00000000000E+00 0.  1.
         25    2    1    2    0    0 -0.66920315394E+02 -0.66048288177E+02  0.95740444841E+03  0.97010897667E+03  0.12508974295E+03 0.  0.
          5    1    3    3  502    0 -0.75841278756E+02 -0.81718508880E+02  0.93212175288E+03  0.93877486590E+03  0.41800000000E+01 0. -1.
         -5    1    3    3    0  502  0.89209633620E+01  0.15670220703E+02  0.25282695529E+02  0.31334110765E+02  0.41800000000E+01 0. -1.
        -11    1    1    2    0    0  0.56219788073E+02  0.88035014049E+02  0.60080357858E+03  0.60981617583E+03  0.00000000000E+00 0. -1.
         11    1    1    2    0    0  0.10700527321E+02 -0.21986725872E+02  0.10141314532E+03  0.10431942985E+03  0.00000000000E+00 0.  1.
</event>
<event>
 7    1  0.2855090E-009  0.1000182E+03  0.7561462E-02  0.1280258E+00
          1   -1    0    0  501    0  0.00000000000E+00  0.00000000000E+00  0.10877936947E+03  0.10877936947E+03  0.00000000000E+00 0. -1.
         -1   -1    0    0    0  501 -0.00000000000E+00 -0.00000000000E+00 -0.11446516744E+03  0.11446516744E+03  0.00000000000E+00 0.  1.
         25    2    1    2    0    0 -0.20439080097E+02 -0.16975163248E+02 -0.34748537844E+01  0.12793019976E+03  0.12509256269E+03 0.  0.
          5    1    3    3  502    0 -0.12517131962E+02  0.43035970764E+02  0.34179708861E+02  0.56519892693E+02  0.41800000000E+01 0.  1.
         -5    1    3    3    0  502 -0.79219481345E+01 -0.60011134012E+02 -0.37654562645E+02  0.71410307069E+02  0.41800000000E+01 0.  1.
        -11    1    1    2    0    0 -0.34103787794E+02  0.20324960994E+02  0.56680742335E+01  0.40103608900E+02  0.00000000000E+00 0. -1.
         11    1    1    2    0    0  0.54542867891E+02 -0.33497977460E+01 -0.78790184226E+01  0.55210728251E+02  0.00000000000E+00 0.  1.
</event>
<event>
 7    1  0.2855090E-009  0.1047433E+03  0.7561462E-02  0.1270626E+00
         -1   -1    0    0    0  501 -0.00000000000E+00  0.00000000000E+00  0.22737810002E+02  0.22737810002E+02  0.00000000000E+00 0.  1.
          1   -1    0    0  501    0  0.00000000000E+00 -0.00000000000E+00 -0.61421849737E+03  0.61421849737E+03  0.00000000000E+00 0. -1.
         25    2    1    2    0    0 -0.13522443303E+02 -0.32910582279E+02 -0.41546816995E+03  0.43534910348E+03  0.12509627794E+03 0.  0.
          5    1    3    3  502    0 -0.24279012157E+02  0.39198134111E+02 -0.25331069924E+03  0.25750679000E+03  0.41800000000E+01 0. -1.
         -5    1    3    3    0  502  0.10756568855E+02 -0.72108716389E+02 -0.16215747071E+03  0.17784231347E+03  0.41800000000E+01 0. -1.
        -11    1    1    2    0    0  0.48609688386E+02  0.15700876008E+02 -0.57978840173E+02  0.77272020940E+02  0.00000000000E+00 0.  1.
         11    1    1    2    0    0 -0.35087245083E+02  0.17209706270E+02 -0.11803367724E+03  0.12433518295E+03  0.00000000000E+00 0. -1.
</event>
<event>
 7    1  0.2855090E-009  0.3439824E+03  0.7561462E-02  0.1065112E+00
         -2   -1    0    0    0  501 -0.00000000000E+00  0.00000000000E+00  0.14811068204E+03  0.14811068204E+03  0.00000000000E+00 0.  1.
          2   -1    0    0  501    0  0.00000000000E+00 -0.00000000000E+00 -0.87329903290E+03  0.87329903290E+03  0.00000000000E+00 0. -1.
         25    2    1    2    0    0  0.15659256791E+03 -0.30374333254E+03 -0.40118416875E+03  0.54164643956E+03  0.12510349254E+03 0.  0.
          5    1    3    3  502    0  0.15276288462E+03 -0.28168950953E+03 -0.30362365314E+03  0.44146378543E+03  0.41800000000E+01 0.  1.
         -5    1    3    3    0  502  0.38296832869E+01 -0.22053823011E+02 -0.97560515605E+02  0.10018265413E+03  0.41800000000E+01 0.  1.
        -11    1    1    2    0    0 -0.12212084420E+03  0.18993914634E+03 -0.15814027629E+03  0.27567866599E+03  0.00000000000E+00 0.  1.
         11    1    1    2    0    0 -0.34471723704E+02  0.11380418620E+03 -0.16586390582E+03  0.20408460938E+03  0.00000000000E+00 0. -1.
</event>
<event>
 7    1  0.2855090E-009  0.3182697E+03  0.7561462E-02  0.1076448E+00
          3   -1    0    0  501    0  0.00000000000E+00  0.00000000000E+00  0.73443523631E+03  0.73443523631E+03  0.00000000000E+00 0. -1.
         -3   -1    0    0    0  501 -0.00000000000E+00 -0.00000000000E+00 -0.15043239929E+03  0.15043239929E+03  0.00000000000E+00 0.  1.
         25    2    1    2    0    0  0.11396844744E+03 -0.29207540740E+03  0.27441542990E+03  0.43502685992E+03  0.12509072735E+03 0.  0.
          5    1    3    3  502    0  0.29199264913E+02 -0.14857787027E+03  0.58835586786E+02  0.16250255160E+03  0.41800000000E+01 0. -1.
         -5    1    3    3    0  502  0.84769182523E+02 -0.14349753713E+03  0.21557984311E+03  0.27252430832E+03  0.41800000000E+01 0. -1.
        -11    1    1    2    0    0 -0.42561352395E+02  0.48545647612E+02  0.26878518947E+02  0.69932849223E+02  0.00000000000E+00 0.  1.
         11    1    1    2    0    0 -0.71407095042E+02  0.24352975979E+03  0.28270888818E+03  0.37990792645E+03  0.00000000000E+00 0. -1.
</event>
<event>
 7    1  0.2855090E-009  0.2907055E+03  0.7561462E-02  0.1089981E+00
         -1   -1    0    0    0  501 -0.00000000000E+00  0.00000000000E+00  0.30984983401E+03  0.30984983401E+03  0.00000000000E+00 0.  1.
          1   -1    0    0  501    0  0.00000000000E+00 -0.00000000000E+00 -0.30527041146E+03  0.30527041146E+03  0.00000000000E+00 0. -1.
         25    2    1    2    0    0  0.23741096512E+03 -0.12658032173E+03 -0.90852337144E+02  0.31030390426E+03  0.12509125321E+03 0.  0.
          5    1    3    3  502    0  0.22199436157E+03 -0.63161966393E+02 -0.63516058651E+02  0.23942157939E+03  0.41800000000E+01 0. -1.
         -5    1    3    3    0  502  0.15416603544E+02 -0.63418355334E+02 -0.27336278493E+02  0.70882324877E+02  0.41800000000E+01 0. -1.
        -11    1    1    2    0    0 -0.73732944212E+02 -0.67747436143E+01  0.23464879661E+01  0.74080700719E+02  0.00000000000E+00 0.  1.
         11    1    1    2    0    0 -0.16367802091E+03  0.13335506534E+03  0.93085271719E+02  0.23073564049E+03  0.00000000000E+00 0. -1.
</event>
<event>
 7    1  0.2855090E-009  0.1107763E+03  0.7561462E-02  0.1259139E+00
          2   -1    0    0  501    0  0.00000000000E+00  0.00000000000E+00  0.14309026817E+03  0.14309026817E+03  0.00000000000E+00 0. -1.
         -2   -1    0    0    0  501 -0.00000000000E+00 -0.00000000000E+00 -0.11488923308E+03  0.11488923308E+03  0.00000000000E+00 0.  1.
         25    2    1    2    0    0  0.48407694966E+02 -0.33839856862E+02  0.28156421853E+02  0.14116795837E+03  0.12508863871E+03 0.  0.
          5    1    3    3  502    0  0.85206675037E+02  0.10691692178E+01  0.56022438199E+01  0.85499579703E+02  0.41800000000E+01 0.  1.
         -5    1    3    3    0  502 -0.36798980071E+02 -0.34909026080E+02  0.22554178033E+02  0.55668378662E+02  0.41800000000E+01 0.  1.
        -11    1    1    2    0    0 -0.10815515620E+02  0.44877832645E+02  0.39832070507E+02  0.60972035245E+02  0.00000000000E+00 0. -1.
         11    1    1    2    0    0 -0.37592179346E+02 -0.11037975783E+02 -0.39787457274E+02  0.55839507642E+02  0.00000000000E+00 0.  1.
</event>
<event>
 7    1  0.2855090E-009  0.9024760E+02  0.7561462E-02  0.1302253E+00
          1   -1    0    0  501    0  0.00000000000E+00  0.00000000000E+00  0.22041298270E+03  0.22041298270E+03  0.00000000000E+00 0. -1.
         -1   -1    0    0    0  501 -0.00000000000E+00 -0.00000000000E+00 -0.12327219842E+03  0.12327219842E+03  0.00000000000E+00 0.  1.
         25    2    1    2    0    0  0.11428845812E+02  0.48033279524E+02 -0.66057090003E+02  0.14983036531E+03  0.12509110588E+03 0.  0.
          5    1    3    3  502    0 -0.11741798315E+02  0.59801885669E+02 -0.93575731789E+02  0.11174983372E+03  0.41800000000E+01 0. -1.
         -5    1    3    3    0  502  0.23170644127E+02 -0.11768606145E+02  0.27518641786E+02  0.38080531583E+02  0.41800000000E+01 0. -1.
        -11    1    1    2    0    0 -0.36968377756E+02  0.18824007862E+01  0.11188462750E+03  0.11784894678E+03  0.00000000000E+00 0. -1.
         11    1    1    2    0    0  0.25539531943E+02 -0.49915680310E+02  0.51313246790E+02  0.76005869042E+02  0.00000000000E+00 0.  1.
</event>
<event>
 7    1  0.2855090E-009  0.5934491E+02  0.7561462E-02  0.1400602E+00
          4   -1    0    0  501    0  0.00000000000E+00  0.00000000000E+00  0.26395890613E+03  0.26395890613E+03  0.00000000000E+00 0. -1.
         -4   -1    0    0    0  501 -0.00000000000E+00 -0.00000000000E+00 -0.45964364439E+02  0.45964364439E+02  0.00000000000E+00 0.  1.
         25    2    1    2    0    0 -0.61280528987E+01 -0.91265569605E+01  0.10548925253E+03  0.16400210925E+03  0.12509141603E+03 0.  0.
          5    1    3    3  502    0  0.83039529779E+00  0.24417473303E+02  0.12288062093E+03  0.12535558208E+03  0.41800000000E+01 0. -1.
         -5    1    3    3    0  502 -0.69584481965E+01 -0.33544030263E+02 -0.17391368398E+02  0.38646527170E+02  0.41800000000E+01 0. -1.
        -11    1    1    2    0    0 -0.11545374072E+01  0.33721117293E+02  0.34807760375E+01  0.33919942658E+02  0.00000000000E+00 0.  1.
         11    1    1    2    0    0  0.72825903058E+01 -0.24594560332E+02  0.10902451312E+03  0.11200121865E+03  0.00000000000E+00 0. -1.
</event>
<event>
 7    1  0.2855090E-009  0.2567040E+03  0.7561462E-02  0.1109140E+00
         -1   -1    0    0    0  501 -0.00000000000E+00  0.00000000000E+00  0.92939149236E+02  0.92939149236E+02  0.00000000000E+00 0.  1.
          1   -1    0    0  501    0  0.00000000000E+00 -0.00000000000E+00 -0.10717762655E+04  0.10717762655E+04  0.00000000000E+00 0. -1.
         25    2    1    2    0    0 -0.23615425874E+03  0.93587613836E+02 -0.21803940514E+03  0.35737178814E+03  0.12508372149E+03 0.  0.
          5    1    3    3  502    0 -0.72966760171E+02  0.44928365708E+02 -0.68729066151E+01  0.86066342901E+02  0.41800000000E+01 0. -1.
         -5    1    3    3    0  502 -0.16318749857E+03  0.48659248128E+02 -0.21116649852E+03  0.27130544524E+03  0.41800000000E+01 0. -1.
        -11    1    1    2    0    0  0.98937228517E+02 -0.17811688144E+02 -0.42551768765E+03  0.43723121335E+03  0.00000000000E+00 0. -1.
         11    1    1    2    0    0  0.13721703022E+03 -0.75775925692E+02 -0.33528002343E+03  0.37011241321E+03  0.00000000000E+00 0.  1.
</event>
<event>
 7    1  0.2855090E-009  0.1272568E+03  0.7561462E-02  0.1231584E+00
         -4   -1    0    0    0  501 -0.00000000000E+00  0.00000000000E+00  0.42432388476E+03  0.42432388476E+03  0.00000000000E+00 0.  1.
          4   -1    0    0  501    0  0.00000000000E+00 -0.00000000000E+00 -0.40077199832E+02  0.40077199832E+02  0.00000000000E+00 0. -1.
         25    2    1    2    0    0  0.15143087600E+02  0.69749454005E+02  0.22873797778E+03  0.27030148393E+03  0.12509008875E+03 0.  0.
          5    1    3    3  502    0  0.43346835756E+02  0.95804948987E+02  0.16159201426E+03  0.19283927995E+03  0.41800000000E+01 0.  1.
         -5    1    3    3    0  502 -0.28203748155E+02 -0.26055494983E+02  0.67145963517E+02  0.77462203980E+02  0.41800000000E+01 0.  1.
        -11    1    1    2    0    0  0.49865409805E+01 -0.85156635700E+02  0.14126642111E+03  0.16502339207E+03  0.00000000000E+00 0.  1.
         11    1    1    2    0    0 -0.20129628581E+02  0.15407181695E+02  0.14242286038E+02  0.29076208593E+02  0.00000000000E+00 0. -1.
</event>
<event>
 7    1  0.2855090E-009  0.1083156E+03  0.7561462E-02  0.1263721E+00
         -1   -1    0    0    0  501 -0.00000000000E+00  0.00000000000E+00  0.10476677906E+04  0.10476677906E+04  0.00000000000E+00 0.  1.
          1   -1    0    0  501    0  0.00000000000E+00 -0.00000000000E+00 -0.14175899688E+02  0.14175899688E+02  0.00000000000E+00 0. -1.
         25    2    1    2    0    0 -0.25619022152E+02 -0.32317360711E+02  0.74587892732E+03  0.75741900392E+03  0.12508967653E+03 0.  0.
          5    1    3    3  502    0 -0.68283121755E+02  0.12581757366E+02  0.40699811338E+03  0.41289928800E+03  0.41800000000E+01 0.  1.
         -5    1    3    3    0  502  0.42664099603E+02 -0.44899118076E+02  0.33888081394E+03  0.34451971592E+03  0.41800000000E+01 0.  1.
        -11    1    1    2    0    0  0.32911975736E+02 -0.15673518557E+02  0.20807603602E+03  0.21124510432E+03  0.00000000000E+00 0.  1.
         11    1    1    2    0    0 -0.72929535843E+01  0.47990879268E+02  0.79536927568E+02  0.93179582055E+02  0.00000000000E+00 0. -1.
</event>
<event>
 7    1  0.2855090E-009  0.1078824E+03  0.7561462E-02  0.1264542E+00
         -1   -1    0    0    0  501 -0.00000000000E+00  0.00000000000E+00  0.30999618236E+02  0.30999618236E+02  0.00000000000E+00 0.  1.
          1   -1    0    0  501    0  0.00000000000E+00 -0.00000000000E+00 -0.47809631005E+03  0.47809631005E+03  0.00000000000E+00 0. -1.
         25    2    1    2    0    0 -0.19521182232E+02 -0.52641731145E+02 -0.25688823375E+03  0.29119164025E+03  0.12509507703E+03 0.  0.
          5    1    3    3  502    0 -0.32467008667E+00  0.27243763482E+02 -0.74729972995E+01  0.28559519394E+02  0.41800000000E+01 0. -1.
         -5    1    3    3    0  502 -0.19196512146E+02 -0.79885494628E+02 -0.24941523645E+03  0.26263212085E+03  0.41800000000E+01 0. -1.
        -11    1    1    2    0    0  0.45063557269E+02  0.63759976836E+02 -0.13174328413E+03  0.15314160687E+03  0.00000000000E+00 0. -1.
         11    1    1    2    0    0 -0.25542375036E+02 -0.11118245691E+02 -0.58465173932E+02  0.64762681172E+02  0.00000000000E+00 0.  1.
</event>
<event>
 7    1  0.2855090E-009  0.1106001E+03  0.7561462E-02  0.1259463E+00
          2   -1    0    0  501    0  0.00000000000E+00  0.00000000000E+00  0.25490366346E+03  0.25490366346E+03  0.00000000000E+00 0. -1.
         -2   -1    0    0    0  501 -0.00000000000E+00 -0.00000000000E+00 -0.61180694049E+02  0.61180694049E+02  0.00000000000E+00 0.  1.
         25    2    1    2    0    0 -0.48471178259E+02 -0.65423175639E+01  0.15394442146E+03  0.20430055988E+03  0.12509027471E+03 0.  0.
          5    1    3    3  502    0  0.36017896971E+02 -0.25809163723E+02  0.32772297460E+02  0.55271129128E+02  0.41800000000E+01 0.  1.
         -5    1    3    3    0  502 -0.84489075230E+02  0.19266846159E+02  0.12117212400E+03  0.14902943075E+03  0.41800000000E+01 0.  1.
        -11    1    1    2    0    0 -0.18900331343E+02  0.11925481637E+02 -0.13158052187E+02  0.25934031204E+02  0.00000000000E+00 0.  1.
         11    1    1    2    0    0  0.67371509602E+02 -0.53831640729E+01  0.52936600133E+02  0.85849766424E+02  0.00000000000E+00 0. -1.
</event>
<event>
 7    1  0.2855090E-009  0.1720929E+03  0.7561462E-02  0.1175683E+00
          1   -1    0    0  501    0  0.00000000000E+00  0.00000000000E+00  0.32649016020E+03  0.32649016020E+03  0.00000000000E+00 0. -1.
         -1   -1    0    0    0  501 -0.00000000000E+00 -0.00000000000E+00 -0.18529737429E+03  0.18529737429E+03  0.00000000000E+00 0.  1.
         25    2    1    2    0    0 -0.15200427184E+03  0.15792820945E+02 -0.92428830848E+02  0.21804772698E+03  0.12508801149E+03 0.  0.
          5    1    3    3  502    0 -0.14158431927E+03  0.34654022171E+02 -0.26047558973E+02  0.14813159165E+03  0.41800000000E+01 0. -1.
         -5    1    3    3    0  502 -0.10419952564E+02 -0.18861201226E+02 -0.66381271875E+02  0.69916135326E+02  0.41800000000E+01 0. -1.
        -11    1    1    2    0    0  0.11051750768E+03 -0.51264855229E+02  0.14208312500E+03  0.18716254779E+03  0.00000000000E+00 0.  1.
         11    1    1    2    0    0  0.41486764156E+02  0.35472034284E+02  0.91538491757E+02  0.10657725972E+03  0.00000000000E+00 0. -1.
</event>
<event>
 7    1  0.2855090E-009  0.1669121E+03  0.7561462E-02  0.1181107E+00
          2   -1    0    0  501    0  0.00000000000E+00  0.00000000000E+00  0.62436322228E+02  0.62436322228E+02  0.00000000000E+00 0. -1.
         -2   -1    0    0    0  501 -0.00000000000E+00 -0.00000000000E+00 -0.53503223334E+03  0.53503223334E+03  0.00000000000E+00 0.  1.
         25    2    1    2    0    0  0.12435807123E+02 -0.13648734932E+03 -0.33283321082E+03  0.38106293831E+03  0.12509025103E+03 0.  0.
          5    1    3    3  502    0  0.48017560171E+02 -0.13334210853E+02 -0.51052690363E+02  0.71465634099E+02  0.41800000000E+01 0. -1.
         -5    1    3    3    0  502 -0.35581753048E+02 -0.12315313847E+03 -0.28178052045E+03  0.30959730421E+03  0.41800000000E+01 0. -1.
        -11    1    1    2    0    0  0.29365217711E+02  0.80475906078E+02 -0.11246082841E+03  0.14137229360E+03  0.00000000000E+00 0.  1.
         11    1    1    2    0    0 -0.41801024835E+02  0.56011443244E+02 -0.27301871881E+02  0.75033323662E+02  0.00000000000E+00 0. -1.
</event>
<event>
 7    1  0.2855090E-009  0.1414228E+03  0.7561462E-02  0.1211427E+00
         -2   -1    0    0    0  501 -0.00000000000E+00  0.00000000000E+00  0.10697057907E+03  0.10697057907E+03  0.00000000000E+00 0.  1.
          2   -1    0    0  501    0  0.00000000000E+00 -0.00000000000E+00 -0.35334789621E+03  0.35334789621E+03  0.00000000000E+00 0. -1.
         25    2    1    2    0    0  0.98736997170E+02  0.82757933349E+02 -0.23380995220E+03  0.29481845435E+03  0.12511177857E+03 0.  0.
          5    1    3    3  502    0  0.56573571883E+02  0.39139282063E+02 -0.18890335531E+02  0.71461665335E+02  0.41800000000E+01 0. -1.
         -5    1    3    3    0  502  0.42163425287E+02  0.43618651286E+02 -0.21491961666E+03  0.22335678902E+03  0.41800000000E+01 0. -1.
        -11    1    1    2    0    0 -0.72624942666E+01 -0.57859749561E+02  0.25103038541E+02  0.63487455346E+02  0.00000000000E+00 0.  1.
         11    1    1    2    0    0 -0.91474502904E+02 -0.24898183788E+02 -0.37670403483E+02  0.10201256558E+03  0.00000000000E+00 0. -1.
</event>
<event>
 7    1  0.2855090E-009  0.1343338E+03  0.7561462E-02  0.1221163E+00
          1   -1    0    0  501    0  0.00000000000E+00  0.00000000000E+00  0.12322954355E+03  0.12322954355E+03  0.00000000000E+00 0. -1.
         -1   -1    0    0    0  501 -0.00000000000E+00 -0.00000000000E+00 -0.19870818621E+03  0.19870818621E+03  0.00000000000E+00 0.  1.
         25    2    1    2    0    0 -0.20775747720E+02  0.10116469286E+03 -0.13177841033E+01  0.16222143917E+03  0.12509249377E+03 0.  0.
          5    1    3    3  502    0  0.60648876742E+01  0.10640521890E+03  0.38792906762E+02  0.11349544258E+03  0.41800000000E+01 0. -1.
         -5    1    3    3    0  502 -0.26840635395E+02 -0.52405260441E+01 -0.40110690865E+02  0.48725996586E+02  0.41800000000E+01 0. -1.
        -11    1    1    2    0    0 -0.23621760808E+02 -0.83131880041E+02 -0.22606847604E+02  0.89330658911E+02  0.00000000000E+00 0. -1.
         11    1    1    2    0    0  0.44397508528E+02 -0.18032812817E+02 -0.51554010951E+02  0.70385631678E+02  0.00000000000E+00 0.  1.
</event>
<event>
 7    1  0.2855090E-009  0.1082424E+03  0.7561462E-02  0.1263860E+00
          1   -1    0    0  501    0  0.00000000000E+00  0.00000000000E+00  0.69903714940E+02  0.69903714940E+02  0.00000000000E+00 0. -1.
         -1   -1    0    0    0  501 -0.00000000000E+00 -0.00000000000E+00 -0.30889935816E+03  0.30889935816E+03  0.00000000000E+00 0.  1.
         25    2    1    2    0    0 -0.43090426926E+02 -0.26648439748E+02 -0.19270214191E+02  0.13633124157E+03  0.12509173450E+03 0.  0.
          5    1    3    3  502    0  0.11247450450E+02  0.39114708749E+02  0.15992284681E+02  0.43928250038E+02  0.41800000000E+01 0. -1.
         -5    1    3    3    0  502 -0.54337877376E+02 -0.65763148497E+02 -0.35262498871E+02  0.92402991535E+02  0.41800000000E+01 0. -1.
        -11    1    1    2    0    0  0.62720437696E+02  0.82571683221E+01 -0.19810516163E+03  0.20796078764E+03  0.00000000000E+00 0.  1.
         11    1    1    2    0    0 -0.19630010771E+02  0.18391271426E+02 -0.21620267406E+02  0.34511043887E+02  0.00000000000E+00 0. -1.
</event>
<event>
 7    1  0.2855090E-009  0.1817927E+03  0.7561462E-02  0.1166079E+00
         -2   -1    0    0    0  501 -0.00000000000E+00  0.00000000000E+00  0.16685687365E+03  0.16685687365E+03  0.00000000000E+00 0.  1.
          2   -1    0    0  501    0  0.00000000000E+00 -0.00000000000E+00 -0.24871074201E+03  0.24871074201E+03  0.00000000000E+00 0. -1.
         25    2    1    2    0    0  0.16381529052E+03  0.43715404385E+02 -0.71945121656E+02  0.22264820262E+03  0.12509850363E+03 0.  0.
          5    1    3    3  502    0  0.13349906955E+03  0.18983189161E+02  0.63136893056E+01  0.13505442649E+03  0.41800000000E+01 0.  1.
         -5    1    3    3    0  502  0.30316220969E+02  0.24732215223E+02 -0.78258810961E+02  0.87593776130E+02  0.41800000000E+01 0.  1.
        -11    1    1    2    0    0 -0.45116190835E+02  0.25602153372E+02 -0.18798373813E+02  0.55175354921E+02  0.00000000000E+00 0. -1.
         11    1    1    2    0    0 -0.11869909968E+03 -0.69317557756E+02  0.88896271100E+01  0.13774405812E+03  0.00000000000E+00 0.  1.
</event>
<event>
 7    1  0.2855090E-009  0.9217378E+02  0.7561462E-02  0.1297671E+00
         -2   -1    0    0    0  501 -0.00000000000E+00  0.00000000000E+00  0.20038606713E+02  0.20038606713E+02  0.00000000000E+00 0.  1.
          2   -1    0    0  501    0  0.00000000000E+00 -0.00000000000E+00 -0.82088842952E+03  0.82088842952E+03  0.00000000000E+00 0. -1.
         25    2    1    2    0    0 -0.39740515054E+02  0.48260680640E+02 -0.55434593552E+03  0.57171230691E+03  0.12508854391E+03 0.  0.
          5    1    3    3  502    0  0.51882122508E+01  0.30272445828E+02 -0.24145859712E+02  0.39291646237E+02  0.41800000000E+01 0. -1.
         -5    1    3    3    0  502 -0.44928727304E+02  0.17988234812E+02 -0.53020007581E+03  0.53242066068E+03  0.41800000000E+01 0. -1.
        -11    1    1    2    0    0  0.65678551781E+02 -0.42421492783E+02 -0.15050955817E+03  0.16960655151E+03  0.00000000000E+00 0.  1.
         11    1    1    2    0    0 -0.25938036728E+02 -0.58391878569E+01 -0.95994329115E+02  0.99608177808E+02  0.00000000000E+00 0. -1.
</event>
<event>
 7    1  0.3490684E-009  0.7565383E+02  0.7561462E-02  0.1341858E+00
         -1   -1    0    0    0  501 -0.00000000000E+00  0.00000000000E+00  0.68937923736E+02  0.68937923736E+02  0.00000000000E+00 0.  1.
          1   -1    0    0  501    0  0.00000000000E+00 -0.00000000000E+00 -0.25900392651E+03  0.25900392651E+03  0.00000000000E+00 0. -1.
         25    2    1    2    0    0 -0.19430895705E+02 -0.21412384963E+02 -0.19463442354E+03  0.23316463354E+03  0.12508851892E+03 0.  0.
          5    1    3    3  502    0  0.27088733034E+02 -0.41660316843E+02 -0.24469802268E+02  0.55548403036E+02  0.41800000000E+01 0.  1.
         -5    1    3    3    0  502 -0.46519628738E+02  0.20247931880E+02 -0.17016462127E+03  0.17761623050E+03  0.41800000000E+01 0.  1.
        -11    1    1    2    0    0  0.14690833029E+02  0.34023543692E+02  0.41396855868E+02  0.55561873405E+02  0.00000000000E+00 0.  1.
         11    1    1    2    0    0  0.47400626758E+01 -0.12611158729E+02 -0.36828435102E+02  0.39215343307E+02  0.00000000000E+00 0. -1.
</event>
<event>
 7    1  0.2855090E-009  0.9170231E+02  0.7561462E-02  0.1298781E+00
          2   -1    0    0  501    0  0.00000000000E+00  0.00000000000E+00  0.22675427049E+03  0.22675427049E+03  0.00000000000E+00 0. -1.
         -2   -1    0    0    0  501 -0.00000000000E+00 -0.00000000000E+00 -0.61865445797E+02  0.61865445797E+02  0.00000000000E+00 0.  1.
         25    2    1    2    0    0  0.35011369598E+02 -0.18167375525E+02  0.11953808449E+03  0.17746124997E+03  0.12508913647E+03 0.  0.
          5    1    3    3  502    0  0.81372551225E+02 -0.90367182083E+01  0.89217205258E+02  0.12116243842E+03  0.41800000000E+01 0.  1.
         -5    1    3    3    0  502 -0.46361181626E+02 -0.91306573162E+01  0.30320879231E+02  0.56298811552E+02  0.41800000000E+01 0.  1.
        -11    1    1    2    0    0  0.55091568114E+01  0.11731219124E+02  0.64565506860E+02  0.65853450836E+02  0.00000000000E+00 0. -1.
         11    1    1    2    0    0 -0.40520526410E+02  0.64361564005E+01 -0.19214766660E+02  0.45305015479E+02  0.00000000000E+00 0.  1.
</event>
<event>
 7    1  0.2855090E-009  0.1108847E+03  0.7561462E-02  0.1258940E+00
         -2   -1    0    0    0  501 -0.00000000000E+00  0.00000000000E+00  0.29785738102E+03  0.29785738102E+03  0.00000000000E+00 0.  1.
          2   -1    0    0  501    0  0.00000000000E+00 -0.00000000000E+00 -0.49276303680E+02  0.49276303680E+02  0.00000000000E+00 0. -1.
         25    2    1    2    0    0  0.37640752820E+02 -0.25148622747E+02  0.18573922482E+03  0.22846564246E+03  0.12509280814E+03 0.  0.
          5    1    3    3  502    0  0.39705417099E+02  0.39620352317E+02  0.13436912711E+03  0.14566683626E+03  0.41800000000E+01 0.  1.
         -5    1    3    3    0  502 -0.20646642791E+01 -0.64768975064E+02  0.51370097707E+02  0.82798806198E+02  0.41800000000E+01 0.  1.
        -11    1    1    2    0    0 -0.40536857100E+02 -0.26774910128E+02  0.32678251612E+02  0.58549130859E+02  0.00000000000E+00 0.  1.
         11    1    1    2    0    0  0.28961042798E+01  0.51923532875E+02  0.30163600907E+02  0.60118911383E+02  0.00000000000E+00 0. -1.
</event>
<event>
 7    1  0.2855090E-009  0.6774130E+02  0.7561462E-02  0.1367947E+00
          1   -1    0    0  501    0  0.00000000000E+00  0.00000000000E+00  0.39724252181E+03  0.39724252181E+03  0.00000000000E+00 0. -1.
         -1   -1    0    0    0  501 -0.00000000000E+00 -0.00000000000E+00 -0.38952051140E+02  0.38952051140E+02  0.00000000000E+00 0.  1.
         25    2    1    2    0    0  0.39034381985E+02  0.40389868160E+02  0.21995780415E+03  0.25919840992E+03  0.12508939073E+03 0.  0.
          5    1    3    3  502    0  0.53136227881E+02  0.34329779835E+02  0.23118959449E+03  0.23972503727E+03  0.41800000000E+01 0. -1.
         -5    1    3    3    0  502 -0.14101845895E+02  0.60600883257E+01 -0.11231790336E+02  0.19473372649E+02  0.41800000000E+01 0. -1.
        -11    1    1    2    0    0 -0.10793056439E+02 -0.11696733132E+02 -0.12905919266E+02  0.20490641409E+02  0.00000000000E+00 0.  1.
         11    1    1    2    0    0 -0.28241325546E+02 -0.28693135028E+02  0.15123858578E+03  0.15650552161E+03  0.00000000000E+00 0. -1.
</event>
<event>
 7    1  0.2855090E-009  0.1432572E+03  0.7561462E-02  0.1209012E+00
         -2   -1    0    0    0  501 -0.00000000000E+00  0.00000000000E+00  0.34048407975E+02  0.34048407975E+02  0.00000000000E+00 0.  1.
          2   -1    0    0  501    0  0.00000000000E+00 -0.00000000000E+00 -0.70198062612E+03  0.70198062612E+03  0.00000000000E+00 0. -1.
         25    2    1    2    0    0 -0.19475945505E+02 -0.93866304301E+02 -0.48640681876E+03  0.51130116080E+03  0.12508832146E+03 0.  0.
          5    1    3    3  502    0  0.53312597932E+02 -0.37172485059E+02 -0.19161166798E+03  0.20237719845E+03  0.41800000000E+01 0. -1.
         -5    1    3    3    0  502 -0.72788543437E+02 -0.56693819242E+02 -0.29479515078E+03  0.30892396236E+03  0.41800000000E+01 0. -1.
        -11    1    1    2    0    0 -0.69038007419E+01  0.10136959615E+03 -0.11915014768E+03  0.15658932013E+03  0.00000000000E+00 0.  1.
         11    1    1    2    0    0  0.26379746247E+02 -0.75032918520E+01 -0.62375251703E+02  0.68138553152E+02  0.00000000000E+00 0. -1.
</event>
<event>
 7    1  0.2855090E-009  0.6323394E+02  0.7561462E-02  0.1384741E+00
         -2   -1    0    0    0  501 -0.00000000000E+00  0.00000000000E+00  0.66013948105E+02  0.66013948105E+02  0.00000000000E+00 0.  1.
          2   -1    0    0  501    0  0.00000000000E+00 -0.00000000000E+00 -0.29154061339E+03  0.29154061339E+03  0.00000000000E+00 0. -1.
         25    2    1    2    0    0 -0.12685103205E+02 -0.52325597698E+02 -0.21068906921E+03  0.25087649266E+03  0.12510096189E+03 0.  0.
          5    1    3    3  502    0 -0.18082163444E+02 -0.39204441805E+02 -0.38903481922E+01  0.43549513213E+02  0.41800000000E+01 0. -1.
         -5    1    3    3    0  502  0.53970602383E+01 -0.13121155893E+02 -0.20679872102E+03  0.20732697945E+03  0.41800000000E+01 0. -1.
        -11    1    1    2    0    0  0.21717943305E+02  0.81256272380E+01 -0.46228326492E+02  0.51718014750E+02  0.00000000000E+00 0. -1.
         11    1    1    2    0    0 -0.90328400999E+01  0.44199970460E+02  0.31390730418E+02  0.54960054086E+02  0.00000000000E+00 0.  1.
</event>
<event>
 7    1  0.2855090E-009  0.7187800E+02  0.7561462E-02  0.1353821E+00
          1   -1    0    0  501    0  0.00000000000E+00  0.00000000000E+00  0.79819458214E+03  0.79819458214E+03  0.00000000000E+00 0. -1.
         -1   -1    0    0    0  501 -0.00000000000E+00 -0.00000000000E+00 -0.17994658122E+02  0.17994658122E+02  0.00000000000E+00 0.  1.
         25    2    1    2    0    0 -0.33392463047E+02  0.12075942363E+02  0.55170331852E+03  0.56682038116E+03  0.12509159788E+03 0.  0.
          5    1    3    3  502    0 -0.31550092389E+02  0.20617808804E+02  0.40339036923E+02  0.55364362811E+02  0.41800000000E+01 0. -1.
         -5    1    3    3    0  502 -0.18423706587E+01 -0.85418664410E+01  0.51136428159E+03  0.51145601835E+03  0.41800000000E+01 0. -1.
        -11    1    1    2    0    0  0.27791339419E+02 -0.50326586813E+02  0.10187211893E+03  0.11697458058E+03  0.00000000000E+00 0.  1.
         11    1    1    2    0    0  0.56011236287E+01  0.38250644450E+02  0.12662448657E+03  0.13239427853E+03  0.00000000000E+00 0. -1.
</event>
<event>
 7    1  0.2855090E-009  0.1052203E+03  0.7561462E-02  0.1269686E+00
         -2   -1    0    0    0  501 -0.00000000000E+00  0.00000000000E+00  0.21471495169E+03  0.21471495169E+03  0.00000000000E+00 0.  1.
          2   -1    0    0  501    0  0.00000000000E+00 -0.00000000000E+00 -0.55817619739E+02  0.55817619739E+02  0.00000000000E+00 0. -1.
         25    2    1    2    0    0  0.15831607160E+02  0.76354937854E+01  0.98217050370E+02  0.16000913683E+03  0.12508954527E+03 0.  0.
          5    1    3    3  502    0  0.66726050790E+02  0.61836005147E+01  0.82892891713E+02  0.10667383309E+03  0.41800000000E+01 0.  1.
         -5    1    3    3    0  502 -0.50894443631E+02  0.14518932707E+01  0.15324158657E+02  0.53335303741E+02  0.41800000000E+01 0.  1.
        -11    1    1    2    0    0  0.17571248970E+02  0.34336125641E+02  0.22152001157E+02  0.44479539900E+02  0.00000000000E+00 0.  1.
         11    1    1    2    0    0 -0.33402856130E+02 -0.41971619426E+02  0.38528280427E+02  0.66043894703E+02  0.00000000000E+00 0. -1.
</event>
<event>
 7    1  0.2855090E-009  0.7174353E+02  0.7561462E-02  0.1354262E+00
          2   -1    0    0  501    0  0.00000000000E+00  0.00000000000E+00  0.17683145175E+03  0.17683145175E+03  0.00000000000E+00 0. -1.
         -2   -1    0    0    0  501 -0.00000000000E+00 -0.00000000000E+00 -0.10653178784E+03  0.10653178784E+03  0.00000000000E+00 0.  1.
         25    2    1    2    0    0  0.47652446844E+02  0.30285028250E+02  0.10490211350E+03  0.17273293405E+03  0.12507707409E+03 0.  0.
          5    1    3    3  502    0  0.39347492012E+02  0.28000111657E+02 -0.16309376228E+02  0.51143910032E+02  0.41800000000E+01 0.  1.
         -5    1    3    3    0  502  0.83049548322E+01  0.22849165927E+01  0.12121148973E+03  0.12158902402E+03  0.41800000000E+01 0.  1.
        -11    1    1    2    0    0 -0.51101697323E+02  0.37412279269E+01 -0.51357184682E+02  0.72546127906E+02  0.00000000000E+00 0.  1.
         11    1    1    2    0    0  0.34492504788E+01 -0.34026256177E+02  0.16754735087E+02  0.38084177634E+02  0.00000000000E+00 0. -1.
</event>
<event>
 7    1  0.2855090E-009  0.1249982E+03  0.7561462E-02  0.1235072E+00
          2   -1    0    0  501    0  0.00000000000E+00  0.00000000000E+00  0.33761659697E+02  0.33761659697E+02  0.00000000000E+00 0. -1.
         -2   -1    0    0    0  501 -0.00000000000E+00 -0.00000000000E+00 -0.53721752255E+03  0.53721752255E+03  0.00000000000E+00 0.  1.
         25    2    1    2    0    0 -0.32371716517E+02 -0.72102045447E+02 -0.27792762720E+03  0.31485874922E+03  0.12508250481E+03 0.  0.
          5    1    3    3  502    0  0.34442196214E+02 -0.68227532792E+02 -0.10974648542E+03  0.13380218449E+03  0.41800000000E+01 0.  1.
         -5    1    3    3    0  502 -0.66813912731E+02 -0.38745126550E+01 -0.16818114178E+03  0.18105656474E+03  0.41800000000E+01 0.  1.
        -11    1    1    2    0    0  0.17308119899E+02 -0.11933004977E+02 -0.80966565519E+01  0.22528281549E+02  0.00000000000E+00 0. -1.
         11    1    1    2    0    0  0.15063596618E+02  0.84035050423E+02 -0.21743157910E+03  0.23359215148E+03  0.00000000000E+00 0.  1.
</event>
<event>
 7    1  0.2855090E-009  0.1078305E+03  0.7561462E-02  0.1264641E+00
         -1   -1    0    0    0  501 -0.00000000000E+00  0.00000000000E+00  0.72112058763E+02  0.72112058763E+02  0.00000000000E+00 0.  1.
          1   -1    0    0  501    0  0.00000000000E+00 -0.00000000000E+00 -0.23890714919E+03  0.23890714919E+03  0.00000000000E+00 0. -1.
         25    2    1    2    0    0  0.19095068528E+02 -0.72471814273E+02 -0.10295104038E+03  0.17849883642E+03  0.12508450096E+03 0.  0.
          5    1    3    3  502    0 -0.20261903273E+02  0.25184004253E+02 -0.21273762434E+01  0.32661551159E+02  0.41800000000E+01 0.  1.
         -5    1    3    3    0  502  0.39356971802E+02 -0.97655818526E+02 -0.10082366414E+03  0.14583728526E+03  0.41800000000E+01 0.  1.
        -11    1    1    2    0    0 -0.20909684183E+02  0.39649486419E+02 -0.83103233265E+02  0.94421629117E+02  0.00000000000E+00 0. -1.
         11    1    1    2    0    0  0.18146156543E+01  0.32822327854E+02  0.19259183218E+02  0.38098742420E+02  0.00000000000E+00 0.  1.
</event>
<event>
 7    1  0.2855090E-009  0.8832731E+02  0.7561462E-02  0.1306954E+00
          2   -1    0    0  501    0  0.00000000000E+00  0.00000000000E+00  0.15327093601E+03  0.15327093601E+03  0.00000000000E+00 0. -1.
         -2   -1    0    0    0  501 -0.00000000000E+00 -0.00000000000E+00 -0.11410664961E+03  0.11410664961E+03  0.00000000000E+00 0.  1.
         25    2    1    2    0    0  0.90248763705E+01 -0.28050995831E+02 -0.42870103989E+02  0.13547472981E+03  0.12508896771E+03 0.  0.
          5    1    3    3  502    0  0.29283192301E+01 -0.56460016509E+02 -0.73649763295E+02  0.92941210188E+02  0.41800000000E+01 0. -1.
         -5    1    3    3    0  502  0.60965571403E+01  0.28409020678E+02  0.30779659306E+02  0.42533519627E+02  0.41800000000E+01 0. -1.
        -11    1    1    2    0    0  0.10825867315E+02  0.55605270560E+02  0.18034081149E+02  0.59450597979E+02  0.00000000000E+00 0.  1.
         11    1    1    2    0    0 -0.19850743685E+02 -0.27554274730E+02  0.64000309244E+02  0.72452257826E+02  0.00000000000E+00 0. -1.
</event>
<event>
 7    1  0.2855090E-009  0.1674643E+03  0.7561462E-02  0.1180518E+00
         -1   -1    0    0    0  501 -0.00000000000E+00  0.00000000000E+00  0.29337361193E+03  0.29337361193E+03  0.00000000000E+00 0.  1.
          1   -1    0    0  501    0  0.00000000000E+00 -0.00000000000E+00 -0.12054613323E+03  0.12054613323E+03  0.00000000000E+00 0. -1.
         25    2    1    2    0    0 -0.78064600209E+01 -0.14289068087E+03  0.51836056364E+02  0.19701010731E+03  0.12508924074E+03 0.  0.
          5    1    3    3  502    0  0.53346348695E+02 -0.29515328510E+02  0.14110255471E+02  0.62718093446E+02  0.41800000000E+01 0. -1.
         -5    1    3    3    0  502 -0.61152808716E+02 -0.11337535236E+03  0.37725800894E+02  0.13429201387E+03  0.41800000000E+01 0. -1.
        -11    1    1    2    0    0 -0.82130175209E+01  0.45681837219E+02 -0.15181936295E+02  0.48834159132E+02  0.00000000000E+00 0. -1.
         11    1    1    2    0    0  0.16019477542E+02  0.97208843647E+02  0.13617335863E+03  0.16807547872E+03  0.00000000000E+00 0.  1.
</event>
<event>
 7    1  0.2855090E-009  0.1744982E+03  0.7561462E-02  0.1173236E+00
          1   -1    0    0  501    0  0.00000000000E+00  0.00000000000E+00  0.30636322633E+04  0.30636322633E+04  0.00000000000E+00 0. -1.
         -1   -1    0    0    0  501 -0.00000000000E+00 -0.00000000000E+00 -0.49707420240E+02  0.49707420240E+02  0.00000000000E+00 0.  1.
         25    2    1    2    0    0 -0.11217680243E+03 -0.11920135308E+03  0.28700441792E+04  0.28774283737E+04  0.12509139816E+03 0.  0.
          5    1    3    3  502    0 -0.47593460541E+02 -0.10847941670E+03  0.11410741522E+04  0.11472142845E+04  0.41800000000E+01 0. -1.
         -5    1    3    3    0  502 -0.64583341886E+02 -0.10721936376E+02  0.17289700269E+04  0.17302140892E+04  0.41800000000E+01 0. -1.
        -11    1    1    2    0    0  0.80749167632E+02  0.97853693831E+02  0.15103685338E+03  0.19725086704E+03  0.00000000000E+00 0.  1.
         11    1    1    2    0    0  0.31427634795E+02  0.21347659247E+02 -0.71561895342E+01  0.38660442739E+02  0.00000000000E+00 0. -1.
</event>
<event>
 7    1  0.2855090E-009  0.7068327E+02  0.7561462E-02  0.1357785E+00
         -2   -1    0    0    0  501 -0.00000000000E+00  0.00000000000E+00  0.17159297958E+02  0.17159297958E+02  0.00000000000E+00 0.  1.
          2   -1    0    0  501    0  0.00000000000E+00 -0.00000000000E+00 -0.11262219675E+04  0.11262219675E+04  0.00000000000E+00 0. -1.
         25    2    1    2    0    0  0.28296287178E+02  0.19042462055E+02 -0.93787752107E+03  0.94679719425E+03  0.12508951707E+03 0.  0.
          5    1    3    3  502    0  0.75165554188E+01 -0.28423039145E+02 -0.78033769509E+03  0.78090252819E+03  0.41800000000E+01 0.  1.
         -5    1    3    3    0  502  0.20779731759E+02  0.47465501200E+02 -0.15753982598E+03  0.16589466606E+03  0.41800000000E+01 0.  1.
        -11    1    1    2    0    0 -0.10329713257E+02  0.16727009723E+02  0.11192023146E+01  0.19691329160E+02  0.00000000000E+00 0.  1.
         11    1    1    2    0    0 -0.17966573921E+02 -0.35769471779E+02 -0.17230435081E+03  0.17689274207E+03  0.00000000000E+00 0. -1.
</event>
<event>
 6    1  0.2855090E-009  0.1059685E+03  0.7561462E-02  0.1268223E+00
         -2   -1    0    0    0  501 -0.00000000000E+00  0.00000000000E+00  0.43521988273E+02  0.43521988273E+02  0.00000000000E+00 0.  1.
          2   -1    0    0  501    0  0.00000000000E+00 -0.00000000000E+00 -0.46903797389E+03  0.46903797389E+03  0.00000000000E+00 0. -1.
          5    1    1    2  502    0  0.24851940042E+02 -0.10306750304E+01  0.27388585240E+01  0.25370355947E+02  0.41800000000E+01 0.  1.
         -5    1    1    2    0  502  0.18812358443E+02  0.75729836999E+02 -0.28345521754E+03  0.29402932811E+03  0.41800000000E+01 0.  1.
        -11    1    1    2    0    0  0.19683350738E+01 -0.60852593550E+02 -0.28026554997E+02  0.67025370344E+02  0.00000000000E+00 0.  1.
         11    1    1    2    0    0 -0.45632633559E+02 -0.13846568418E+02 -0.11677307161E+03  0.12613490776E+03  0.00000000000E+00 0. -1.
</event>
<event>
 7    1  0.2855090E-009  0.9954035E+02  0.7561462E-02  0.1281266E+00
         -2   -1    0    0    0  501 -0.00000000000E+00  0.00000000000E+00  0.35989097293E+03  0.35989097293E+03  0.00000000000E+00 0.  1.
          2   -1    0    0  501    0  0.00000000000E+00 -0.00000000000E+00 -0.40324190158E+02  0.40324190158E+02  0.00000000000E+00 0. -1.
         25    2    1    2    0    0  0.45505051055E+02 -0.21620707923E+02  0.15665228538E+03  0.20669761054E+03  0.12508316835E+03 0.  0.
          5    1    3    3  502    0 -0.24861623214E+02  0.11305134178E+01 -0.77336076916E+01  0.26394307290E+02  0.41800000000E+01 0.  1.
         -5    1    3    3    0  502  0.70366674269E+02 -0.22751221340E+02  0.16438589307E+03  0.18030330325E+03  0.41800000000E+01 0.  1.
        -11    1    1    2    0    0 -0.22685709170E+02 -0.33304383560E+02  0.95282521800E+02  0.10345328572E+03  0.00000000000E+00 0.  1.
         11    1    1    2    0    0 -0.22819341885E+02  0.54925091483E+02  0.67631975590E+02  0.90064266835E+02  0.00000000000E+00 0. -1.
</event>
<event>
 7    1  0.2855090E-009  0.1179081E+03  0.7561462E-02  0.1246589E+00
          1   -1    0    0  501    0  0.00000000000E+00  0.00000000000E+00  0.23466256245E+03  0.23466256245E+03  0.00000000000E+00 0. -1.
         -1   -1    0    0    0  501 -0.00000000000E+00 -0.00000000000E+00 -0.72529778302E+02  0.72529778302E+02  0.00000000000E+00 0.  1.
         25    2    1    2    0    0 -0.70460510109E+02  0.47139926200E-01  0.75778077583E+02  0.16234222938E+03  0.12509195295E+03 0.  0.
          5    1    3    3  502    0 -0.56457004727E+02 -0.57549662379E+02  0.25955044032E+02  0.84796779027E+02  0.41800000000E+01 0.  1.
         -5    1    3    3    0  502 -0.14003505383E+02  0.57596802306E+02  0.49823033550E+02  0.77545450356E+02  0.41800000000E+01 0.  1.
        -11    1    1    2    0    0  0.13586815820E+01  0.22835085338E+02  0.65124760827E+02  0.69025514202E+02  0.00000000000E+00 0. -1.
         11    1    1    2    0    0  0.69101828527E+02 -0.22882225264E+02  0.21229945733E+02  0.75824597162E+02  0.00000000000E+00 0.  1.
</event>
<event>
 7    1  0.2855090E-009  0.8552801E+02  0.7561462E-02  0.1314057E+00
         -1   -1    0    0    0  501 -0.00000000000E+00  0.00000000000E+00  0.15751261466E+03  0.15751261466E+03  0.00000000000E+00 0.  1.
          1   -1    0    0  501    0  0.00000000000E+00 -0.00000000000E+00 -0.10531995713E+03  0.10531995713E+03  0.00000000000E+00 0. -1.
         25    2    1    2    0    0 -0.17190605673E+02  0.63253723171E+02  0.15223252110E+02  0.14207749521E+03  0.12513079886E+03 0.  0.
          5    1    3    3  502    0 -0.25099876644E+02  0.48761515380E+02 -0.50204704273E+02  0.74469281727E+02  0.41800000000E+01 0. -1.
         -5    1    3    3    0  502  0.79092709714E+01  0.14492207791E+02  0.65427956384E+02  0.67608213484E+02  0.41800000000E+01 0. -1.
        -11    1    1    2    0    0  0.25428631300E+02  0.84899831968E+01  0.40369209998E+02  0.48459965129E+02  0.00000000000E+00 0.  1.
         11    1    1    2    0    0 -0.82380256268E+01 -0.71743706368E+02 -0.33998045775E+01  0.72295111459E+02  0.00000000000E+00 0. -1.
</event>
<event>
 7    1  0.2855090E-009  0.1485630E+03  0.7561462E-02  0.1202250E+00
         -1   -1    0    0    0  501 -0.00000000000E+00  0.00000000000E+00  0.15951106357E+03  0.15951106357E+03  0.00000000000E+00 0.  1.
          1   -1    0    0  501    0  0.00000000000E+00 -0.00000000000E+00 -0.17971498884E+03  0.17971498884E+03  0.00000000000E+00 0. -1.
         25    2    1    2    0    0  0.45541306128E+02 -0.11419774564E+03 -0.50786250029E+02  0.18260021484E+03  0.12509380318E+03 0.  0.
          5    1    3    3  502    0  0.29591574680E+02  0.20044918049E+02  0.49317156084E+01  0.36321539759E+02  0.41800000000E+01 0.  1.
         -5    1    3    3    0  502  0.15949731447E+02 -0.13424266369E+03 -0.55717965637E+02  0.14627867508E+03  0.41800000000E+01 0.  1.
        -11    1    1    2    0    0 -0.44531675879E+02  0.79074542490E+02  0.61659678976E+02  0.10971676917E+03  0.00000000000E+00 0.  1.
         11    1    1    2    0    0 -0.10096302480E+01  0.35123203150E+02 -0.31077354221E+02  0.46909068400E+02  0.00000000000E+00 0. -1.
</event>
<event>
 7    1  0.2855090E-009  0.7677226E+02  0.7561462E-02  0.1338469E+00
          2   -1    0    0  501    0  0.00000000000E+00  0.00000000000E+00  0.16653741779E+03  0.16653741779E+03  0.00000000000E+00 0. -1.
         -2   -1    0    0    0  501 -0.00000000000E+00 -0.00000000000E+00 -0.76565639715E+02  0.76565639715E+02  0.00000000000E+00 0.  1.
         25    2    1    2    0    0 -0.16987775170E+02  0.37177442479E+02  0.47637662645E+02  0.13995652330E+03  0.12509090605E+03 0.  0.
          5    1    3    3  502    0 -0.42039107206E+02  0.63340761555E+02  0.64498202219E+02  0.99783912022E+02  0.41800000000E+01 0.  1.
         -5    1    3    3    0  502  0.25051332035E+02 -0.26163319076E+02 -0.16860539574E+02  0.40172611273E+02  0.41800000000E+01 0.  1.
        -11    1    1    2    0    0  0.10690480148E+02 -0.20545493609E+02 -0.24660806467E+02  0.33831332357E+02  0.00000000000E+00 0.  1.
         11    1    1    2    0    0  0.62972950227E+01 -0.16631948870E+02  0.66994921892E+02  0.69315201847E+02  0.00000000000E+00 0. -1.
</event>
<event>
 7    1  0.2855090E-009  0.7591857E+02  0.7561462E-02  0.1341050E+00
         -1   -1    0    0    0  501 -0.00000000000E+00  0.00000000000E+00  0.49353159821E+02  0.49353159821E+02  0.00000000000E+00 0.  1.
          1   -1    0    0  501    0  0.00000000000E+00 -0.00000000000E+00 -0.17469102422E+03  0.17469102422E+03  0.00000000000E+00 0. -1.
         25    2    1    2    0    0  0.67439688217E+01  0.49568885750E+01 -0.11596187973E+03  0.17077559612E+03  0.12508834806E+03 0.  0.
          5    1    3    3  502    0  0.51432795606E+02  0.14467395849E+02 -0.89384653696E+01  0.54332371287E+02  0.41800000000E+01 0.  1.
         -5    1    3    3    0  502 -0.44688826785E+02 -0.95105072736E+01 -0.10702341436E+03  0.11644322484E+03  0.41800000000E+01 0.  1.
        -11    1    1    2    0    0 -0.27618563469E+02  0.67499251825E+01 -0.36965058040E+01  0.28670728858E+02  0.00000000000E+00 0. -1.
         11    1    1    2    0    0  0.20874594648E+02 -0.11706813757E+02 -0.56794788578E+01  0.24597859056E+02  0.00000000000E+00 0.  1.
</event>
<event>
 7    1  0.2855090E-009  0.1832573E+03  0.7561462E-02  0.1164687E+00
         -2   -1    0    0    0  501 -0.00000000000E+00  0.00000000000E+00  0.61898763041E+02  0.61898763041E+02  0.00000000000E+00 0.  1.
          2   -1    0    0  501    0  0.00000000000E+00 -0.00000000000E+00 -0.61175225945E+03  0.61175225945E+03  0.00000000000E+00 0. -1.
         25    2    1    2    0    0  0.15160575851E+03  0.46519759424E+02 -0.23732900719E+03  0.31164287228E+03  0.12509127930E+03 0.  0.
          5    1    3    3  502    0  0.71474955249E+02  0.70860871448E+02 -0.64687529742E+02  0.11971583535E+03  0.41800000000E+01 0. -1.
         -5    1    3    3    0  502  0.80130803258E+02 -0.24341112023E+02 -0.17264147745E+03  0.19192703692E+03  0.41800000000E+01 0. -1.
        -11    1    1    2    0    0 -0.94295610765E+02 -0.72559370698E+02 -0.18820880935E+03  0.22266360368E+03  0.00000000000E+00 0.  1.
         11    1    1    2    0    0 -0.57310147743E+02  0.26039611273E+02 -0.12431567986E+03  0.13934454653E+03  0.00000000000E+00 0. -1.
</event>
<event>
 7    1  0.2855090E-009  0.1118852E+03  0.7561462E-02  0.1257118E+00
          2   -1    0    0  501    0  0.00000000000E+00  0.00000000000E+00  0.34988268245E+03  0.34988268245E+03  0.00000000000E+00 0. -1.
         -2   -1    0    0    0  501 -0.00000000000E+00 -0.00000000000E+00 -0.47194865538E+02  0.47194865538E+02  0.00000000000E+00 0.  1.
         25    2    1    2    0    0 -0.39389271356E+02 -0.91016663974E+01  0.84740251031E+02  0.15640676766E+03  0.12509121390E+03 0.  0.
          5    1    3    3  502    0  0.33421029932E+02 -0.38741899298E+02  0.44780130562E+02  0.68122187986E+02  0.41800000000E+01 0.  1.
         -5    1    3    3    0  502 -0.72810301288E+02  0.29640232900E+02  0.39960120469E+02  0.88284579673E+02  0.41800000000E+01 0.  1.
        -11    1    1    2    0    0  0.41876358748E+02 -0.31894789380E+02  0.72887045686E+02  0.89907888644E+02  0.00000000000E+00 0.  1.
         11    1    1    2    0    0 -0.24870873917E+01  0.40996455777E+02  0.14506052019E+03  0.15076289168E+03  0.00000000000E+00 0. -1.
</event>
<event>
 7    1  0.2855090E-009  0.2793279E+03  0.7561462E-02  0.1096057E+00
          2   -1    0    0  501    0  0.00000000000E+00  0.00000000000E+00  0.32273232282E+03  0.32273232282E+03  0.00000000000E+00 0. -1.
         -2   -1    0    0    0  501 -0.00000000000E+00 -0.00000000000E+00 -0.25020597648E+03  0.25020597648E+03  0.00000000000E+00 0.  1.
         25    2    1    2    0    0 -0.17332654402E+02  0.25861778776E+03  0.79748095573E+02  0.29864738210E+03  0.12508764542E+03 0.  0.
          5    1    3    3  502    0 -0.42200568450E+02  0.22898162101E+02  0.28885929607E+02  0.56187926945E+02  0.41800000000E+01 0.  1.
         -5    1    3    3    0  502  0.24867914048E+02  0.23571962566E+03  0.50862165966E+02  0.24245945516E+03  0.41800000000E+01 0.  1.
        -11    1    1    2    0    0 -0.25016212635E+02 -0.19728185521E+03 -0.14567308182E+02  0.19939445267E+03  0.00000000000E+00 0.  1.
         11    1    1    2    0    0  0.42348867037E+02 -0.61335932546E+02  0.73455589486E+01  0.74896464515E+02  0.00000000000E+00 0. -1.
</event>
<event>
 7    1  0.2855090E-009  0.1048366E+03  0.7561462E-02  0.1270442E+00
         -1   -1    0    0    0  501 -0.00000000000E+00  0.00000000000E+00  0.10825737750E+03  0.10825737750E+03  0.00000000000E+00 0.  1.
          1   -1    0    0  501    0  0.00000000000E+00 -0.00000000000E+00 -0.13094064711E+03  0.13094064711E+03  0.00000000000E+00 0. -1.
         25    2    1    2    0    0 -0.10085874918E+02 -0.47933919649E+02 -0.24662656079E+02  0.13658601768E+03  0.12509239823E+03 0.  0.
          5    1    3    3  502    0 -0.52854311880E+02 -0.68477398552E+02 -0.13298779825E+02  0.87618846954E+02  0.41800000000E+01 0. -1.
         -5    1    3    3    0  502  0.42768436961E+02  0.20543478903E+02 -0.11363876254E+02  0.48967170728E+02  0.41800000000E+01 0. -1.
        -11    1    1    2    0    0 -0.20331921202E+02  0.21135040144E+01  0.33483543612E+02  0.39230111034E+02  0.00000000000E+00 0.  1.
         11    1    1    2    0    0  0.30417796120E+02  0.45820415635E+02 -0.31504157137E+02  0.63381895891E+02  0.00000000000E+00 0. -1.
</event>
<event>
 7    1  0.2855090E-009  0.1218025E+03  0.7561462E-02  0.1240153E+00
         -1   -1    0    0    0  501 -0.00000000000E+00  0.00000000000E+00  0.22748409201E+03  0.22748409201E+03  0.00000000000E+00 0.  1.
          1   -1    0    0  501    0  0.00000000000E+00 -0.00000000000E+00 -0.84689858970E+02  0.84689858970E+02  0.00000000000E+00 0. -1.
         25    2    1    2    0    0 -0.46217235426E+02 -0.73758901809E+02  0.93225810722E+02  0.17864033047E+03  0.12507960441E+03 0.  0.
          5    1    3    3  502    0 -0.12133625435E+01 -0.86747744393E+02  0.98492059913E+02  0.13131946418E+03  0.41800000000E+01 0.  1.
         -5    1    3    3    0  502 -0.45003872882E+02  0.12988842584E+02 -0.52662491912E+01  0.47320866292E+02  0.41800000000E+01 0.  1.
        -11    1    1    2    0    0  0.23120726597E+02 -0.82294832671E+01 -0.13067454072E+02  0.27803790194E+02  0.00000000000E+00 0. -1.
         11    1    1    2    0    0  0.23096508828E+02  0.81988385076E+02  0.62635876389E+02  0.10572983032E+03  0.00000000000E+00 0.  1.
</event>
<event>
 7    1  0.2855090E-009  0.1882047E+03  0.7561462E-02  0.1160091E+00
          2   -1    0    0  501    0  0.00000000000E+00  0.00000000000E+00  0.66946781500E+03  0.66946781500E+03  0.00000000000E+00 0. -1.
         -2   -1    0    0    0  501 -0.00000000000E+00 -0.00000000000E+00 -0.54510098913E+02  0.54510098913E+02  0.00000000000E+00 0.  1.
         25    2    1    2    0    0 -0.12127346279E+03 -0.10065493748E+03  0.29797228669E+03  0.35954986653E+03  0.12509977487E+03 0.  0.
          5    1    3    3  502    0 -0.61841918920E+01  0.27033897445E+02  0.29262430076E+02  0.40531938695E+02  0.41800000000E+01 0.  1.
         -5    1    3    3    0  502 -0.11508927090E+03 -0.12768883492E+03  0.26870985661E+03  0.31901792783E+03  0.41800000000E+01 0.  1.
        -11    1    1    2    0    0  0.89307862722E+01  0.54055107627E+02  0.68003768819E+02  0.87328266774E+02  0.00000000000E+00 0.  1.
         11    1    1    2    0    0  0.11234267652E+03  0.46599829848E+02  0.24898166058E+03  0.27709978061E+03  0.00000000000E+00 0. -1.
</event>
<event>
 7    1  0.2855090E-009  0.1165860E+03  0.7561462E-02  0.1248838E+00
         -2   -1    0    0    0  501 -0.00000000000E+00  0.00000000000E+00  0.73909056173E+02  0.73909056173E+02  0.00000000000E+00 0.  1.
          2   -1    0    0  501    0  0.00000000000E+00 -0.00000000000E+00 -0.27437880233E+03  0.27437880233E+03  0.00000000000E+00 0. -1.
         25    2    1    2    0    0 -0.19299844349E+02  0.43445873043E+02 -0.20446489776E+03  0.24435423964E+03  0.12507226765E+03 0.  0.
          5    1    3    3  502    0 -0.68651458502E+02  0.42644402657E+01 -0.12619216615E+03  0.14378158228E+03  0.41800000000E+01 0. -1.
         -5    1    3    3    0  502  0.49351614153E+02  0.39181432777E+02 -0.78272731607E+02  0.10057265735E+03  0.41800000000E+01 0. -1.
        -11    1    1    2    0    0  0.53809235749E+02 -0.13643817232E+02  0.14004251820E+02  0.57251259110E+02  0.00000000000E+00 0. -1.
         11    1    1    2    0    0 -0.34509391401E+02 -0.29802055811E+02 -0.10009100219E+02  0.46682359758E+02  0.00000000000E+00 0.  1.
</event>
<event>
 7    1  0.2855090E-009  0.1644925E+03  0.7561462E-02  0.1183716E+00
          1   -1    0    0  501    0  0.00000000000E+00  0.00000000000E+00  0.10881386635E+03  0.10881386635E+03  0.00000000000E+00 0. -1.
         -1   -1    0    0    0  501 -0.00000000000E+00 -0.00000000000E+00 -0.30172326671E+03  0.30172326671E+03  0.00000000000E+00 0.  1.
         25    2    1    2    0    0 -0.13624203795E+03 -0.98710584043E+01 -0.33906912879E+02  0.18829853501E+03  0.12508928350E+03 0.  0.
          5    1    3    3  502    0 -0.13571179069E+03  0.31025266644E+02 -0.75863464722E+01  0.13948219368E+03  0.41800000000E+01 0. -1.
         -5    1    3    3    0  502 -0.53024726736E+00 -0.40896325048E+02 -0.26320566407E+02  0.48816341327E+02  0.41800000000E+01 0. -1.
        -11    1    1    2    0    0  0.11476371369E+03 -0.14994299317E+02 -0.14736350342E+03  0.18738073843E+03  0.00000000000E+00 0.  1.
         11    1    1    2    0    0  0.21478324265E+02  0.24865357721E+02 -0.11638984061E+02  0.34857859627E+02  0.00000000000E+00 0. -1.
</event>
<event>
 7    1  0.2855090E-009  0.1057825E+03  0.7561462E-02  0.1268586E+00
          2   -1    0    0  501    0  0.00000000000E+00  0.00000000000E+00  0.15577327397E+03  0.15577327397E+03  0.00000000000E+00 0. -1.
         -2   -1    0    0    0  501 -0.00000000000E+00 -0.00000000000E+00 -0.18544428578E+03  0.18544428578E+03  0.00000000000E+00 0.  1.
         25    2    1    2    0    0  0.81366442742E+01 -0.25922404388E+02  0.11303145214E+03  0.17077292549E+03  0.12509639034E+03 0.  0.
          5    1    3    3  502    0  0.50080119259E+02  0.22284955482E+02  0.21420086919E+02  0.58999407704E+02  0.41800000000E+01 0.  1.
         -5    1    3    3    0  502 -0.41943474985E+02 -0.48207359870E+02  0.91611365222E+02  0.11177351778E+03  0.41800000000E+01 0.  1.
        -11    1    1    2    0    0 -0.48127124978E+02  0.82318340269E+01 -0.85269152757E+02  0.98258901184E+02  0.00000000000E+00 0.  1.
         11    1    1    2    0    0  0.39990480704E+02  0.17690570361E+02 -0.57433311189E+02  0.72185733083E+02  0.00000000000E+00 0. -1.
</event>
<event>
 7    1  0.2855090E-009  0.1144636E+03  0.7561462E-02  0.1252520E+00
          4   -1    0    0  501    0  0.00000000000E+00  0.00000000000E+00  0.70953740501E+03  0.70953740501E+03  0.00000000000E+00 0. -1.
         -4   -1    0    0    0  501 -0.00000000000E+00 -0.00000000000E+00 -0.20690546833E+02  0.20690546833E+02  0.00000000000E+00 0.  1.
         25    2    1    2    0    0 -0.50112873824E+02  0.23198344566E+02  0.46957213267E+03  0.48907194183E+03  0.12507562986E+03 0.  0.
          5    1    3    3  502    0 -0.23287469600E+02 -0.51059610723E+02  0.16183092923E+03  0.17133625460E+03  0.41800000000E+01 0.  1.
         -5    1    3    3    0  502 -0.26825404224E+02  0.74257955290E+02  0.30774120345E+03  0.31773568722E+03  0.41800000000E+01 0.  1.
        -11    1    1    2    0    0  0.67550369360E+02 -0.40250205161E+01  0.11252687686E+03  0.13130708742E+03  0.00000000000E+00 0.  1.
         11    1    1    2    0    0 -0.17437495535E+02 -0.19173324050E+02  0.10674784865E+03  0.10984892260E+03  0.00000000000E+00 0. -1.
</event>
<event>
 7    1  0.2855090E-009  0.1289409E+03  0.7561462E-02  0.1229036E+00
          2   -1    0    0  501    0  0.00000000000E+00  0.00000000000E+00  0.75879089088E+03  0.75879089088E+03  0.00000000000E+00 0. -1.
         -2   -1    0    0    0  501 -0.00000000000E+00 -0.00000000000E+00 -0.41197797137E+02  0.41197797137E+02  0.00000000000E+00 0.  1.
         25    2    1    2    0    0 -0.17019507011E+02  0.81203472429E+02  0.63023484501E+03  0.64786317970E+03  0.12508825760E+03 0.  0.
          5    1    3    3  502    0 -0.49914762042E+02  0.50190338517E+01  0.39881422528E+03  0.40197877165E+03  0.41800000000E+01 0.  1.
         -5    1    3    3    0  502  0.32895255031E+02  0.76184438578E+02  0.23142061973E+03  0.24588440805E+03  0.41800000000E+01 0.  1.
        -11    1    1    2    0    0 -0.20861082545E+01 -0.98595230594E+02  0.66857419139E+02  0.11914397105E+03  0.00000000000E+00 0.  1.
         11    1    1    2    0    0  0.19105615266E+02  0.17391758165E+02  0.20500829594E+02  0.32981537271E+02  0.00000000000E+00 0. -1.
</event>
<event>
 7    1  0.2855090E-009  0.7539706E+02  0.7561462E-02  0.1342646E+00
         -1   -1    0    0    0  501 -0.00000000000E+00  0.00000000000E+00  0.80229679645E+02  0.80229679645E+02  0.00000000000E+00 0.  1.
          1   -1    0    0  501    0  0.00000000000E+00 -0.00000000000E+00 -0.14892981383E+03  0.14892981383E+03  0.00000000000E+00 0. -1.
         25    2    1    2    0    0  0.75374110625E+01 -0.39648770782E+01 -0.20967015196E+02  0.12712551649E+03  0.12509495754E+03 0.  0.
          5    1    3    3  502    0 -0.48386331703E+02  0.23141875470E+02  0.14140350705E+02  0.55625582370E+02  0.41800000000E+01 0. -1.
         -5    1    3    3    0  502  0.55923742765E+02 -0.27106752548E+02 -0.35107365901E+02  0.71499934120E+02  0.41800000000E+01 0. -1.
        -11    1    1    2    0    0 -0.65590405226E+01 -0.14658709403E+02 -0.70670312726E+02  0.72472007525E+02  0.00000000000E+00 0. -1.
         11    1    1    2    0    0 -0.97837053989E+00  0.18623586481E+02  0.22937193733E+02  0.29561969465E+02  0.00000000000E+00 0.  1.
</event>
<event>
 7    1  0.2855090E-009  0.7437989E+02  0.7561462E-02  0.1345802E+00
          2   -1    0    0  501    0  0.00000000000E+00  0.00000000000E+00  0.25230404213E+03  0.25230404213E+03  0.00000000000E+00 0.  1.
         -2   -1    0    0    0  501 -0.00000000000E+00 -0.00000000000E+00 -0.52070863120E+02  0.52070863120E+02  0.00000000000E+00 0. -1.
         25    2    1    2    0    0 -0.10436794353E+02 -0.22893728904E+02  0.10028528217E+03  0.16228884089E+03  0.12508988990E+03 0.  0.
          5    1    3    3  502    0  0.13871270360E+02 -0.41342279828E+02 -0.12352707320E+02  0.45515470128E+02  0.41800000000E+01 0.  1.
         -5    1    3    3    0  502 -0.24308064713E+02  0.18448550925E+02  0.11263798949E+03  0.11677337076E+03  0.41800000000E+01 0.  1.
        -11    1    1    2    0    0  0.38915800135E+02  0.22562845058E+01  0.31633033566E+01  0.39109293116E+02  0.00000000000E+00 0.  1.
         11    1    1    2    0    0 -0.28479005782E+02  0.20637444398E+02  0.96784593483E+02  0.10297677125E+03  0.00000000000E+00 0. -1.
</event>
<event>
 7    1  0.2855090E-009  0.1994040E+03  0.7561462E-02  0.1150243E+00
         -1   -1    0    0    0  501 -0.00000000000E+00  0.00000000000E+00  0.74262042390E+02  0.74262042390E+02  0.00000000000E+00 0.  1.
          1   -1    0    0  501    0  0.00000000000E+00 -0.00000000000E+00 -0.86628171187E+03  0.86628171187E+03  0.00000000000E+00 0. -1.
         25    2    1    2    0    0 -0.85127620959E+02  0.16168176605E+03 -0.15153061877E+03  0.26832270323E+03  0.12509132393E+03 0.  0.
          5    1    3    3  502    0 -0.57348373356E+02  0.17554716346E+03 -0.10575898641E+03  0.21285694288E+03  0.41800000000E+01 0. -1.
         -5    1    3    3    0  502 -0.27779247603E+02 -0.13865397411E+02 -0.45771632353E+02  0.55465760349E+02  0.41800000000E+01 0. -1.
        -11    1    1    2    0    0  0.42563295035E+02 -0.77106524337E+02 -0.16141154729E+03  0.18387696370E+03  0.00000000000E+00 0.  1.
         11    1    1    2    0    0  0.42564325924E+02 -0.84575241709E+02 -0.47907750342E+03  0.48834408734E+03  0.00000000000E+00 0. -1.
</event>
<event>
 7    1  0.2855090E-009  0.9996111E+02  0.7561462E-02  0.1280378E+00
          1   -1    0    0  501    0  0.00000000000E+00  0.00000000000E+00  0.21519755436E+03  0.21519755436E+03  0.00000000000E+00 0. -1.
         -1   -1    0    0    0  501 -0.00000000000E+00 -0.00000000000E+00 -0.63344450479E+02  0.63344450479E+02  0.00000000000E+00 0.  1.
         25    2    1    2    0    0 -0.28271905585E+02 -0.15500833298E+02  0.11992680245E+03  0.17625886969E+03  0.12508067285E+03 0.  0.
          5    1    3    3  502    0 -0.41629273904E+02  0.33830248965E+02  0.11215739457E+03  0.12439548122E+03  0.41800000000E+01 0.  1.
         -5    1    3    3    0  502  0.13357368319E+02 -0.49331082263E+02  0.77694078837E+01  0.51863388479E+02  0.41800000000E+01 0.  1.
        -11    1    1    2    0    0  0.38405898416E+02 -0.29678811802E+02  0.27458816998E+02  0.55765863519E+02  0.00000000000E+00 0. -1.
         11    1    1    2    0    0 -0.10133992831E+02  0.45179645100E+02  0.44674844298E+01  0.46517271623E+02  0.00000000000E+00 0.  1.
</event>
<event>
 7    1  0.2855090E-009  0.9585336E+02  0.7561462E-02  0.1289266E+00
          3   -1    0    0  501    0  0.00000000000E+00  0.00000000000E+00  0.42357852016E+03  0.42357852016E+03  0.00000000000E+00 0. -1.
         -3   -1    0    0    0  501 -0.00000000000E+00 -0.00000000000E+00 -0.49985069992E+02  0.49985069992E+02  0.00000000000E+00 0.  1.
         25    2    1    2    0    0 -0.48289807496E+02  0.53198075386E+02  0.31978741125E+03  0.35081903781E+03  0.12509223862E+03 0.  0.
          5    1    3    3  502    0 -0.71867259453E+02  0.28661525648E+02  0.91185605228E+02  0.11966065784E+03  0.41800000000E+01 0.  1.
         -5    1    3    3    0  502  0.23577451957E+02  0.24536549738E+02  0.22860180602E+03  0.23115837997E+03  0.41800000000E+01 0.  1.
        -11    1    1    2    0    0  0.24476072281E+02 -0.33638435615E+01 -0.19136449823E+02  0.31250556309E+02  0.00000000000E+00 0.  1.
         11    1    1    2    0    0  0.23813735215E+02 -0.49834231825E+02  0.72942488742E+02  0.91493996034E+02  0.00000000000E+00 0. -1.
</event>
<event>
 7    1  0.2855090E-009  0.9669193E+02  0.7561462E-02  0.1287410E+00
         -3   -1    0    0    0  501 -0.00000000000E+00  0.00000000000E+00  0.17371684257E+02  0.17371684257E+02  0.00000000000E+00 0.  1.
          3   -1    0    0  501    0  0.00000000000E+00 -0.00000000000E+00 -0.70433429387E+03  0.70433429387E+03  0.00000000000E+00 0. -1.
         25    2    1    2    0    0  0.85808428733E+01 -0.78258746478E+01 -0.48381370505E+03  0.49985597258E+03  0.12508164115E+03 0.  0.
          5    1    3    3  502    0 -0.46580616962E+02  0.61691973158E+01 -0.87051083288E+02  0.99010991176E+02  0.41800000000E+01 0.  1.
         -5    1    3    3    0  502  0.55161459835E+02 -0.13995071964E+02 -0.39676262176E+03  0.40084498141E+03  0.41800000000E+01 0.  1.
        -11    1    1    2    0    0 -0.45850703742E+02  0.19883955331E+02 -0.11301892566E+03  0.12357562976E+03  0.00000000000E+00 0.  1.
         11    1    1    2    0    0  0.37269860868E+02 -0.12058080683E+02 -0.90129978898E+02  0.98274375781E+02  0.00000000000E+00 0. -1.
</event>
<event>
 7    1  0.2855090E-009  0.1950696E+03  0.7561462E-02  0.1153967E+00
          1   -1    0    0  501    0  0.00000000000E+00  0.00000000000E+00  0.19994665503E+03  0.19994665503E+03  0.00000000000E+00 0. -1.
         -1   -1    0    0    0  501 -0.00000000000E+00 -0.00000000000E+00 -0.23566032530E+03  0.23566032530E+03  0.00000000000E+00 0.  1.
         25    2    1    2    0    0  0.14987172053E+03 -0.99307318632E+02  0.39043757351E+02  0.22247958177E+03  0.12509705500E+03 0.  0.
          5    1    3    3  502    0  0.56525281562E+01 -0.34071746475E+02  0.53135502986E+02  0.63511330170E+02  0.41800000000E+01 0.  1.
         -5    1    3    3    0  502  0.14421919237E+03 -0.65235572157E+02 -0.14091745635E+02  0.15896825160E+03  0.41800000000E+01 0.  1.
        -11    1    1    2    0    0 -0.14111953690E+03  0.54378756617E+02 -0.71371118972E+02  0.16722921243E+03  0.00000000000E+00 0.  1.
         11    1    1    2    0    0 -0.87521836271E+01  0.44928562015E+02 -0.33863086500E+01  0.45898186121E+02  0.00000000000E+00 0. -1.
</event>
<event>
 7    1  0.2855090E-009  0.1950921E+03  0.7561462E-02  0.1153947E+00
         -1   -1    0    0    0  501 -0.00000000000E+00  0.00000000000E+00  0.17412830665E+03  0.17412830665E+03  0.00000000000E+00 0.  1.
          1   -1    0    0  501    0  0.00000000000E+00 -0.00000000000E+00 -0.26487199851E+03  0.26487199851E+03  0.00000000000E+00 0. -1.
         25    2    1    2    0    0 -0.16234998629E+03  0.99812799151E+02 -0.68102314109E+02  0.23791697719E+03  0.12508577029E+03 0.  0.
          5    1    3    3  502    0 -0.12317884605E+03  0.77598330625E+02  0.11781984613E+02  0.14611918625E+03  0.41800000000E+01 0.  1.
         -5    1    3    3    0  502 -0.39171140240E+02  0.22214468526E+02 -0.79884298722E+02  0.91797790942E+02  0.41800000000E+01 0.  1.
        -11    1    1    2    0    0  0.42406098936E+02  0.13186274700E+01  0.91173460926E+00  0.42436390814E+02  0.00000000000E+00 0.  1.
         11    1    1    2    0    0  0.11994388735E+03 -0.10113142662E+03 -0.23553112361E+02  0.15864693715E+03  0.00000000000E+00 0. -1.
</event>
<event>
 7    1  0.2855090E-009  0.1719389E+03  0.7561462E-02  0.1175841E+00
         -1   -1    0    0    0  501 -0.00000000000E+00  0.00000000000E+00  0.77331898009E+02  0.77331898009E+02  0.00000000000E+00 0.  1.
          1   -1    0    0  501    0  0.00000000000E+00 -0.00000000000E+00 -0.39187266197E+03  0.39187266197E+03  0.00000000000E+00 0. -1.
         25    2    1    2    0    0  0.10034435671E+03 -0.91452848329E+02 -0.18260846067E+03  0.25966289150E+03  0.12508538653E+03 0.  0.
          5    1    3    3  502    0  0.10594762031E+03 -0.11572943113E+03 -0.17017360470E+03  0.23150535116E+03  0.41800000000E+01 0.  1.
         -5    1    3    3    0  502 -0.56032636025E+01  0.24276582797E+02 -0.12434855975E+02  0.28157540347E+02  0.41800000000E+01 0.  1.
        -11    1    1    2    0    0 -0.10488768425E+02 -0.17517599886E+02 -0.90684177310E+01  0.22340921399E+02  0.00000000000E+00 0.  1.
         11    1    1    2    0    0 -0.89855588287E+02  0.10897044821E+03 -0.12286388556E+03  0.18720074707E+03  0.00000000000E+00 0. -1.
</event>
<event>
 7    1  0.2855090E-009  0.8462186E+02  0.7561462E-02  0.1316424E+00
          3   -1    0    0  501    0  0.00000000000E+00  0.00000000000E+00  0.16716607193E+03  0.16716607193E+03  0.00000000000E+00 0. -1.
         -3   -1    0    0    0  501 -0.00000000000E+00 -0.00000000000E+00 -0.79641576075E+02  0.79641576075E+02  0.00000000000E+00 0.  1.
         25    2    1    2    0    0 -0.12471591206E+02 -0.76351178310E+01  0.57095636618E+01  0.12607145324E+03  0.12509027378E+03 0.  0.
          5    1    3    3  502    0 -0.74543567068E+01  0.57174196976E+02 -0.10949901355E+02  0.58837309367E+02  0.41800000000E+01 0. -1.
         -5    1    3    3    0  502 -0.50172344989E+01 -0.64809314807E+02  0.16659465017E+02  0.67234143874E+02  0.41800000000E+01 0. -1.
        -11    1    1    2    0    0 -0.81136191296E+01  0.20482861332E+02  0.91866411401E+02  0.94471244130E+02  0.00000000000E+00 0. -1.
         11    1    1    2    0    0  0.20585210335E+02 -0.12847743502E+02 -0.10051479207E+02  0.26264950636E+02  0.00000000000E+00 0.  1.
</event>
<event>
 7    1  0.2855090E-009  0.1073251E+03  0.7561462E-02  0.1265605E+00
         -1   -1    0    0    0  501 -0.00000000000E+00  0.00000000000E+00  0.32418587599E+03  0.32418587599E+03  0.00000000000E+00 0.  1.
          1   -1    0    0  501    0  0.00000000000E+00 -0.00000000000E+00 -0.52723419317E+02  0.52723419317E+02  0.00000000000E+00 0. -1.
         25    2    1    2    0    0 -0.67081434827E+02 -0.26705048487E+02  0.14454834427E+03  0.20434172001E+03  0.12509291024E+03 0.  0.
          5    1    3    3  502    0 -0.81891636102E+02 -0.30145256392E+02  0.35731832043E+02  0.94388626261E+02  0.41800000000E+01 0. -1.
         -5    1    3    3    0  502  0.14810201275E+02  0.34402079048E+01  0.10881651223E+03  0.10995309375E+03  0.41800000000E+01 0. -1.
        -11    1    1    2    0    0 -0.18121496508E+02  0.18538753906E+02  0.54885527032E+02  0.60700042089E+02  0.00000000000E+00 0.  1.
         11    1    1    2    0    0  0.85202931334E+02  0.81662945810E+01  0.72028585373E+02  0.11186753321E+03  0.00000000000E+00 0. -1.
</event>
<event>
 7    1  0.2855090E-009  0.1895623E+03  0.7561462E-02  0.1158857E+00
          2   -1    0    0  501    0  0.00000000000E+00  0.00000000000E+00  0.45308436355E+03  0.45308436355E+03  0.00000000000E+00 0. -1.
         -2   -1    0    0    0  501 -0.00000000000E+00 -0.00000000000E+00 -0.98352320418E+02  0.98352320418E+02  0.00000000000E+00 0.  1.
         25    2    1    2    0    0  0.16235453663E+03 -0.41387398647E+02  0.90508272887E+02  0.22784265465E+03  0.12509442627E+03 0.  0.
          5    1    3    3  502    0  0.15754128981E+03 -0.75240066883E+02  0.76447407464E+02  0.19063578931E+03  0.41800000000E+01 0. -1.
         -5    1    3    3    0  502  0.48132468274E+01  0.33852668236E+02  0.14060865423E+02  0.37206865336E+02  0.41800000000E+01 0. -1.
        -11    1    1    2    0    0 -0.15010639348E+03  0.29510451495E+02  0.26556956426E+03  0.30647999865E+03  0.00000000000E+00 0. -1.
         11    1    1    2    0    0 -0.12248143150E+02  0.11876947152E+02 -0.13457940140E+01  0.17114030671E+02  0.00000000000E+00 0.  1.
</event>
<event>
 7    1  0.2855090E-009  0.1331300E+03  0.7561462E-02  0.1222884E+00
         -2   -1    0    0    0  501 -0.00000000000E+00  0.00000000000E+00  0.90402698191E+02  0.90402698191E+02  0.00000000000E+00 0. -1.
          2   -1    0    0  501    0  0.00000000000E+00 -0.00000000000E+00 -0.24248833882E+03  0.24248833882E+03  0.00000000000E+00 0.  1.
         25    2    1    2    0    0 -0.11538903450E+02 -0.10106283021E+03 -0.85444293527E+02  0.18246979136E+03  0.12509058925E+03 0.  0.
          5    1    3    3  502    0 -0.56470483365E+02 -0.99212183271E+02 -0.48429779638E+02  0.12407614096E+03  0.41800000000E+01 0. -1.
         -5    1    3    3    0  502  0.44931579916E+02 -0.18506469349E+01 -0.37014513888E+02  0.58393650393E+02  0.41800000000E+01 0. -1.
        -11    1    1    2    0    0  0.21500565783E+02  0.44416829621E+02  0.14069923440E+02  0.51313661224E+02  0.00000000000E+00 0. -1.
         11    1    1    2    0    0 -0.99616623333E+01  0.56646000584E+02 -0.80711270538E+02  0.99107584425E+02  0.00000000000E+00 0.  1.
</event>
<event>
 7    1  0.2855090E-009  0.1747846E+03  0.7561462E-02  0.1172948E+00
         -1   -1    0    0    0  501 -0.00000000000E+00  0.00000000000E+00  0.49079252341E+03  0.49079252341E+03  0.00000000000E+00 0.  1.
          1   -1    0    0  501    0  0.00000000000E+00 -0.00000000000E+00 -0.10023649385E+03  0.10023649385E+03  0.00000000000E+00 0. -1.
         25    2    1    2    0    0  0.13169292443E+03 -0.10684567592E+03  0.32308612202E+03  0.38573458012E+03  0.12508996462E+03 0.  0.
          5    1    3    3  502    0  0.65255348143E+02 -0.33390766124E+02  0.25528764299E+03  0.26563594784E+03  0.41800000000E+01 0. -1.
         -5    1    3    3    0  502  0.66437576283E+02 -0.73454909792E+02  0.67798479035E+02  0.12009863228E+03  0.41800000000E+01 0. -1.
        -11    1    1    2    0    0 -0.34446191041E+02  0.59745094557E+02  0.68548427605E+02  0.97236327204E+02  0.00000000000E+00 0.  1.
         11    1    1    2    0    0 -0.97246733385E+02  0.47100581359E+02 -0.10785200727E+01  0.10805810994E+03  0.00000000000E+00 0. -1.
</event>
<event>
 7    1  0.2855090E-009  0.1083410E+03  0.7561462E-02  0.1263673E+00
          2   -1    0    0  501    0  0.00000000000E+00  0.00000000000E+00  0.12198873235E+04  0.12198873235E+04  0.00000000000E+00 0. -1.
         -2   -1    0    0    0  501 -0.00000000000E+00 -0.00000000000E+00 -0.10460602222E+02  0.10460602222E+02  0.00000000000E+00 0.  1.
         25    2    1    2    0    0 -0.22104326740E+02  0.15193953907E+01  0.82028631056E+03  0.83006213492E+03  0.12507040706E+03 0.  0.
          5    1    3    3  502    0  0.29499618791E+01 -0.59409761010E+02  0.32890238905E+03  0.33426408109E+03  0.41800000000E+01 0. -1.
         -5    1    3    3    0  502 -0.25054288619E+02  0.60929156401E+02  0.49138392150E+03  0.49579805384E+03  0.41800000000E+01 0. -1.
        -11    1    1    2    0    0  0.19851500760E+02  0.42529381794E+02  0.24843038607E+03  0.25282501284E+03  0.00000000000E+00 0. -1.
         11    1    1    2    0    0  0.22528259804E+01 -0.44048777185E+02  0.14071002463E+03  0.14746077793E+03  0.00000000000E+00 0.  1.
</event>
<event>
 7    1  0.2855090E-009  0.2416887E+03  0.7561462E-02  0.1118673E+00
         -2   -1    0    0    0  501 -0.00000000000E+00  0.00000000000E+00  0.32878553101E+02  0.32878553101E+02  0.00000000000E+00 0.  1.
          2   -1    0    0  501    0  0.00000000000E+00 -0.00000000000E+00 -0.20075323782E+04  0.20075323782E+04  0.00000000000E+00 0. -1.
         25    2    1    2    0    0  0.21932194124E+03 -0.25697423428E+02 -0.12961469787E+04  0.13207600165E+04  0.12509020532E+03 0.  0.
          5    1    3    3  502    0  0.15174571918E+03  0.41846309426E+02 -0.75832376756E+03  0.77450002308E+03  0.41800000000E+01 0. -1.
         -5    1    3    3    0  502  0.67576222051E+02 -0.67543732854E+02 -0.53782321109E+03  0.54625999343E+03  0.41800000000E+01 0. -1.
        -11    1    1    2    0    0 -0.18489384158E+03  0.45701821878E+02 -0.62212950663E+03  0.65063008860E+03  0.00000000000E+00 0. -1.
         11    1    1    2    0    0 -0.34428099658E+02 -0.20004398449E+02 -0.56377339846E+02  0.69020826215E+02  0.00000000000E+00 0.  1.
</event>
<event>
 7    1  0.2855090E-009  0.9690374E+02  0.7561462E-02  0.1286945E+00
          1   -1    0    0  501    0  0.00000000000E+00  0.00000000000E+00  0.30852846636E+03  0.30852846636E+03  0.00000000000E+00 0. -1.
         -1   -1    0    0    0  501 -0.00000000000E+00 -0.00000000000E+00 -0.48396114825E+02  0.48396114825E+02  0.00000000000E+00 0.  1.
         25    2    1    2    0    0  0.10014701249E+02  0.51598372295E+02  0.17585219520E+03  0.22211852228E+03  0.12509978864E+03 0.  0.
          5    1    3    3  502    0  0.43711418222E+02  0.71146295540E+02  0.69305791851E+02  0.10859672479E+03  0.41800000000E+01 0. -1.
         -5    1    3    3    0  502 -0.33696716973E+02 -0.19547923245E+02  0.10654640335E+03  0.11352179748E+03  0.41800000000E+01 0. -1.
        -11    1    1    2    0    0 -0.23460238914E+02 -0.70622395079E+01 -0.12441330419E+02  0.27478077432E+02  0.00000000000E+00 0.  1.
         11    1    1    2    0    0  0.13445537665E+02 -0.44536132787E+02  0.96721486755E+02  0.10732798147E+03  0.00000000000E+00 0. -1.
</event>
<event>
 7    1  0.2855090E-009  0.6395388E+02  0.7561462E-02  0.1381950E+00
          1   -1    0    0  501    0  0.00000000000E+00  0.00000000000E+00  0.33025622072E+03  0.33025622072E+03  0.00000000000E+00 0. -1.
         -1   -1    0    0    0  501 -0.00000000000E+00 -0.00000000000E+00 -0.48598928137E+02  0.48598928137E+02  0.00000000000E+00 0.  1.
         25    2    1    2    0    0  0.48624097042E+02  0.11010512407E+02  0.92710692317E+02  0.16349032402E+03  0.12509308286E+03 0.  0.
          5    1    3    3  502    0  0.38456735432E+02 -0.34999388629E+01 -0.23808568763E+02  0.45557550621E+02  0.41800000000E+01 0.  1.
         -5    1    3    3    0  502  0.10167361611E+02  0.14510451270E+02  0.11651926108E+03  0.11793277340E+03  0.41800000000E+01 0.  1.
        -11    1    1    2    0    0 -0.24484143987E+02  0.19964063759E+02  0.16782910215E+03  0.17077659289E+03  0.00000000000E+00 0. -1.
         11    1    1    2    0    0 -0.24139953056E+02 -0.30974576166E+02  0.21117498113E+02  0.44588231954E+02  0.00000000000E+00 0.  1.
</event>
<event>
 7    1  0.2855090E-009  0.1462035E+03  0.7561462E-02  0.1205217E+00
          4   -1    0    0  501    0  0.00000000000E+00  0.00000000000E+00  0.42766369529E+03  0.42766369529E+03  0.00000000000E+00 0. -1.
         -4   -1    0    0    0  501 -0.00000000000E+00 -0.00000000000E+00 -0.73374443973E+02  0.73374443973E+02  0.00000000000E+00 0.  1.
         25    2    1    2    0    0  0.65774317744E+02  0.94616872131E+02  0.29973391257E+03  0.34462589924E+03  0.12509188109E+03 0.  0.
          5    1    3    3  502    0 -0.42620188172E+00 -0.28628755123E+02  0.37360878097E+02  0.47255633317E+02  0.41800000000E+01 0.  1.
         -5    1    3    3    0  502  0.66200519625E+02  0.12324562725E+03  0.26237303448E+03  0.29737026592E+03  0.41800000000E+01 0.  1.
        -11    1    1    2    0    0 -0.72333131974E+02 -0.82408340590E+02  0.10410986035E+02  0.11014356636E+03  0.00000000000E+00 0.  1.
         11    1    1    2    0    0  0.65588142305E+01 -0.12208531541E+02  0.44144352708E+02  0.46268673663E+02  0.00000000000E+00 0. -1.
</event>
<event>
 7    1  0.2855090E-009  0.7592438E+02  0.7561462E-02  0.1341032E+00
          3   -1    0    0  501    0  0.00000000000E+00  0.00000000000E+00  0.31208962720E+02  0.31208962720E+02  0.00000000000E+00 0. -1.
         -3   -1    0    0    0  501 -0.00000000000E+00 -0.00000000000E+00 -0.39922117516E+03  0.39922117516E+03  0.00000000000E+00 0.  1.
         25    2    1    2    0    0  0.23424261316E+02  0.10712968240E+02 -0.18885677152E+03  0.22797954015E+03  0.12507728359E+03 0.  0.
          5    1    3    3  502    0  0.30135389247E+02 -0.33518739525E+02 -0.13912179843E+02  0.47356823504E+02  0.41800000000E+01 0.  1.
         -5    1    3    3    0  502 -0.67111279310E+01  0.44231707765E+02 -0.17494459168E+03  0.18062271664E+03  0.41800000000E+01 0.  1.
        -11    1    1    2    0    0 -0.14632452125E+02  0.22750389748E+02 -0.85451428704E+01  0.28367381894E+02  0.00000000000E+00 0. -1.
         11    1    1    2    0    0 -0.87918091911E+01 -0.33463357988E+02 -0.17061029804E+03  0.17408321583E+03  0.00000000000E+00 0.  1.
</event>
<event>
 7    1  0.2855090E-009  0.2427434E+03  0.7561462E-02  0.1117979E+00
         -1   -1    0    0    0  501 -0.00000000000E+00  0.00000000000E+00  0.91998462725E+02  0.91998462725E+02  0.00000000000E+00 0.  1.
          1   -1    0    0  501    0  0.00000000000E+00 -0.00000000000E+00 -0.74092971706E+03  0.74092971706E+03  0.00000000000E+00 0. -1.
         25    2    1    2    0    0  0.80642600043E+02 -0.21673159969E+03 -0.25078804922E+03  0.36334292523E+03  0.12509044902E+03 0.  0.
          5    1    3    3  502    0  0.72978559577E+02 -0.90044497410E+02 -0.51192817178E+02  0.12677562306E+03  0.41800000000E+01 0. -1.
         -5    1    3    3    0  502  0.76640404655E+01 -0.12668710228E+03 -0.19959523204E+03  0.23656730217E+03  0.41800000000E+01 0. -1.
        -11    1    1    2    0    0 -0.32603197291E+02  0.17757520810E+03 -0.24467369409E+03  0.30407423367E+03  0.00000000000E+00 0. -1.
         11    1    1    2    0    0 -0.48039402752E+02  0.39156391593E+02 -0.15346951102E+03  0.16551102088E+03  0.00000000000E+00 0.  1.
</event>
<event>
 7    1  0.2855090E-009  0.4889431E+03  0.7561462E-02  0.1016706E+00
         -1   -1    0    0    0  501 -0.00000000000E+00  0.00000000000E+00  0.38133519777E+03  0.38133519777E+03  0.00000000000E+00 0.  1.
          1   -1    0    0  501    0  0.00000000000E+00 -0.00000000000E+00 -0.63172058779E+03  0.63172058779E+03  0.00000000000E+00 0. -1.
         25    2    1    2    0    0 -0.47403806221E+03  0.54231543525E+02 -0.90107823089E+02  0.50141734109E+03  0.12508711136E+03 0.  0.
          5    1    3    3  502    0 -0.22230040051E+03  0.85981598269E+02 -0.26909112430E+02  0.23989972080E+03  0.41800000000E+01 0.  1.
         -5    1    3    3    0  502 -0.25173766170E+03 -0.31750054743E+02 -0.63198710659E+02  0.26151762030E+03  0.41800000000E+01 0.  1.
        -11    1    1    2    0    0  0.15104975058E+03 -0.60422115129E+02 -0.59733467699E+02  0.17330593271E+03  0.00000000000E+00 0. -1.
         11    1    1    2    0    0  0.32298831163E+03  0.61905716035E+01 -0.10054409923E+03  0.33833251176E+03  0.00000000000E+00 0.  1.
</event>
<event>
 7    1  0.2855090E-009  0.1205750E+03  0.7561462E-02  0.1242151E+00
          2   -1    0    0  501    0  0.00000000000E+00  0.00000000000E+00  0.89016555718E+02  0.89016555718E+02  0.00000000000E+00 0. -1.
         -2   -1    0    0    0  501 -0.00000000000E+00 -0.00000000000E+00 -0.21802175002E+03  0.21802175002E+03  0.00000000000E+00 0.  1.
         25    2    1    2    0    0  0.89293140099E+01  0.82067175164E+02 -0.39423980737E+02  0.15497124398E+03  0.12508829808E+03 0.  0.
          5    1    3    3  502    0  0.42594290615E+02  0.81630904740E+02  0.12430302198E+02  0.93004639747E+02  0.41800000000E+01 0. -1.
         -5    1    3    3    0  502 -0.33664976605E+02  0.43627042410E+00 -0.51854282935E+02  0.61966604235E+02  0.41800000000E+01 0. -1.
        -11    1    1    2    0    0 -0.65940998891E-01  0.16293858336E+02  0.31498497883E+01  0.16595653690E+02  0.00000000000E+00 0. -1.
         11    1    1    2    0    0 -0.88633730110E+01 -0.98361033500E+02 -0.92731063350E+02  0.13547140806E+03  0.00000000000E+00 0.  1.
</event>
<event>
 7    1  0.2855090E-009  0.9645359E+02  0.7561462E-02  0.1287935E+00
          1   -1    0    0  501    0  0.00000000000E+00  0.00000000000E+00  0.82001276215E+02  0.82001276215E+02  0.00000000000E+00 0. -1.
         -1   -1    0    0    0  501 -0.00000000000E+00 -0.00000000000E+00 -0.23067283532E+03  0.23067283532E+03  0.00000000000E+00 0.  1.
         25    2    1    2    0    0 -0.56469036543E+02  0.31505036793E+02 -0.18416677677E+02  0.14201425192E+03  0.12509018467E+03 0.  0.
          5    1    3    3  502    0 -0.81428222096E+02 -0.73428233552E+01  0.17072940939E+02  0.83626730899E+02  0.41800000000E+01 0.  1.
         -5    1    3    3    0  502  0.24959185553E+02  0.38847860148E+02 -0.35489618616E+02  0.58387521022E+02  0.41800000000E+01 0.  1.
        -11    1    1    2    0    0  0.40707173517E+02 -0.21991939321E+02 -0.14164562074E+03  0.14901074205E+03  0.00000000000E+00 0.  1.
         11    1    1    2    0    0  0.15761863025E+02 -0.95130974719E+01  0.11390739308E+02  0.21649117569E+02  0.00000000000E+00 0. -1.
</event>
<event>
 7    1  0.2855090E-009  0.1023057E+03  0.7561462E-02  0.1275521E+00
         -1   -1    0    0    0  501 -0.00000000000E+00  0.00000000000E+00  0.39469058234E+02  0.39469058234E+02  0.00000000000E+00 0.  1.
          1   -1    0    0  501    0  0.00000000000E+00 -0.00000000000E+00 -0.35288213954E+03  0.35288213954E+03  0.00000000000E+00 0. -1.
         25    2    1    2    0    0  0.17806244054E+02  0.34244614866E+02 -0.22055189462E+03  0.25647148270E+03  0.12507888408E+03 0.  0.
          5    1    3    3  502    0 -0.40972113075E+02  0.22093322806E+02 -0.27423663706E+02  0.54188178540E+02  0.41800000000E+01 0.  1.
         -5    1    3    3    0  502  0.58778357129E+02  0.12151292060E+02 -0.19312823091E+03  0.20228330416E+03  0.41800000000E+01 0.  1.
        -11    1    1    2    0    0 -0.21456846455E+02 -0.64117844926E+02 -0.74583693203E+02  0.10066887101E+03  0.00000000000E+00 0. -1.
         11    1    1    2    0    0  0.36506024011E+01  0.29873230060E+02 -0.18277493483E+02  0.35210844070E+02  0.00000000000E+00 0.  1.
</event>
<event>
 7    1  0.2855090E-009  0.1586590E+03  0.7561462E-02  0.1190219E+00
         -2   -1    0    0    0  501 -0.00000000000E+00  0.00000000000E+00  0.22640100193E+03  0.22640100193E+03  0.00000000000E+00 0.  1.
          2   -1    0    0  501    0  0.00000000000E+00 -0.00000000000E+00 -0.20115487565E+03  0.20115487565E+03  0.00000000000E+00 0. -1.
         25    2    1    2    0    0  0.51513526195E+02 -0.12569006948E+03  0.13477769566E+03  0.22861635122E+03  0.12509505127E+03 0.  0.
          5    1    3    3  502    0 -0.14495379682E+02 -0.10363671756E+02  0.84533269327E+02  0.86492009732E+02  0.41800000000E+01 0. -1.
         -5    1    3    3    0  502  0.66008905876E+02 -0.11532639772E+03  0.50244426333E+02  0.14212434149E+03  0.41800000000E+01 0. -1.
        -11    1    1    2    0    0 -0.79432914103E+02  0.81567659308E+02 -0.75665626956E+02  0.13670463778E+03  0.00000000000E+00 0.  1.
         11    1    1    2    0    0  0.27919387908E+02  0.44122410169E+02 -0.33865942421E+02  0.62234888579E+02  0.00000000000E+00 0. -1.
</event>
<event>
 7    1  0.2855090E-009  0.9012602E+02  0.7561462E-02  0.1302547E+00
          2   -1    0    0  501    0  0.00000000000E+00  0.00000000000E+00  0.13054985246E+03  0.13054985246E+03  0.00000000000E+00 0. -1.
         -2   -1    0    0    0  501 -0.00000000000E+00 -0.00000000000E+00 -0.99619868649E+02  0.99619868649E+02  0.00000000000E+00 0.  1.
         25    2    1    2    0    0  0.31839255120E+02 -0.95189566533E+01  0.28665545709E+02  0.13255846698E+03  0.12508271246E+03 0.  0.
          5    1    3    3  502    0  0.43222948447E+01 -0.63336402905E+02 -0.39598632454E+01  0.63744294510E+02  0.41800000000E+01 0.  1.
         -5    1    3    3    0  502  0.27516960275E+02  0.53817446252E+02  0.32625408954E+02  0.68814172474E+02  0.41800000000E+01 0.  1.
        -11    1    1    2    0    0  0.10604517944E+02 -0.42449689848E+01 -0.36660732697E+02  0.38399021920E+02  0.00000000000E+00 0.  1.
         11    1    1    2    0    0 -0.42443773064E+02  0.13763925638E+02  0.38925170800E+02  0.59212232205E+02  0.00000000000E+00 0. -1.
</event>
<event>
 7    1  0.2855090E-009  0.1106328E+03  0.7561462E-02  0.1259403E+00
          1   -1    0    0  501    0  0.00000000000E+00  0.00000000000E+00  0.28901841268E+03  0.28901841268E+03  0.00000000000E+00 0. -1.
         -1   -1    0    0    0  501 -0.00000000000E+00 -0.00000000000E+00 -0.47195016033E+02  0.47195016033E+02  0.00000000000E+00 0.  1.
         25    2    1    2    0    0  0.34474010901E+02 -0.24849831034E+02  0.13997363585E+03  0.19247363219E+03  0.12509000290E+03 0.  0.
          5    1    3    3  502    0 -0.44903354518E+02  0.85332524529E+01  0.48276630847E+02  0.66612559854E+02  0.41800000000E+01 0. -1.
         -5    1    3    3    0  502  0.79377365419E+02 -0.33383083487E+02  0.91697004998E+02  0.12586107234E+03  0.41800000000E+01 0. -1.
        -11    1    1    2    0    0 -0.41836588621E+02  0.48694998128E+02  0.99844901490E+02  0.11870344285E+03  0.00000000000E+00 0. -1.
         11    1    1    2    0    0  0.73625777200E+01 -0.23845167094E+02  0.20048593084E+01  0.25036353673E+02  0.00000000000E+00 0.  1.
</event>
<event>
 7    1  0.2855090E-009  0.1224678E+03  0.7561462E-02  0.1239081E+00
         -1   -1    0    0    0  501 -0.00000000000E+00  0.00000000000E+00  0.75192534787E+03  0.75192534787E+03  0.00000000000E+00 0.  1.
          1   -1    0    0  501    0  0.00000000000E+00 -0.00000000000E+00 -0.26686877540E+02  0.26686877540E+02  0.00000000000E+00 0. -1.
         25    2    1    2    0    0 -0.72413255013E+02  0.53127742226E+02  0.40710961115E+03  0.43526003673E+03  0.12508727989E+03 0.  0.
          5    1    3    3  502    0 -0.86903028312E+02  0.59854388419E+02  0.40508452188E+03  0.41862349004E+03  0.41800000000E+01 0.  1.
         -5    1    3    3    0  502  0.14489773299E+02 -0.67266461929E+01  0.20250892624E+01  0.16636546691E+02  0.41800000000E+01 0.  1.
        -11    1    1    2    0    0  0.57485535316E+02 -0.76131038527E+02  0.28386505029E+03  0.29946600570E+03  0.00000000000E+00 0.  1.
         11    1    1    2    0    0  0.14927719697E+02  0.23003296301E+02  0.34263808899E+02  0.43886182977E+02  0.00000000000E+00 0. -1.
</event>
<event>
 7    1  0.2855090E-009  0.1317563E+03  0.7561462E-02  0.1224873E+00
         -2   -1    0    0    0  501 -0.00000000000E+00  0.00000000000E+00  0.83647918074E+02  0.83647918074E+02  0.00000000000E+00 0.  1.
          2   -1    0    0  501    0  0.00000000000E+00 -0.00000000000E+00 -0.31073523145E+03  0.31073523145E+03  0.00000000000E+00 0. -1.
         25    2    1    2    0    0  0.79165521679E+02 -0.21012203872E+02 -0.22751767737E+03  0.27225205540E+03  0.12509274807E+03 0.  0.
          5    1    3    3  502    0  0.54492860698E+02 -0.70086370849E+02 -0.10268825279E+03  0.13580839778E+03  0.41800000000E+01 0. -1.
         -5    1    3    3    0  502  0.24672660980E+02  0.49074166977E+02 -0.12482942458E+03  0.13644365762E+03  0.41800000000E+01 0. -1.
        -11    1    1    2    0    0 -0.11500456513E+01  0.39383679550E+02  0.11915943378E+02  0.41162926602E+02  0.00000000000E+00 0.  1.
         11    1    1    2    0    0 -0.78015476028E+02 -0.18371475678E+02 -0.11485579385E+02  0.80968167524E+02  0.00000000000E+00 0. -1.
</event>
<event>
 7    1  0.2855090E-009  0.1135107E+03  0.7561462E-02  0.1254203E+00
          2   -1    0    0  501    0  0.00000000000E+00  0.00000000000E+00  0.62073565598E+03  0.62073565598E+03  0.00000000000E+00 0. -1.
         -2   -1    0    0    0  501 -0.00000000000E+00 -0.00000000000E+00 -0.22542768896E+02  0.22542768896E+02  0.00000000000E+00 0.  1.
         25    2    1    2    0    0  0.45869193156E+02  0.11106134816E+02  0.31537992477E+03  0.34254835083E+03  0.12509015389E+03 0.  0.
          5    1    3    3  502    0  0.34365405453E+02  0.64783484780E+02  0.22535012948E+03  0.23701905883E+03  0.41800000000E+01 0. -1.
         -5    1    3    3    0  502  0.11503787703E+02 -0.53677349965E+02  0.90029795293E+02  0.10552929201E+03  0.41800000000E+01 0. -1.
        -11    1    1    2    0    0 -0.15767606965E+02 -0.48216647852E+02  0.18560171565E+03  0.19240961362E+03  0.00000000000E+00 0.  1.
         11    1    1    2    0    0 -0.30101586191E+02  0.37110513036E+02  0.97211246668E+02  0.10832046043E+03  0.00000000000E+00 0. -1.
</event>
<event>
 7    1  0.2855090E-009  0.1751484E+03  0.7561462E-02  0.1172583E+00
          2   -1    0    0  501    0  0.00000000000E+00  0.00000000000E+00  0.12857110206E+03  0.12857110206E+03  0.00000000000E+00 0.  1.
         -2   -1    0    0    0  501 -0.00000000000E+00 -0.00000000000E+00 -0.31990003304E+03  0.31990003304E+03  0.00000000000E+00 0. -1.
         25    2    1    2    0    0 -0.21435528552E+02  0.16979593475E+03 -0.10290730098E+03  0.23564305421E+03  0.12509034758E+03 0.  0.
          5    1    3    3  502    0 -0.14893783749E+02  0.11384910804E+03  0.37462426768E+01  0.11495630009E+03  0.41800000000E+01 0.  1.
         -5    1    3    3    0  502 -0.65417448024E+01  0.55946826705E+02 -0.10665354366E+03  0.12068675411E+03  0.41800000000E+01 0.  1.
        -11    1    1    2    0    0 -0.40355119907E+01 -0.13853926852E+03 -0.99965551920E+02  0.17088746545E+03  0.00000000000E+00 0. -1.
         11    1    1    2    0    0  0.25471040542E+02 -0.31256666232E+02  0.11543921927E+02  0.41940615443E+02  0.00000000000E+00 0.  1.
</event>
<event>
 7    1  0.2855090E-009  0.1397773E+03  0.7561462E-02  0.1213629E+00
         -1   -1    0    0    0  501 -0.00000000000E+00  0.00000000000E+00  0.22797354899E+03  0.22797354899E+03  0.00000000000E+00 0.  1.
          1   -1    0    0  501    0  0.00000000000E+00 -0.00000000000E+00 -0.12275539437E+03  0.12275539437E+03  0.00000000000E+00 0. -1.
         25    2    1    2    0    0 -0.31892977508E+02 -0.11588238196E+03  0.98848154428E+02  0.19966013190E+03  0.12508925682E+03 0.  0.
          5    1    3    3  502    0  0.29966525997E+01  0.59409355586E+01 -0.22698717149E+02  0.24020383059E+02  0.41800000000E+01 0. -1.
         -5    1    3    3    0  502 -0.34889630108E+02 -0.12182331752E+03  0.12154687158E+03  0.17563974884E+03  0.41800000000E+01 0. -1.
        -11    1    1    2    0    0 -0.24554810665E+02  0.13568344899E+02  0.18474729725E+02  0.33590986120E+02  0.00000000000E+00 0.  1.
         11    1    1    2    0    0  0.56447788173E+02  0.10231403707E+03 -0.12104729536E+02  0.11747782534E+03  0.00000000000E+00 0. -1.
</event>
<event>
 7    1  0.2855090E-009  0.8943343E+02  0.7561462E-02  0.1304230E+00
          1   -1    0    0  501    0  0.00000000000E+00  0.00000000000E+00  0.17447929276E+03  0.17447929276E+03  0.00000000000E+00 0. -1.
         -1   -1    0    0    0  501 -0.00000000000E+00 -0.00000000000E+00 -0.10372942720E+03  0.10372942720E+03  0.00000000000E+00 0.  1.
         25    2    1    2    0    0  0.27896966185E+00 -0.23371647970E+01 -0.43450929289E+02  0.13244405560E+03  0.12509158422E+03 0.  0.
          5    1    3    3  502    0  0.38029703931E+01  0.61113235482E+02 -0.23274009024E+02  0.65638723563E+02  0.41800000000E+01 0. -1.
         -5    1    3    3    0  502 -0.35240007313E+01 -0.63450400279E+02 -0.20176920265E+02  0.66805332033E+02  0.41800000000E+01 0. -1.
        -11    1    1    2    0    0  0.17874799162E+02 -0.18802217530E+02 -0.22370475354E+01  0.26039128457E+02  0.00000000000E+00 0.  1.
         11    1    1    2    0    0 -0.18153768824E+02  0.21139382327E+02  0.11643784238E+03  0.11972553590E+03  0.00000000000E+00 0. -1.
</event>
<event>
 7    1  0.2855090E-009  0.1368987E+03  0.7561462E-02  0.1217564E+00
          2   -1    0    0  501    0  0.00000000000E+00  0.00000000000E+00  0.30105660235E+03  0.30105660235E+03  0.00000000000E+00 0.  1.
         -2   -1    0    0    0  501 -0.00000000000E+00 -0.00000000000E+00 -0.11831934364E+03  0.11831934364E+03  0.00000000000E+00 0. -1.
         25    2    1    2    0    0  0.72124464126E+02 -0.76514087346E+02  0.22653406760E+03  0.27932265776E+03  0.12508844656E+03 0.  0.
          5    1    3    3  502    0 -0.26526185187E+02  0.13244618570E+02  0.39454069835E+02  0.49529329171E+02  0.41800000000E+01 0. -1.
         -5    1    3    3    0  502  0.98650649313E+02 -0.89758705915E+02  0.18707999777E+03  0.22979332859E+03  0.41800000000E+01 0. -1.
        -11    1    1    2    0    0 -0.40340784182E+02  0.18750641758E+02  0.19577742797E+02  0.48603018917E+02  0.00000000000E+00 0.  1.
         11    1    1    2    0    0 -0.31783679944E+02  0.57763445588E+02 -0.63374551689E+02  0.91450269320E+02  0.00000000000E+00 0. -1.
</event>
<event>
 7    1  0.2855090E-009  0.1728383E+03  0.7561462E-02  0.1174920E+00
          2   -1    0    0  501    0  0.00000000000E+00  0.00000000000E+00  0.66005655320E+03  0.66005655320E+03  0.00000000000E+00 0.  1.
         -2   -1    0    0    0  501 -0.00000000000E+00 -0.00000000000E+00 -0.57953064810E+02  0.57953064810E+02  0.00000000000E+00 0. -1.
         25    2    1    2    0    0  0.91384995996E+02  0.12962737433E+03  0.24488876833E+03  0.31744741689E+03  0.12509148639E+03 0.  0.
          5    1    3    3  502    0 -0.45829913726E+01  0.77540944408E+02  0.45604870299E+02  0.90171383846E+02  0.41800000000E+01 0.  1.
         -5    1    3    3    0  502  0.95967987368E+02  0.52086429923E+02  0.19928389803E+03  0.22727603304E+03  0.41800000000E+01 0.  1.
        -11    1    1    2    0    0 -0.71822349123E+02 -0.10032893376E+03  0.33930223640E+03  0.36104065202E+03  0.00000000000E+00 0.  1.
         11    1    1    2    0    0 -0.19562646872E+02 -0.29298440572E+02  0.17912483658E+02  0.39521549102E+02  0.00000000000E+00 0. -1.
</event>
<event>
 7    1  0.2855090E-009  0.1138176E+03  0.7561462E-02  0.1253659E+00
          1   -1    0    0  501    0  0.00000000000E+00  0.00000000000E+00  0.33421587940E+03  0.33421587940E+03  0.00000000000E+00 0. -1.
         -1   -1    0    0    0  501 -0.00000000000E+00 -0.00000000000E+00 -0.43777575742E+02  0.43777575742E+02  0.00000000000E+00 0.  1.
         25    2    1    2    0    0  0.31787982002E+02 -0.41316245426E+02  0.17969332950E+03  0.22506555271E+03  0.12508917785E+03 0.  0.
          5    1    3    3  502    0  0.72699833925E+02 -0.39940639001E+02  0.72501412227E+02  0.11024721163E+03  0.41800000000E+01 0. -1.
         -5    1    3    3    0  502 -0.40911851923E+02 -0.13756064247E+01  0.10719191728E+03  0.11481834109E+03  0.41800000000E+01 0. -1.
        -11    1    1    2    0    0  0.23160068793E+02 -0.12672394291E+02  0.16202864609E+02  0.30975977548E+02  0.00000000000E+00 0.  1.
         11    1    1    2    0    0 -0.54948050794E+02  0.53988639717E+02  0.94542109552E+02  0.12195192488E+03  0.00000000000E+00 0. -1.
</event>
<event>
 7    1  0.2855090E-009  0.1075538E+03  0.7561462E-02  0.1265168E+00
          1   -1    0    0  501    0  0.00000000000E+00  0.00000000000E+00  0.20098661103E+02  0.20098661103E+02  0.00000000000E+00 0. -1.
         -1   -1    0    0    0  501 -0.00000000000E+00 -0.00000000000E+00 -0.10739853508E+04  0.10739853508E+04  0.00000000000E+00 0.  1.
         25    2    1    2    0    0  0.54904956777E+02 -0.26160452683E+02 -0.85797638024E+03  0.86917760572E+03  0.12508923882E+03 0.  0.
          5    1    3    3  502    0  0.94221674831E+02 -0.59466188279E+01 -0.60410022001E+03  0.61144716411E+03  0.41800000000E+01 0. -1.
         -5    1    3    3    0  502 -0.39316718054E+02 -0.20213833856E+02 -0.25387616023E+03  0.25773044161E+03  0.41800000000E+01 0. -1.
        -11    1    1    2    0    0 -0.18910757511E+02  0.34417897171E+02 -0.18078263107E+03  0.18499883268E+03  0.00000000000E+00 0.  1.
         11    1    1    2    0    0 -0.35994199266E+02 -0.82574444877E+01 -0.15127678396E+02  0.39907573516E+02  0.00000000000E+00 0. -1.
</event>
<event>
 7    1  0.2855090E-009  0.1140770E+03  0.7561462E-02  0.1253201E+00
         -2   -1    0    0    0  501 -0.00000000000E+00  0.00000000000E+00  0.56072946838E+02  0.56072946838E+02  0.00000000000E+00 0.  1.
          2   -1    0    0  501    0  0.00000000000E+00 -0.00000000000E+00 -0.28154437178E+03  0.28154437178E+03  0.00000000000E+00 0. -1.
         25    2    1    2    0    0  0.76328835799E+00 -0.62041122071E+02 -0.11205249465E+03  0.17903067609E+03  0.12508612229E+03 0.  0.
          5    1    3    3  502    0  0.68816143843E+01  0.27213481742E+02  0.77807233482E+01  0.29426896895E+02  0.41800000000E+01 0. -1.
         -5    1    3    3    0  502 -0.61183260263E+01 -0.89254603813E+02 -0.11983321800E+03  0.14960377920E+03  0.41800000000E+01 0. -1.
        -11    1    1    2    0    0  0.30382802975E+01  0.85949889739E+02 -0.95148380322E+02  0.12825688664E+03  0.00000000000E+00 0.  1.
         11    1    1    2    0    0 -0.38015686555E+01 -0.23908767668E+02 -0.18270549975E+02  0.30329755885E+02  0.00000000000E+00 0. -1.
</event>
<event>
 7    1  0.2855090E-009  0.1171326E+03  0.7561462E-02  0.1247904E+00
         -2   -1    0    0    0  501 -0.00000000000E+00  0.00000000000E+00  0.21681528403E+02  0.21681528403E+02  0.00000000000E+00 0. -1.
          2   -1    0    0  501    0  0.00000000000E+00 -0.00000000000E+00 -0.98846117382E+03  0.98846117382E+03  0.00000000000E+00 0.  1.
         25    2    1    2    0    0 -0.28548158451E+02  0.10015091704E+03 -0.54455331209E+03  0.56835748982E+03  0.12508686179E+03 0.  0.
          5    1    3    3  502    0 -0.16598058376E+02  0.34018068805E+02 -0.27585110147E+02  0.47022709927E+02  0.41800000000E+01 0. -1.
         -5    1    3    3    0  502 -0.11950100075E+02  0.66132848233E+02 -0.51696820194E+03  0.52133477989E+03  0.41800000000E+01 0. -1.
        -11    1    1    2    0    0  0.45260709814E+02 -0.10242867033E+03 -0.38417226006E+03  0.40016057997E+03  0.00000000000E+00 0.  1.
         11    1    1    2    0    0 -0.16712551363E+02  0.22777532964E+01 -0.38054073275E+02  0.41624632442E+02  0.00000000000E+00 0. -1.
</event>
<event>
 7    1  0.2855090E-009  0.1289413E+03  0.7561462E-02  0.1229035E+00
         -3   -1    0    0    0  501 -0.00000000000E+00  0.00000000000E+00  0.10069526635E+02  0.10069526635E+02  0.00000000000E+00 0.  1.
          3   -1    0    0  501    0  0.00000000000E+00 -0.00000000000E+00 -0.21100258123E+04  0.21100258123E+04  0.00000000000E+00 0. -1.
         25    2    1    2    0    0  0.79261035529E+02 -0.42372684983E+01 -0.15587498216E+04  0.15657745069E+04  0.12509409990E+03 0.  0.
          5    1    3    3  502    0  0.77088548970E+02 -0.56205561080E+02 -0.10664346805E+04  0.10707016903E+04  0.41800000000E+01 0.  1.
         -5    1    3    3    0  502  0.21724865586E+01  0.51968292582E+02 -0.49231514107E+03  0.49507281652E+03  0.41800000000E+01 0.  1.
        -11    1    1    2    0    0  0.22048960306E+01  0.25833163466E+02 -0.54278037531E+02  0.60152466778E+02  0.00000000000E+00 0.  1.
         11    1    1    2    0    0 -0.81465931559E+02 -0.21595894968E+02 -0.48692842657E+03  0.49416836533E+03  0.00000000000E+00 0. -1.
</event>
<event>
 6    1  0.2855090E-009  0.4635696E+03  0.7561462E-02  0.1023751E+00
         -1   -1    0    0    0  501 -0.00000000000E+00  0.00000000000E+00  0.62633493417E+03  0.62633493417E+03  0.00000000000E+00 0.  1.
          1   -1    0    0  501    0  0.00000000000E+00 -0.00000000000E+00 -0.35890099988E+03  0.35890099988E+03  0.00000000000E+00 0. -1.
          5    1    1    2  502    0  0.19545923004E+02  0.27386332043E+03 -0.81998142471E+01  0.27471416188E+03  0.41800000000E+01 0.  1.
         -5    1    1    2    0  502  0.76614076728E+02  0.17300889220E+03  0.76486907050E+02  0.20413111689E+03  0.41800000000E+01 0.  1.
        -11    1    1    2    0    0  0.63426218513E+01 -0.13197900457E+03  0.79943585498E+02  0.15443336220E+03  0.00000000000E+00 0. -1.
         11    1    1    2    0    0 -0.10250262158E+03 -0.31489320806E+03  0.11920325599E+03  0.35195729308E+03  0.00000000000E+00 0.  1.
</event>
<event>
 7    1  0.2855090E-009  0.3700283E+03  0.7561462E-02  0.1054682E+00
         -1   -1    0    0    0  501 -0.00000000000E+00  0.00000000000E+00  0.86271650931E+02  0.86271650931E+02  0.00000000000E+00 0.  1.
          1   -1    0    0  501    0  0.00000000000E+00 -0.00000000000E+00 -0.20679292675E+04  0.20679292675E+04  0.00000000000E+00 0. -1.
         25    2    1    2    0    0  0.22443886141E+03 -0.27801914140E+03 -0.15041663137E+04  0.15510742170E+04  0.12508989554E+03 0.  0.
          5    1    3    3  502    0  0.17128511630E+03 -0.27628617599E+03 -0.12780002904E+04  0.13187019590E+04  0.41800000000E+01 0.  1.
         -5    1    3    3    0  502  0.53153745112E+02 -0.17329654115E+01 -0.22616602335E+03  0.23237225804E+03  0.41800000000E+01 0.  1.
        -11    1    1    2    0    0 -0.14835279099E+03  0.13985862502E+03 -0.21067204138E+03  0.29317519439E+03  0.00000000000E+00 0.  1.
         11    1    1    2    0    0 -0.76086070424E+02  0.13816051638E+03 -0.26681926152E+03  0.30995150704E+03  0.00000000000E+00 0. -1.
</event>
<event>
 7    1  0.2855090E-009  0.1003742E+03  0.7561462E-02  0.1279511E+00
         -1   -1    0    0    0  501 -0.00000000000E+00  0.00000000000E+00  0.35438244851E+02  0.35438244851E+02  0.00000000000E+00 0.  1.
          1   -1    0    0  501    0  0.00000000000E+00 -0.00000000000E+00 -0.69974221404E+03  0.69974221404E+03  0.00000000000E+00 0. -1.
         25    2    1    2    0    0  0.82009227274E+02  0.25975546442E+02 -0.53516619660E+03  0.55628341420E+03  0.12509251200E+03 0.  0.
          5    1    3    3  502    0  0.30213959262E+02  0.93149622233E+01 -0.47088327682E+03  0.47196205848E+03  0.41800000000E+01 0.  1.
         -5    1    3    3    0  502  0.51795268012E+02  0.16660584219E+02 -0.64282919779E+02  0.84321355719E+02  0.41800000000E+01 0.  1.
        -11    1    1    2    0    0  0.14205793280E+02 -0.83277033137E+01  0.52373228223E+00  0.16475117623E+02  0.00000000000E+00 0.  1.
         11    1    1    2    0    0 -0.96215020554E+02 -0.17647843128E+02 -0.12966150487E+03  0.16242192707E+03  0.00000000000E+00 0. -1.
</event>
<event>
 7    1  0.2855090E-009  0.1143832E+03  0.7561462E-02  0.1252662E+00
          2   -1    0    0  501    0  0.00000000000E+00  0.00000000000E+00  0.53595346573E+03  0.53595346573E+03  0.00000000000E+00 0. -1.
         -2   -1    0    0    0  501 -0.00000000000E+00 -0.00000000000E+00 -0.48368459513E+02  0.48368459513E+02  0.00000000000E+00 0.  1.
         25    2    1    2    0    0  0.65450148045E+02  0.85271422394E+02  0.35311095120E+03  0.38972972950E+03  0.12508789247E+03 0.  0.
          5    1    3    3  502    0  0.37050900041E+02  0.69367359554E+02  0.71986709598E+02  0.10669657222E+03  0.41800000000E+01 0. -1.
         -5    1    3    3    0  502  0.28399248004E+02  0.15904062839E+02  0.28112424160E+03  0.28303315728E+03  0.41800000000E+01 0. -1.
        -11    1    1    2    0    0 -0.22663363658E+02 -0.10001655827E+01 -0.76255215036E+01  0.23932759174E+02  0.00000000000E+00 0.  1.
         11    1    1    2    0    0 -0.42786784387E+02 -0.84271256811E+02  0.14209957652E+03  0.17065943657E+03  0.00000000000E+00 0. -1.
</event>
<event>
 7    1  0.2855090E-009  0.7473801E+02  0.7561462E-02  0.1344684E+00
          3   -1    0    0  501    0  0.00000000000E+00  0.00000000000E+00  0.75842335246E+02  0.75842335246E+02  0.00000000000E+00 0. -1.
         -3   -1    0    0    0  501 -0.00000000000E+00 -0.00000000000E+00 -0.15646500129E+03  0.15646500129E+03  0.00000000000E+00 0.  1.
         25    2    1    2    0    0  0.16210946755E+02  0.12866504997E+02 -0.51922332710E+02  0.13700882231E+03  0.12508855668E+03 0.  0.
          5    1    3    3  502    0 -0.52228932420E+01 -0.28261208473E+02  0.30642053952E+02  0.42218270791E+02  0.41800000000E+01 0. -1.
         -5    1    3    3    0  502  0.21433839997E+02  0.41127713471E+02 -0.82564386662E+02  0.94790551519E+02  0.41800000000E+01 0. -1.
        -11    1    1    2    0    0 -0.24262849284E+02 -0.39327185711E+02  0.10437800458E+02  0.47373632642E+02  0.00000000000E+00 0. -1.
         11    1    1    2    0    0  0.80519025291E+01  0.26460680714E+02 -0.39138133793E+02  0.47924881586E+02  0.00000000000E+00 0.  1.
</event>
<event>
 7    1  0.2855090E-009  0.9877807E+02  0.7561462E-02  0.1282887E+00
          1   -1    0    0  501    0  0.00000000000E+00  0.00000000000E+00  0.26723244681E+03  0.26723244681E+03  0.00000000000E+00 0. -1.
         -1   -1    0    0    0  501 -0.00000000000E+00 -0.00000000000E+00 -0.45400550315E+02  0.45400550315E+02  0.00000000000E+00 0.  1.
         25    2    1    2    0    0  0.57043660071E+01 -0.15326225757E+02  0.14514872810E+03  0.19231085074E+03  0.12509147476E+03 0.  0.
          5    1    3    3  502    0  0.53581171413E+02  0.26131126947E+02  0.91071869443E+02  0.10892812093E+03  0.41800000000E+01 0. -1.
         -5    1    3    3    0  502 -0.47876805406E+02 -0.41457352704E+02  0.54076858652E+02  0.83382729811E+02  0.41800000000E+01 0. -1.
        -11    1    1    2    0    0 -0.29679813712E+02  0.33117753776E+02  0.76697106568E+01  0.45127612597E+02  0.00000000000E+00 0.  1.
         11    1    1    2    0    0  0.23975447704E+02 -0.17791528020E+02  0.69013457739E+02  0.75194533784E+02  0.00000000000E+00 0. -1.
</event>
<event>
 7    1  0.2855090E-009  0.9062344E+02  0.7561462E-02  0.1301349E+00
          2   -1    0    0  501    0  0.00000000000E+00  0.00000000000E+00  0.24192472917E+02  0.24192472917E+02  0.00000000000E+00 0. -1.
         -2   -1    0    0    0  501 -0.00000000000E+00 -0.00000000000E+00 -0.42625504122E+03  0.42625504122E+03  0.00000000000E+00 0.  1.
         25    2    1    2    0    0 -0.85784143652E+01 -0.45778379414E+00 -0.22471886669E+03  0.25732920459E+03  0.12508377884E+03 0.  0.
          5    1    3    3  502    0  0.36116005021E+02  0.46025316767E+02 -0.83647794709E+02  0.10216223158E+03  0.41800000000E+01 0.  1.
         -5    1    3    3    0  502 -0.44694419386E+02 -0.46483100561E+02 -0.14107107199E+03  0.15516697301E+03  0.41800000000E+01 0.  1.
        -11    1    1    2    0    0 -0.18827138630E+02 -0.17094043889E+02 -0.14507967725E+03  0.14729148053E+03  0.00000000000E+00 0.  1.
         11    1    1    2    0    0  0.27405552995E+02  0.17551827683E+02 -0.32264024364E+02  0.45826829021E+02  0.00000000000E+00 0. -1.
</event>
<event>
 7    1  0.2855090E-009  0.1302896E+03  0.7561462E-02  0.1227027E+00
         -2   -1    0    0    0  501 -0.00000000000E+00  0.00000000000E+00  0.94635749450E+02  0.94635749450E+02  0.00000000000E+00 0.  1.
          2   -1    0    0  501    0  0.00000000000E+00 -0.00000000000E+00 -0.29201189712E+03  0.29201189712E+03  0.00000000000E+00 0. -1.
         25    2    1    2    0    0 -0.62460265120E+02 -0.95569488542E+02 -0.42327086105E+02  0.17457239599E+03  0.12509647223E+03 0.  0.
          5    1    3    3  502    0 -0.27020913704E+02 -0.25379891193E+02 -0.79260130590E+02  0.87600852481E+02  0.41800000000E+01 0. -1.
         -5    1    3    3    0  502 -0.35439351416E+02 -0.70189597350E+02  0.36933044485E+02  0.86971543506E+02  0.41800000000E+01 0. -1.
        -11    1    1    2    0    0  0.85783719724E+01  0.89950854196E+02 -0.92083274198E+02  0.12901191427E+03  0.00000000000E+00 0.  1.
         11    1    1    2    0    0  0.53881893148E+02  0.56186343462E+01 -0.62965787372E+02  0.83063336319E+02  0.00000000000E+00 0. -1.
</event>
<event>
 7    1  0.2855090E-009  0.8441582E+02  0.7561462E-02  0.1316967E+00
         -2   -1    0    0    0  501 -0.00000000000E+00  0.00000000000E+00  0.33049024711E+02  0.33049024711E+02  0.00000000000E+00 0.  1.
          2   -1    0    0  501    0  0.00000000000E+00 -0.00000000000E+00 -0.39195800583E+03  0.39195800583E+03  0.00000000000E+00 0. -1.
         25    2    1    2    0    0  0.33410252266E+02  0.77151299477E+01 -0.17721750901E+03  0.21961397581E+03  0.12509390346E+03 0.  0.
          5    1    3    3  502    0 -0.84101145564E+01  0.48539854283E+02 -0.14402155734E+03  0.15227123451E+03  0.41800000000E+01 0. -1.
         -5    1    3    3    0  502  0.41820366823E+02 -0.40824724335E+02 -0.33195951676E+02  0.67342741301E+02  0.41800000000E+01 0. -1.
        -11    1    1    2    0    0 -0.52599859126E+01 -0.26460754518E+02 -0.75742439876E+01  0.28021565863E+02  0.00000000000E+00 0.  1.
         11    1    1    2    0    0 -0.28150266354E+02  0.18745624570E+02 -0.17411722812E+03  0.17737148887E+03  0.00000000000E+00 0. -1.
</event>
<event>
 7    1  0.2855090E-009  0.1044642E+03  0.7561462E-02  0.1271179E+00
          2   -1    0    0  501    0  0.00000000000E+00  0.00000000000E+00  0.37286737949E+03  0.37286737949E+03  0.00000000000E+00 0.  1.
         -2   -1    0    0    0  501 -0.00000000000E+00 -0.00000000000E+00 -0.63624004438E+02  0.63624004438E+02  0.00000000000E+00 0. -1.
         25    2    1    2    0    0 -0.30744576894E+02  0.16699010645E+02  0.31383273599E+03  0.33965091279E+03  0.12509064879E+03 0.  0.
          5    1    3    3  502    0 -0.64792280039E+02  0.48152950918E+02  0.22962440539E+03  0.24343702715E+03  0.41800000000E+01 0.  1.
         -5    1    3    3    0  502  0.34047703145E+02 -0.31453940273E+02  0.84208330596E+02  0.96213885639E+02  0.41800000000E+01 0.  1.
        -11    1    1    2    0    0  0.35562794676E+02 -0.42436830891E+02 -0.27704692900E+02  0.61912413860E+02  0.00000000000E+00 0. -1.
         11    1    1    2    0    0 -0.48182177822E+01  0.25737820247E+02  0.23115331963E+02  0.34928057281E+02  0.00000000000E+00 0.  1.
</event>
<event>
 7    1  0.2855090E-009  0.1593680E+03  0.7561462E-02  0.1189412E+00
          2   -1    0    0  501    0  0.00000000000E+00  0.00000000000E+00  0.60901321025E+03  0.60901321025E+03  0.00000000000E+00 0. -1.
         -2   -1    0    0    0  501 -0.00000000000E+00 -0.00000000000E+00 -0.44457382988E+02  0.44457382988E+02  0.00000000000E+00 0.  1.
         25    2    1    2    0    0 -0.73659637235E+02 -0.90607879765E+02  0.22709242002E+03  0.28434747927E+03  0.12508793587E+03 0.  0.
          5    1    3    3  502    0 -0.10350094315E+03 -0.94410930122E+02  0.17705209403E+03  0.22581139334E+03  0.41800000000E+01 0. -1.
         -5    1    3    3    0  502  0.29841305916E+02  0.38030503567E+01  0.50040325988E+02  0.58536085928E+02  0.41800000000E+01 0. -1.
        -11    1    1    2    0    0  0.49740708449E+02  0.10782065285E+03  0.28843494394E+03  0.31192009897E+03  0.00000000000E+00 0.  1.
         11    1    1    2    0    0  0.23918928786E+02 -0.17212773080E+02  0.49028463298E+02  0.57203014997E+02  0.00000000000E+00 0. -1.
</event>
<event>
 7    1  0.2855090E-009  0.1146309E+03  0.7561462E-02  0.1252227E+00
         -1   -1    0    0    0  501 -0.00000000000E+00  0.00000000000E+00  0.28867741786E+02  0.28867741786E+02  0.00000000000E+00 0.  1.
          1   -1    0    0  501    0  0.00000000000E+00 -0.00000000000E+00 -0.58493032133E+03  0.58493032133E+03  0.00000000000E+00 0. -1.
         25    2    1    2    0    0 -0.58616370375E+02  0.32184485845E+02 -0.38210103310E+03  0.40757942982E+03  0.12509225439E+03 0.  0.
          5    1    3    3  502    0 -0.35821614601E+02  0.70743731413E+02 -0.32670741752E+03  0.33621878691E+03  0.41800000000E+01 0.  1.
         -5    1    3    3    0  502 -0.22794755774E+02 -0.38559245568E+02 -0.55393615582E+02  0.71360642912E+02  0.41800000000E+01 0.  1.
        -11    1    1    2    0    0  0.53155030275E+02 -0.57888080258E+02 -0.96689177830E+02  0.12460049835E+03  0.00000000000E+00 0.  1.
         11    1    1    2    0    0  0.54613401000E+01  0.25703594413E+02 -0.77272368619E+02  0.81618134954E+02  0.00000000000E+00 0. -1.
</event>
<event>
 7    1  0.2855090E-009  0.1129598E+03  0.7561462E-02  0.1255185E+00
          2   -1    0    0  501    0  0.00000000000E+00  0.00000000000E+00  0.59352207223E+03  0.59352207223E+03  0.00000000000E+00 0. -1.
         -2   -1    0    0    0  501 -0.00000000000E+00 -0.00000000000E+00 -0.23292659197E+02  0.23292659197E+02  0.00000000000E+00 0.  1.
         25    2    1    2    0    0  0.23506433162E+02 -0.14565501644E+02  0.38267948116E+03  0.40355402627E+03  0.12509020979E+03 0.  0.
          5    1    3    3  502    0  0.42120449443E+02  0.45072639750E+02  0.23811128161E+03  0.24600839405E+03  0.41800000000E+01 0. -1.
         -5    1    3    3    0  502 -0.18614016281E+02 -0.59638141394E+02  0.14456819955E+03  0.15754563222E+03  0.41800000000E+01 0. -1.
        -11    1    1    2    0    0 -0.44761198211E+02 -0.28767014399E+02  0.95292862705E+02  0.10914135635E+03  0.00000000000E+00 0.  1.
         11    1    1    2    0    0  0.21254765050E+02  0.43332516043E+02  0.92257069169E+02  0.10411934880E+03  0.00000000000E+00 0. -1.
</event>
<event>
 7    1  0.2855090E-009  0.2035230E+03  0.7561462E-02  0.1146800E+00
          1   -1    0    0  501    0  0.00000000000E+00  0.00000000000E+00  0.15911674968E+03  0.15911674968E+03  0.00000000000E+00 0. -1.
         -1   -1    0    0    0  501 -0.00000000000E+00 -0.00000000000E+00 -0.32745909539E+03  0.32745909539E+03  0.00000000000E+00 0.  1.
         25    2    1    2    0    0 -0.16344730311E+03 -0.72982243163E+02 -0.18096136632E+03  0.28361241892E+03  0.12509020487E+03 0.  0.
          5    1    3    3  502    0 -0.17317090349E+03 -0.84026681116E+02 -0.18580947939E+03  0.26756546860E+03  0.41800000000E+01 0. -1.
         -5    1    3    3    0  502  0.97236003827E+01  0.11044437953E+02  0.48481130755E+01  0.16046950318E+02  0.41800000000E+01 0. -1.
        -11    1    1    2    0    0  0.89454272966E+02 -0.76562240171E+01 -0.12578807992E+02  0.90658210486E+02  0.00000000000E+00 0.  1.
         11    1    1    2    0    0  0.73993030146E+02  0.80638467180E+02  0.25197828597E+02  0.11230521566E+03  0.00000000000E+00 0. -1.
</event>
<event>
 7    1  0.2855090E-009  0.2612225E+03  0.7561462E-02  0.1106411E+00
         -2   -1    0    0    0  501 -0.00000000000E+00  0.00000000000E+00  0.13502713577E+03  0.13502713577E+03  0.00000000000E+00 0.  1.
          2   -1    0    0  501    0  0.00000000000E+00 -0.00000000000E+00 -0.70928245084E+03  0.70928245084E+03  0.00000000000E+00 0. -1.
         25    2    1    2    0    0 -0.13646439814E+03 -0.20574338836E+03 -0.50215752952E+03  0.57338092404E+03  0.12510246115E+03 0.  0.
          5    1    3    3  502    0  0.99193273703E+01 -0.74381706115E+02 -0.19094152044E+03  0.20520031161E+03  0.41800000000E+01 0.  1.
         -5    1    3    3    0  502 -0.14638372551E+03 -0.13136168224E+03 -0.31121600909E+03  0.36818061243E+03  0.41800000000E+01 0.  1.
        -11    1    1    2    0    0  0.12679963342E+03  0.16179102173E+03 -0.87438978977E+02  0.22338320616E+03  0.00000000000E+00 0. -1.
         11    1    1    2    0    0  0.96647647220E+01  0.43952366623E+02  0.15341193437E+02  0.47545456407E+02  0.00000000000E+00 0.  1.
</event>
<event>
 7    1  0.2855090E-009  0.1057657E+03  0.7561462E-02  0.1268618E+00
          1   -1    0    0  501    0  0.00000000000E+00  0.00000000000E+00  0.14999896242E+03  0.14999896242E+03  0.00000000000E+00 0. -1.
         -1   -1    0    0    0  501 -0.00000000000E+00 -0.00000000000E+00 -0.12717163819E+03  0.12717163819E+03  0.00000000000E+00 0.  1.
         25    2    1    2    0    0 -0.46033558995E+02 -0.37435448948E+02  0.75789544229E+02  0.15783521121E+03  0.12508955789E+03 0.  0.
          5    1    3    3  502    0 -0.43625976015E+02  0.22181997345E+02  0.84154481330E+02  0.97440832906E+02  0.41800000000E+01 0. -1.
         -5    1    3    3    0  502 -0.24075829794E+01 -0.59617446293E+02 -0.83649371003E+01  0.60394378306E+02  0.41800000000E+01 0. -1.
        -11    1    1    2    0    0  0.66001749912E+02  0.72386372171E+01 -0.49795433431E+02  0.82995265231E+02  0.00000000000E+00 0.  1.
         11    1    1    2    0    0 -0.19968190917E+02  0.30196811731E+02 -0.31667865729E+01  0.36340124166E+02  0.00000000000E+00 0. -1.
</event>
<event>
 7    1  0.2855090E-009  0.8497697E+02  0.7561462E-02  0.1315493E+00
         -1   -1    0    0    0  501 -0.00000000000E+00  0.00000000000E+00  0.21237781860E+03  0.21237781860E+03  0.00000000000E+00 0.  1.
          1   -1    0    0  501    0  0.00000000000E+00 -0.00000000000E+00 -0.82024004995E+02  0.82024004995E+02  0.00000000000E+00 0. -1.
         25    2    1    2    0    0 -0.51232263965E+02  0.37278939081E+02  0.26217260535E+02  0.14265092441E+03  0.12508987695E+03 0.  0.
          5    1    3    3  502    0 -0.35719096625E+02 -0.13988733876E+02 -0.41197079537E+02  0.56446526036E+02  0.41800000000E+01 0. -1.
         -5    1    3    3    0  502 -0.15513167340E+02  0.51267672957E+02  0.67414340072E+02  0.86204398372E+02  0.41800000000E+01 0. -1.
        -11    1    1    2    0    0  0.13603481012E+02 -0.37626022338E+02 -0.10628127823E+01  0.40023765736E+02  0.00000000000E+00 0. -1.
         11    1    1    2    0    0  0.37628782953E+02  0.34708325724E+00  0.10519936585E+03  0.11172713345E+03  0.00000000000E+00 0.  1.
</event>
<event>
 7    1  0.2855090E-009  0.1564189E+03  0.7561462E-02  0.1192800E+00
         -1   -1    0    0    0  501 -0.00000000000E+00  0.00000000000E+00  0.29549045721E+02  0.29549045721E+02  0.00000000000E+00 0.  1.
          1   -1    0    0  501    0  0.00000000000E+00 -0.00000000000E+00 -0.12703223922E+04  0.12703223922E+04  0.00000000000E+00 0. -1.
         25    2    1    2    0    0  0.15471783497E+03 -0.15317416747E+02 -0.52366099808E+03  0.56039308589E+03  0.12508932043E+03 0.  0.
          5    1    3    3  502    0  0.90835466731E+02 -0.48856838335E+01 -0.46203168175E+03  0.47092005613E+03  0.41800000000E+01 0.  1.
         -5    1    3    3    0  502  0.63882368235E+02 -0.10431732914E+02 -0.61629316334E+02  0.89473029762E+02  0.41800000000E+01 0.  1.
        -11    1    1    2    0    0 -0.40966401147E+02 -0.52971405659E+01 -0.63718958159E+02  0.75936890574E+02  0.00000000000E+00 0.  1.
         11    1    1    2    0    0 -0.11375143382E+03  0.20614557313E+02 -0.65339339024E+03  0.66354146146E+03  0.00000000000E+00 0. -1.
</event>
<event>
 7    1  0.2855090E-009  0.8254403E+02  0.7561462E-02  0.1321983E+00
         -2   -1    0    0    0  501 -0.00000000000E+00  0.00000000000E+00  0.78741239850E+02  0.78741239850E+02  0.00000000000E+00 0.  1.
          2   -1    0    0  501    0  0.00000000000E+00 -0.00000000000E+00 -0.14910180853E+03  0.14910180853E+03  0.00000000000E+00 0. -1.
         25    2    1    2    0    0 -0.14172718773E+02  0.81761261844E+01 -0.48544393336E+02  0.13515678252E+03  0.12507231004E+03 0.  0.
          5    1    3    3  502    0  0.28736662836E+02  0.52956484792E+02 -0.39929537251E+02  0.72401832971E+02  0.41800000000E+01 0.  1.
         -5    1    3    3    0  502 -0.42909381609E+02 -0.44780358608E+02 -0.86148560854E+01  0.62754949546E+02  0.41800000000E+01 0.  1.
        -11    1    1    2    0    0  0.20885628007E+02 -0.20011227335E+02  0.28473662546E+02  0.40588275838E+02  0.00000000000E+00 0.  1.
         11    1    1    2    0    0 -0.67129092337E+01  0.11835101151E+02 -0.50289837889E+02  0.52097990024E+02  0.00000000000E+00 0. -1.
</event>
<event>
 7    1  0.2855090E-009  0.9794271E+02  0.7561462E-02  0.1284683E+00
          2   -1    0    0  501    0  0.00000000000E+00  0.00000000000E+00  0.21711278730E+03  0.21711278730E+03  0.00000000000E+00 0. -1.
         -2   -1    0    0    0  501 -0.00000000000E+00 -0.00000000000E+00 -0.69491802933E+02  0.69491802933E+02  0.00000000000E+00 0.  1.
         25    2    1    2    0    0  0.18767738798E+02  0.48790202057E+02  0.10964612463E+03  0.17436276867E+03  0.12508953039E+03 0.  0.
          5    1    3    3  502    0  0.46176416502E+02  0.10484159844E+02  0.11720270419E+03  0.12647578945E+03  0.41800000000E+01 0. -1.
         -5    1    3    3    0  502 -0.27408677704E+02  0.38306042213E+02 -0.75565795546E+01  0.47886979212E+02  0.41800000000E+01 0. -1.
        -11    1    1    2    0    0  0.14449846034E+02  0.19999029088E+02 -0.41309129390E+01  0.25016467708E+02  0.00000000000E+00 0.  1.
         11    1    1    2    0    0 -0.33217584832E+02 -0.68789231145E+02  0.42105772672E+02  0.87225353859E+02  0.00000000000E+00 0. -1.
</event>
<event>
 7    1  0.2855090E-009  0.1054843E+03  0.7561462E-02  0.1269168E+00
          3   -1    0    0  501    0  0.00000000000E+00  0.00000000000E+00  0.16341962482E+03  0.16341962482E+03  0.00000000000E+00 0. -1.
         -3   -1    0    0    0  501 -0.00000000000E+00 -0.00000000000E+00 -0.92924269372E+02  0.92924269372E+02  0.00000000000E+00 0.  1.
         25    2    1    2    0    0  0.57694863833E+02 -0.69927447979E+01  0.45107688805E+02  0.14511904552E+03  0.12508892034E+03 0.  0.
          5    1    3    3  502    0  0.83448621954E+02  0.25073137804E+02  0.54321924213E+02  0.10276516236E+03  0.41800000000E+01 0. -1.
         -5    1    3    3    0  502 -0.25753758121E+02 -0.32065882601E+02 -0.92142354080E+01  0.42353883158E+02  0.41800000000E+01 0. -1.
        -11    1    1    2    0    0 -0.22647156418E+02  0.32098067190E+02  0.48416090112E+02  0.62348194785E+02  0.00000000000E+00 0. -1.
         11    1    1    2    0    0 -0.35047707415E+02 -0.25105322393E+02 -0.23028423470E+02  0.48876653885E+02  0.00000000000E+00 0.  1.
</event>
<event>
 7    1  0.2855090E-009  0.9478755E+02  0.7561462E-02  0.1291655E+00
          2   -1    0    0  501    0  0.00000000000E+00  0.00000000000E+00  0.97662462297E+02  0.97662462297E+02  0.00000000000E+00 0.  1.
         -2   -1    0    0    0  501 -0.00000000000E+00 -0.00000000000E+00 -0.17417726866E+03  0.17417726866E+03  0.00000000000E+00 0. -1.
         25    2    1    2    0    0  0.47607197005E+02 -0.46407401736E+02 -0.49357664109E+02  0.15002440913E+03  0.12510416535E+03 0.  0.
          5    1    3    3  502    0  0.55804908737E+02 -0.69338340283E+02 -0.73479843197E+02  0.11549351942E+03  0.41800000000E+01 0.  1.
         -5    1    3    3    0  502 -0.81977117322E+01  0.22930938547E+02  0.24122179088E+02  0.34530889712E+02  0.41800000000E+01 0.  1.
        -11    1    1    2    0    0 -0.16488132075E+02  0.40982185358E+02  0.32139798246E+02  0.54629338705E+02  0.00000000000E+00 0.  1.
         11    1    1    2    0    0 -0.31119064930E+02  0.54252163771E+01 -0.59296940498E+02  0.67185983116E+02  0.00000000000E+00 0. -1.
</event>
<event>
 7    1  0.3712898E-009  0.1069906E+03  0.7561462E-02  0.1266247E+00
         -1   -1    0    0    0  501 -0.00000000000E+00  0.00000000000E+00  0.76478197057E+02  0.76478197057E+02  0.00000000000E+00 0.  1.
          1   -1    0    0  501    0  0.00000000000E+00 -0.00000000000E+00 -0.26114709412E+03  0.26114709412E+03  0.00000000000E+00 0. -1.
         25    2    1    2    0    0 -0.11462731869E+02  0.88359984866E+02 -0.11520829957E+03  0.19198717058E+03  0.12508892929E+03 0.  0.
          5    1    3    3  502    0  0.37412806077E+02  0.27778140057E+02 -0.10294432619E+03  0.11307674305E+03  0.41800000000E+01 0. -1.
         -5    1    3    3    0  502 -0.48875537946E+02  0.60581844809E+02 -0.12263973377E+02  0.78910427529E+02  0.41800000000E+01 0. -1.
        -11    1    1    2    0    0  0.29160543720E+01 -0.42172176117E+02  0.18326450798E+02  0.46074446392E+02  0.00000000000E+00 0.  1.
         11    1    1    2    0    0  0.85466774965E+01 -0.46187808749E+02 -0.87787048288E+02  0.99563674201E+02  0.00000000000E+00 0. -1.
</event>
<event>
 7    1  0.2855090E-009  0.1581826E+03  0.7561462E-02  0.1190764E+00
          2   -1    0    0  501    0  0.00000000000E+00  0.00000000000E+00  0.73801356205E+03  0.73801356205E+03  0.00000000000E+00 0. -1.
         -2   -1    0    0    0  501 -0.00000000000E+00 -0.00000000000E+00 -0.59453063935E+02  0.59453063935E+02  0.00000000000E+00 0.  1.
         25    2    1    2    0    0 -0.15346328266E+03  0.71318577932E+01  0.52902440660E+03  0.56490372880E+03  0.12509019751E+03 0.  0.
          5    1    3    3  502    0 -0.33411477516E+02  0.10826119540E+02  0.17521240129E+02  0.39471482741E+02  0.41800000000E+01 0.  1.
         -5    1    3    3    0  502 -0.12005180515E+03 -0.36942617465E+01  0.51150316647E+03  0.52543224606E+03  0.41800000000E+01 0.  1.
        -11    1    1    2    0    0  0.88496555067E+02 -0.27598154152E+02  0.34574897105E+02  0.98937969866E+02  0.00000000000E+00 0.  1.
         11    1    1    2    0    0  0.64966727597E+02  0.20466296359E+02  0.11496119442E+03  0.13362492733E+03  0.00000000000E+00 0. -1.
</event>
<event>
 7    1  0.2855090E-009  0.1006072E+03  0.7561462E-02  0.1279024E+00
          2   -1    0    0  501    0  0.00000000000E+00  0.00000000000E+00  0.17059379571E+03  0.17059379571E+03  0.00000000000E+00 0. -1.
         -2   -1    0    0    0  501 -0.00000000000E+00 -0.00000000000E+00 -0.98995692890E+02  0.98995692890E+02  0.00000000000E+00 0.  1.
         25    2    1    2    0    0 -0.58956531172E+00 -0.58643330094E+02  0.85180171335E+02  0.16230353599E+03  0.12508952176E+03 0.  0.
          5    1    3    3  502    0  0.18982049380E+02  0.11084493277E+02 -0.22976619060E+02  0.32071507811E+02  0.41800000000E+01 0.  1.
         -5    1    3    3    0  502 -0.19571614691E+02 -0.69727823371E+02  0.10815679040E+03  0.13023202817E+03  0.41800000000E+01 0.  1.
        -11    1    1    2    0    0  0.27144860383E+01  0.82399879230E+02 -0.12710726833E+02  0.83418649642E+02  0.00000000000E+00 0.  1.
         11    1    1    2    0    0 -0.21249207266E+01 -0.23756549135E+02 -0.87134168124E+00  0.23867302974E+02  0.00000000000E+00 0. -1.
</event>
<event>
 7    1  0.2855090E-009  0.2015341E+03  0.7561462E-02  0.1148451E+00
         -2   -1    0    0    0  501 -0.00000000000E+00  0.00000000000E+00  0.12849363218E+03  0.12849363218E+03  0.00000000000E+00 0.  1.
          2   -1    0    0  501    0  0.00000000000E+00 -0.00000000000E+00 -0.37709973165E+03  0.37709973165E+03  0.00000000000E+00 0. -1.
         25    2    1    2    0    0  0.95278277050E+02 -0.14443937862E+03 -0.22185899265E+03  0.30791109580E+03  0.12508855314E+03 0.  0.
          5    1    3    3  502    0 -0.21043051613E+02 -0.72337556706E+02 -0.94395076114E+02  0.12084467273E+03  0.41800000000E+01 0. -1.
         -5    1    3    3    0  502  0.11632132866E+03 -0.72101821915E+02 -0.12746391653E+03  0.18706642308E+03  0.41800000000E+01 0. -1.
        -11    1    1    2    0    0 -0.56651984687E+02  0.19485307824E+02 -0.29686627907E+02  0.66861202999E+02  0.00000000000E+00 0. -1.
         11    1    1    2    0    0 -0.38626292362E+02  0.12495407080E+03  0.29395210873E+01  0.13082106503E+03  0.00000000000E+00 0.  1.
</event>
<event>
 7    1  0.2855090E-009  0.1283412E+03  0.7561462E-02  0.1229938E+00
         -1   -1    0    0    0  501 -0.00000000000E+00  0.00000000000E+00  0.55078689559E+02  0.55078689559E+02  0.00000000000E+00 0.  1.
          1   -1    0    0  501    0  0.00000000000E+00 -0.00000000000E+00 -0.46271278046E+03  0.46271278046E+03  0.00000000000E+00 0. -1.
         25    2    1    2    0    0 -0.12046385896E+02  0.10939964215E+03 -0.28548915579E+03  0.33055242307E+03  0.12508976461E+03 0.  0.
          5    1    3    3  502    0  0.13228792083E+02  0.29842628960E+02  0.17710719709E+00  0.32910290338E+02  0.41800000000E+01 0.  1.
         -5    1    3    3    0  502 -0.25275177978E+02  0.79557013195E+02 -0.28566626298E+03  0.29764213273E+03  0.41800000000E+01 0.  1.
        -11    1    1    2    0    0 -0.35459890749E+02 -0.70019375076E+02 -0.53778223646E+02  0.95143124168E+02  0.00000000000E+00 0.  1.
         11    1    1    2    0    0  0.47506276645E+02 -0.39380267079E+02 -0.68366711470E+02  0.92095922782E+02  0.00000000000E+00 0. -1.
</event>
<event>
 7    1  0.2855090E-009  0.1432148E+03  0.7561462E-02  0.1209067E+00
          3   -1    0    0  501    0  0.00000000000E+00  0.00000000000E+00  0.38353001527E+02  0.38353001527E+02  0.00000000000E+00 0. -1.
         -3   -1    0    0    0  501 -0.00000000000E+00 -0.00000000000E+00 -0.66680791781E+03  0.66680791781E+03  0.00000000000E+00 0.  1.
         25    2    1    2    0    0 -0.10943124764E+03  0.31308783684E+02 -0.32457071050E+03  0.36599120770E+03  0.12509188664E+03 0.  0.
          5    1    3    3  502    0 -0.96098866310E+02  0.63639480664E+02 -0.15730298523E+03  0.19505557456E+03  0.41800000000E+01 0.  1.
         -5    1    3    3    0  502 -0.13332381331E+02 -0.32330696980E+02 -0.16726772527E+03  0.17093563314E+03  0.41800000000E+01 0.  1.
        -11    1    1    2    0    0  0.93888229173E+02  0.73806912369E+01 -0.26831894963E+03  0.28436689841E+03  0.00000000000E+00 0.  1.
         11    1    1    2    0    0  0.15543018467E+02 -0.38689474921E+02 -0.35565256161E+02  0.54802813235E+02  0.00000000000E+00 0. -1.
</event>
<event>
 7    1  0.2855090E-009  0.1088771E+03  0.7561462E-02  0.1262664E+00
          1   -1    0    0  501    0  0.00000000000E+00  0.00000000000E+00  0.70624727909E+02  0.70624727909E+02  0.00000000000E+00 0. -1.
         -1   -1    0    0    0  501 -0.00000000000E+00 -0.00000000000E+00 -0.21210059899E+03  0.21210059899E+03  0.00000000000E+00 0.  1.
         25    2    1    2    0    0 -0.54010061906E+02  0.59481575748E+01 -0.95858126595E+02  0.16669611748E+03  0.12508536198E+03 0.  0.
          5    1    3    3  502    0  0.21607515727E+02  0.30461009401E+02  0.53244418165E+01  0.37954972142E+02  0.41800000000E+01 0. -1.
         -5    1    3    3    0  502 -0.75617577633E+02 -0.24512851826E+02 -0.10118256841E+03  0.12874114533E+03  0.41800000000E+01 0. -1.
        -11    1    1    2    0    0  0.65121323731E+02 -0.31773337998E+02 -0.14142857169E+02  0.73826500804E+02  0.00000000000E+00 0.  1.
         11    1    1    2    0    0 -0.11111261825E+02  0.25825180423E+02 -0.31474887321E+02  0.42202708622E+02  0.00000000000E+00 0. -1.
</event>
<event>
 7    1  0.2855090E-009  0.1060129E+03  0.7561462E-02  0.1268137E+00
         -2   -1    0    0    0  501 -0.00000000000E+00  0.00000000000E+00  0.71122637922E+02  0.71122637922E+02  0.00000000000E+00 0.  1.
          2   -1    0    0  501    0  0.00000000000E+00 -0.00000000000E+00 -0.31379738911E+03  0.31379738911E+03  0.00000000000E+00 0. -1.
         25    2    1    2    0    0 -0.23395238139E+02  0.88612940667E+02 -0.11113631419E+03  0.19077888727E+03  0.12508282487E+03 0.  0.
          5    1    3    3  502    0 -0.25149107155E+02  0.66836332446E+02  0.57788782626E+01  0.71766571323E+02  0.41800000000E+01 0. -1.
         -5    1    3    3    0  502  0.17538690158E+01  0.21776608221E+02 -0.11691519245E+03  0.11901231595E+03  0.41800000000E+01 0. -1.
        -11    1    1    2    0    0  0.32563478106E+02 -0.36212895214E+01  0.49060987549E+01  0.33129498173E+02  0.00000000000E+00 0.  1.
         11    1    1    2    0    0 -0.91682399676E+01 -0.84991651145E+02 -0.13644453575E+03  0.16101164158E+03  0.00000000000E+00 0. -1.
</event>
<event>
 7    1  0.2855090E-009  0.1258214E+03  0.7561462E-02  0.1233791E+00
          2   -1    0    0  501    0  0.00000000000E+00  0.00000000000E+00  0.55842378369E+03  0.55842378369E+03  0.00000000000E+00 0. -1.
         -2   -1    0    0    0  501 -0.00000000000E+00 -0.00000000000E+00 -0.45289629555E+02  0.45289629555E+02  0.00000000000E+00 0.  1.
         25    2    1    2    0    0  0.10249395982E+03 -0.24446431547E+02  0.36665748468E+03  0.40148302716E+03  0.12509304622E+03 0.  0.
          5    1    3    3  502    0  0.92020475876E+02 -0.71739814227E+01  0.36930380288E+03  0.38068622935E+03  0.41800000000E+01 0. -1.
         -5    1    3    3    0  502  0.10473483946E+02 -0.17272450125E+02 -0.26463182064E+01  0.20796797814E+02  0.41800000000E+01 0. -1.
        -11    1    1    2    0    0 -0.52688969953E+02 -0.33325983450E+02  0.76809215760E+02  0.98926257148E+02  0.00000000000E+00 0.  1.
         11    1    1    2    0    0 -0.49804989869E+02  0.57772414998E+02  0.69667453699E+02  0.10330412894E+03  0.00000000000E+00 0. -1.
</event>
<event>
 7    1  0.2855090E-009  0.1711109E+03  0.7561462E-02  0.1176694E+00
          2   -1    0    0  501    0  0.00000000000E+00  0.00000000000E+00  0.10384970992E+03  0.10384970992E+03  0.00000000000E+00 0. -1.
         -2   -1    0    0    0  501 -0.00000000000E+00 -0.00000000000E+00 -0.37603321385E+03  0.37603321385E+03  0.00000000000E+00 0.  1.
         25    2    1    2    0    0 -0.13256478646E+03 -0.23273292988E+02 -0.26592959082E+02  0.18565956206E+03  0.12508884337E+03 0.  0.
          5    1    3    3  502    0  0.35526643477E+01 -0.43970700146E+02  0.42127520296E+01  0.44511387026E+02  0.41800000000E+01 0.  1.
         -5    1    3    3    0  502 -0.13611745081E+03  0.20697407158E+02 -0.30805711112E+02  0.14114817504E+03  0.41800000000E+01 0.  1.
        -11    1    1    2    0    0  0.22569590224E+02  0.42859960830E+02 -0.54911555479E+02  0.73223231083E+02  0.00000000000E+00 0.  1.
         11    1    1    2    0    0  0.10999519624E+03 -0.19586667841E+02 -0.19067898937E+03  0.22100013063E+03  0.00000000000E+00 0. -1.
</event>
<event>
 7    1  0.2855090E-009  0.9370367E+02  0.7561462E-02  0.1294123E+00
          1   -1    0    0  501    0  0.00000000000E+00  0.00000000000E+00  0.12790505346E+03  0.12790505346E+03  0.00000000000E+00 0. -1.
         -1   -1    0    0    0  501 -0.00000000000E+00 -0.00000000000E+00 -0.11123327001E+03  0.11123327001E+03  0.00000000000E+00 0.  1.
         25    2    1    2    0    0  0.81905977924E+01  0.17512834706E+02  0.61215852002E+02  0.14060153161E+03  0.12509046679E+03 0.  0.
          5    1    3    3  502    0 -0.40744091303E+02 -0.23041867589E+02 -0.67260038060E+01  0.47473362692E+02  0.41800000000E+01 0.  1.
         -5    1    3    3    0  502  0.48934689095E+02  0.40554702295E+02  0.67941855808E+02  0.93128168916E+02  0.41800000000E+01 0.  1.
        -11    1    1    2    0    0 -0.35693728478E+02  0.10756571086E+02  0.22391771313E+01  0.37346485624E+02  0.00000000000E+00 0. -1.
         11    1    1    2    0    0  0.27503130686E+02 -0.28269405792E+02 -0.46783245676E+02  0.61190306236E+02  0.00000000000E+00 0.  1.
</event>
<event>
 7    1  0.2855090E-009  0.9122518E+02  0.7561462E-02  0.1299912E+00
         -2   -1    0    0    0  501 -0.00000000000E+00  0.00000000000E+00  0.18767433347E+02  0.18767433347E+02  0.00000000000E+00 0.  1.
          2   -1    0    0  501    0  0.00000000000E+00 -0.00000000000E+00 -0.59195025298E+03  0.59195025298E+03  0.00000000000E+00 0. -1.
         25    2    1    2    0    0 -0.34031151222E+02  0.11054444185E+02 -0.38493681585E+03  0.40633053649E+03  0.12509129742E+03 0.  0.
          5    1    3    3  502    0 -0.67898639129E+02  0.10325354120E+02 -0.11329063996E+03  0.13254840488E+03  0.41800000000E+01 0. -1.
         -5    1    3    3    0  502  0.33867487908E+02  0.72909006443E+00 -0.27164617590E+03  0.27378213161E+03  0.41800000000E+01 0. -1.
        -11    1    1    2    0    0  0.56380890709E+02 -0.84563514183E+01 -0.13033313685E+03  0.14225695511E+03  0.00000000000E+00 0.  1.
         11    1    1    2    0    0 -0.22349739487E+02 -0.25980927664E+01 -0.57912866935E+02  0.62130194734E+02  0.00000000000E+00 0. -1.
</event>
<event>
 7    1  0.2994467E-009  0.6915268E+02  0.7561462E-02  0.1362998E+00
         -2   -1    0    0    0  501 -0.00000000000E+00  0.00000000000E+00  0.11233906925E+03  0.11233906925E+03  0.00000000000E+00 0.  1.
          2   -1    0    0  501    0  0.00000000000E+00 -0.00000000000E+00 -0.13820722527E+03  0.13820722527E+03  0.00000000000E+00 0. -1.
         25    2    1    2    0    0 -0.65487555765E+01 -0.37074951853E+02  0.33837166473E+02  0.13498797797E+03  0.12513737294E+03 0.  0.
          5    1    3    3  502    0 -0.22179151306E+02  0.25115214296E+02 -0.29443287772E+02  0.44800316255E+02  0.41800000000E+01 0. -1.
         -5    1    3    3    0  502  0.15630395730E+02 -0.62190166149E+02  0.63280454244E+02  0.90187661715E+02  0.41800000000E+01 0. -1.
        -11    1    1    2    0    0 -0.23516676745E+01  0.25833658478E+02  0.21132477635E+02  0.33458778552E+02  0.00000000000E+00 0.  1.
         11    1    1    2    0    0  0.89004232510E+01  0.11241293375E+02 -0.80837800127E+02  0.82099538002E+02  0.00000000000E+00 0. -1.
</event>
<event>
 7    1  0.2855090E-009  0.1228608E+03  0.7561462E-02  0.1238451E+00
         -1   -1    0    0    0  501 -0.00000000000E+00  0.00000000000E+00  0.12555887843E+03  0.12555887843E+03  0.00000000000E+00 0.  1.
          1   -1    0    0  501    0  0.00000000000E+00 -0.00000000000E+00 -0.16156526416E+03  0.16156526416E+03  0.00000000000E+00 0. -1.
         25    2    1    2    0    0 -0.81259160027E+01 -0.86514873870E+02 -0.51560519974E+02  0.16079977681E+03  0.12508887676E+03 0.  0.
          5    1    3    3  502    0  0.29362403861E+01 -0.10141233108E+03 -0.78132394552E+02  0.12812191804E+03  0.41800000000E+01 0. -1.
         -5    1    3    3    0  502 -0.11062156389E+02  0.14897457211E+02  0.26571874578E+02  0.32677858772E+02  0.41800000000E+01 0. -1.
        -11    1    1    2    0    0 -0.25955152561E+02 -0.59379264476E+01  0.38052269802E+00  0.26628438040E+02  0.00000000000E+00 0.  1.
         11    1    1    2    0    0  0.34081068563E+02  0.92452800317E+02  0.15173611546E+02  0.99695927742E+02  0.00000000000E+00 0. -1.
</event>
<event>
 7    1  0.2855090E-009  0.1506190E+03  0.7561462E-02  0.1199714E+00
         -2   -1    0    0    0  501 -0.00000000000E+00  0.00000000000E+00  0.80540109533E+02  0.80540109533E+02  0.00000000000E+00 0. -1.
          2   -1    0    0  501    0  0.00000000000E+00 -0.00000000000E+00 -0.77554274569E+03  0.77554274569E+03  0.00000000000E+00 0.  1.
         25    2    1    2    0    0  0.90467810492E+02 -0.89035206024E+02 -0.67508320318E+03  0.69820701401E+03  0.12507601909E+03 0.  0.
          5    1    3    3  502    0  0.11156726462E+03 -0.85674871179E+02 -0.64969894221E+03  0.66476584298E+03  0.41800000000E+01 0. -1.
         -5    1    3    3    0  502 -0.21099454129E+02 -0.33603348446E+01 -0.25384260972E+02  0.33441171031E+02  0.41800000000E+01 0. -1.
        -11    1    1    2    0    0 -0.12171333082E+02  0.49598721587E+02  0.27711991359E+02  0.58104466241E+02  0.00000000000E+00 0. -1.
         11    1    1    2    0    0 -0.78296477410E+02  0.39436484437E+02 -0.47631424338E+02  0.99771374973E+02  0.00000000000E+00 0.  1.
</event>
<event>
 7    1  0.2855090E-009  0.1382462E+03  0.7561462E-02  0.1215708E+00
         -1   -1    0    0    0  501 -0.00000000000E+00  0.00000000000E+00  0.21211573109E+03  0.21211573109E+03  0.00000000000E+00 0.  1.
          1   -1    0    0  501    0  0.00000000000E+00 -0.00000000000E+00 -0.11361674025E+03  0.11361674025E+03  0.00000000000E+00 0. -1.
         25    2    1    2    0    0 -0.21248448389E+02 -0.97464904326E+02  0.10197382432E+03  0.18973132978E+03  0.12509361503E+03 0.  0.
          5    1    3    3  502    0  0.40142334295E+02 -0.88974769002E+02  0.66717773341E+02  0.11830743933E+03  0.41800000000E+01 0.  1.
         -5    1    3    3    0  502 -0.61390782685E+02 -0.84901353239E+01  0.35256050983E+02  0.71423890453E+02  0.41800000000E+01 0.  1.
        -11    1    1    2    0    0  0.36675675888E+02  0.93948060655E+02 -0.29907776772E+02  0.10519419382E+03  0.00000000000E+00 0. -1.
         11    1    1    2    0    0 -0.15427227499E+02  0.35168436708E+01  0.26432943288E+02  0.30806947732E+02  0.00000000000E+00 0.  1.
</event>
<event>
 7    1  0.2855090E-009  0.1460421E+03  0.7561462E-02  0.1205423E+00
         -2   -1    0    0    0  501 -0.00000000000E+00  0.00000000000E+00  0.44754385078E+02  0.44754385078E+02  0.00000000000E+00 0.  1.
          2   -1    0    0  501    0  0.00000000000E+00 -0.00000000000E+00 -0.65661674833E+03  0.65661674833E+03  0.00000000000E+00 0. -1.
         25    2    1    2    0    0 -0.10358144056E+03  0.90430761942E+02 -0.27840430680E+03  0.33475753416E+03  0.12508721396E+03 0.  0.
          5    1    3    3  502    0 -0.16222359404E+02  0.37536435084E+02 -0.32505933425E+01  0.41233331912E+02  0.41800000000E+01 0. -1.
         -5    1    3    3    0  502 -0.87359081154E+02  0.52894326858E+02 -0.27515371346E+03  0.29352420225E+03  0.41800000000E+01 0. -1.
        -11    1    1    2    0    0  0.10751439848E+03 -0.70762680439E+02 -0.25513546249E+03  0.28576355094E+03  0.00000000000E+00 0.  1.
         11    1    1    2    0    0 -0.39329579207E+01 -0.19668081504E+02 -0.78322593959E+02  0.80850048315E+02  0.00000000000E+00 0. -1.
</event>
<event>
 7    1  0.2855090E-009  0.1534876E+03  0.7561462E-02  0.1196252E+00
         -2   -1    0    0    0  501 -0.00000000000E+00  0.00000000000E+00  0.47357656959E+02  0.47357656959E+02  0.00000000000E+00 0.  1.
          2   -1    0    0  501    0  0.00000000000E+00 -0.00000000000E+00 -0.10590538187E+04  0.10590538187E+04  0.00000000000E+00 0. -1.
         25    2    1    2    0    0  0.10013801887E+02 -0.12953430353E+03 -0.88469803456E+03  0.90289405803E+03  0.12509058976E+03 0.  0.
          5    1    3    3  502    0  0.27343296856E+02 -0.42431650315E+01 -0.43010186147E+03  0.43101130376E+03  0.41800000000E+01 0. -1.
         -5    1    3    3    0  502 -0.17329494969E+02 -0.12529113850E+03 -0.45459617310E+03  0.47188275427E+03  0.41800000000E+01 0. -1.
        -11    1    1    2    0    0  0.29011066052E+02  0.98182924648E+02 -0.11090604322E+03  0.15093600985E+03  0.00000000000E+00 0. -1.
         11    1    1    2    0    0 -0.39024867939E+02  0.31351378882E+02 -0.16092083919E+02  0.52581407744E+02  0.00000000000E+00 0.  1.
</event>
<event>
 7    1  0.2855090E-009  0.1020660E+03  0.7561462E-02  0.1276010E+00
          4   -1    0    0  501    0  0.00000000000E+00  0.00000000000E+00  0.53860944906E+02  0.53860944906E+02  0.00000000000E+00 0. -1.
         -4   -1    0    0    0  501 -0.00000000000E+00 -0.00000000000E+00 -0.26597785983E+03  0.26597785983E+03  0.00000000000E+00 0.  1.
         25    2    1    2    0    0 -0.34562077304E+02  0.34638140918E+02 -0.10364056457E+03  0.16965621460E+03  0.12509007368E+03 0.  0.
          5    1    3    3  502    0 -0.12199594668E+02 -0.31434423985E+02 -0.92948045169E+02  0.98963450941E+02  0.41800000000E+01 0.  1.
         -5    1    3    3    0  502 -0.22362482636E+02  0.66072564902E+02 -0.10692519400E+02  0.70692763657E+02  0.41800000000E+01 0.  1.
        -11    1    1    2    0    0  0.40738519549E+02  0.19934746203E+02 -0.29931136670E+02  0.54340537572E+02  0.00000000000E+00 0.  1.
         11    1    1    2    0    0 -0.61764422446E+01 -0.54572887120E+02 -0.78545213686E+02  0.95842052568E+02  0.00000000000E+00 0. -1.
</event>
<event>
 7    1  0.2855090E-009  0.8593154E+02  0.7561462E-02  0.1313014E+00
          1   -1    0    0  501    0  0.00000000000E+00  0.00000000000E+00  0.31524493934E+03  0.31524493934E+03  0.00000000000E+00 0. -1.
         -1   -1    0    0    0  501 -0.00000000000E+00 -0.00000000000E+00 -0.50570907650E+02  0.50570907650E+02  0.00000000000E+00 0.  1.
         25    2    1    2    0    0  0.11397337996E+02  0.46825208795E+02  0.90249023138E+02  0.16160134144E+03  0.12509039886E+03 0.  0.
          5    1    3    3  502    0 -0.22007674211E+02  0.30726878827E+02  0.11208908982E+03  0.11836348788E+03  0.41800000000E+01 0.  1.
         -5    1    3    3    0  502  0.33405012207E+02  0.16098329968E+02 -0.21840066680E+02  0.43237853565E+02  0.41800000000E+01 0.  1.
        -11    1    1    2    0    0 -0.29281710800E+02  0.14475675152E+02  0.10465384304E+03  0.10963298145E+03  0.00000000000E+00 0.  1.
         11    1    1    2    0    0  0.17884372804E+02 -0.61300883948E+02  0.69771165510E+02  0.94581524094E+02  0.00000000000E+00 0. -1.
</event>
<event>
 7    1  0.2855090E-009  0.1225695E+03  0.7561462E-02  0.1238917E+00
         -2   -1    0    0    0  501 -0.00000000000E+00  0.00000000000E+00  0.38113400773E+02  0.38113400773E+02  0.00000000000E+00 0. -1.
          2   -1    0    0  501    0  0.00000000000E+00 -0.00000000000E+00 -0.82500811591E+03  0.82500811591E+03  0.00000000000E+00 0.  1.
         25    2    1    2    0    0  0.68984639545E+02 -0.79796218469E+02 -0.63711708791E+03  0.65779289253E+03  0.12508792417E+03 0.  0.
          5    1    3    3  502    0  0.20116716604E+02 -0.24842938379E+02 -0.23808473106E+02  0.40077046621E+02  0.41800000000E+01 0.  1.
         -5    1    3    3    0  502  0.48867922940E+02 -0.54953280090E+02 -0.61330861481E+03  0.61771584590E+03  0.41800000000E+01 0.  1.
        -11    1    1    2    0    0 -0.50434057143E+02  0.99887297885E+02 -0.13031305558E+03  0.17176308932E+03  0.00000000000E+00 0.  1.
         11    1    1    2    0    0 -0.18550582402E+02 -0.20091079416E+02 -0.19464571648E+02  0.33565534839E+02  0.00000000000E+00 0. -1.
</event>
<event>
 7    1  0.2855090E-009  0.9770445E+02  0.7561462E-02  0.1285199E+00
         -1   -1    0    0    0  501 -0.00000000000E+00  0.00000000000E+00  0.16342295741E+04  0.16342295741E+04  0.00000000000E+00 0.  1.
          1   -1    0    0  501    0  0.00000000000E+00 -0.00000000000E+00 -0.10649876966E+02  0.10649876966E+02  0.00000000000E+00 0. -1.
         25    2    1    2    0    0 -0.32808095107E+02  0.33325174515E+01  0.13169618045E+04  0.13233002895E+04  0.12509110624E+03 0.  0.
          5    1    3    3  502    0 -0.84928927107E+01 -0.50341244528E+02  0.27929621320E+03  0.28395460418E+03  0.41800000000E+01 0. -1.
         -5    1    3    3    0  502 -0.24315202396E+02  0.53673761979E+02  0.10376655913E+04  0.10393456853E+04  0.41800000000E+01 0. -1.
        -11    1    1    2    0    0 -0.14432542338E+01  0.34240587347E+02  0.54453255794E+02  0.64340173074E+02  0.00000000000E+00 0. -1.
         11    1    1    2    0    0  0.34251349341E+02 -0.37573104798E+02  0.25216463687E+03  0.25723898854E+03  0.00000000000E+00 0.  1.
</event>
<event>
 7    1  0.2855090E-009  0.1135895E+03  0.7561462E-02  0.1254064E+00
          3   -1    0    0  501    0  0.00000000000E+00  0.00000000000E+00  0.46484827644E+02  0.46484827644E+02  0.00000000000E+00 0. -1.
         -3   -1    0    0    0  501 -0.00000000000E+00 -0.00000000000E+00 -0.30274440563E+03  0.30274440563E+03  0.00000000000E+00 0.  1.
         25    2    1    2    0    0  0.20440768550E+02  0.41653159354E+02 -0.15640243657E+03  0.20557739699E+03  0.12509010067E+03 0.  0.
          5    1    3    3  502    0  0.43695054899E+02  0.73951763890E+02 -0.13535017002E+03  0.16035978963E+03  0.41800000000E+01 0.  1.
         -5    1    3    3    0  502 -0.23254286350E+02 -0.32298604536E+02 -0.21052266553E+02  0.45217607363E+02  0.41800000000E+01 0.  1.
        -11    1    1    2    0    0 -0.35633192082E+02 -0.64522250416E+02 -0.58933979657E+02  0.94371919208E+02  0.00000000000E+00 0. -1.
         11    1    1    2    0    0  0.15192423533E+02  0.22869091062E+02 -0.40923161757E+02  0.49279917076E+02  0.00000000000E+00 0.  1.
</event>
<event>
 7    1  0.2855090E-009  0.1116887E+03  0.7561462E-02  0.1257474E+00
          2   -1    0    0  501    0  0.00000000000E+00  0.00000000000E+00  0.22076668383E+03  0.22076668383E+03  0.00000000000E+00 0. -1.
         -2   -1    0    0    0  501 -0.00000000000E+00 -0.00000000000E+00 -0.66002634511E+02  0.66002634511E+02  0.00000000000E+00 0.  1.
         25    2    1    2    0    0  0.21800432791E+02  0.47480569245E+02  0.70441936615E+02  0.15277996162E+03  0.12509990772E+03 0.  0.
          5    1    3    3  502    0 -0.48981623922E+02  0.32285473287E+02  0.50637028122E+02  0.77608841535E+02  0.41800000000E+01 0.  1.
         -5    1    3    3    0  502  0.70782056713E+02  0.15195095957E+02  0.19804908494E+02  0.75171120080E+02  0.41800000000E+01 0.  1.
        -11    1    1    2    0    0  0.18604495171E+02 -0.48169902110E+02  0.77318055619E+02  0.92976063771E+02  0.00000000000E+00 0. -1.
         11    1    1    2    0    0 -0.40404927961E+02  0.68933286484E+00  0.70040570866E+01  0.41013292955E+02  0.00000000000E+00 0.  1.
</event>
<event>
 7    1  0.2855090E-009  0.1090860E+03  0.7561462E-02  0.1262272E+00
          2   -1    0    0  501    0  0.00000000000E+00  0.00000000000E+00  0.19283437887E+04  0.19283437887E+04  0.00000000000E+00 0. -1.
         -2   -1    0    0    0  501 -0.00000000000E+00 -0.00000000000E+00 -0.86565570742E+01  0.86565570742E+01  0.00000000000E+00 0.  1.
         25    2    1    2    0    0 -0.38320932025E+02  0.13582428955E+02  0.14954193355E+04  0.15011925097E+04  0.12508791391E+03 0.  0.
          5    1    3    3  502    0 -0.54743286213E+02 -0.36831806260E+02  0.49981195982E+03  0.50416552532E+03  0.41800000000E+01 0. -1.
         -5    1    3    3    0  502  0.16422354188E+02  0.50414235215E+02  0.99560737565E+03  0.99702698442E+03  0.41800000000E+01 0. -1.
        -11    1    1    2    0    0  0.32987526287E+02 -0.51185119465E+02  0.28656965202E+03  0.29296801669E+03  0.00000000000E+00 0. -1.
         11    1    1    2    0    0  0.53334057377E+01  0.37602690510E+02  0.13769824411E+03  0.14283981931E+03  0.00000000000E+00 0.  1.
</event>
<event>
 7    1  0.2855090E-009  0.9952312E+02  0.7561462E-02  0.1281302E+00
         -2   -1    0    0    0  501 -0.00000000000E+00  0.00000000000E+00  0.58450885633E+02  0.58450885633E+02  0.00000000000E+00 0.  1.
          2   -1    0    0  501    0  0.00000000000E+00 -0.00000000000E+00 -0.33618988968E+03  0.33618988968E+03  0.00000000000E+00 0. -1.
         25    2    1    2    0    0  0.39321680804E+02 -0.71640774422E+02 -0.15703575448E+03  0.21676162723E+03  0.12508708852E+03 0.  0.
          5    1    3    3  502    0  0.68251796431E+01 -0.31647558587E+02 -0.16159607576E+03  0.16486028977E+03  0.41800000000E+01 0.  1.
         -5    1    3    3    0  502  0.32496501160E+02 -0.39993215836E+02  0.45603212797E+01  0.51901337466E+02  0.41800000000E+01 0.  1.
        -11    1    1    2    0    0  0.17592469833E+01  0.73555205382E+02 -0.32252005500E+02  0.80334644130E+02  0.00000000000E+00 0.  1.
         11    1    1    2    0    0 -0.41080927787E+02 -0.19144309594E+01 -0.88451244069E+02  0.97544503952E+02  0.00000000000E+00 0. -1.
</event>
<event>
 7    1  0.2855090E-009  0.6441996E+02  0.7561462E-02  0.1380167E+00
          1   -1    0    0  501    0  0.00000000000E+00  0.00000000000E+00  0.11412378286E+03  0.11412378286E+03  0.00000000000E+00 0. -1.
         -1   -1    0    0    0  501 -0.00000000000E+00 -0.00000000000E+00 -0.10646515384E+03  0.10646515384E+03  0.00000000000E+00 0.  1.
         25    2    1    2    0    0  0.40629148573E+01  0.15556830295E+02 -0.75909916315E+00  0.12612413790E+03  0.12509276431E+03 0.  0.
          5    1    3    3  502    0  0.27416397003E+02  0.32856785596E+02 -0.51751410151E+02  0.67282301068E+02  0.41800000000E+01 0. -1.
         -5    1    3    3    0  502 -0.23353482146E+02 -0.17299955301E+02  0.50992310988E+02  0.58841836831E+02  0.41800000000E+01 0. -1.
        -11    1    1    2    0    0 -0.20789606385E+02  0.12177250686E+02 -0.33642283956E+02  0.41379903790E+02  0.00000000000E+00 0.  1.
         11    1    1    2    0    0  0.16726691528E+02 -0.27734080981E+02  0.42060012138E+02  0.53084895012E+02  0.00000000000E+00 0. -1.
</event>
<event>
 7    1  0.2855090E-009  0.1105097E+03  0.7561462E-02  0.1259629E+00
         -2   -1    0    0    0  501 -0.00000000000E+00  0.00000000000E+00  0.13626792356E+02  0.13626792356E+02  0.00000000000E+00 0.  1.
          2   -1    0    0  501    0  0.00000000000E+00 -0.00000000000E+00 -0.10698186739E+04  0.10698186739E+04  0.00000000000E+00 0. -1.
         25    2    1    2    0    0  0.26270508733E+02 -0.26945082914E+02 -0.72356291976E+03  0.73525985480E+03  0.12509027984E+03 0.  0.
          5    1    3    3  502    0 -0.43745947736E+02 -0.26058990725E+02 -0.44820622296E+03  0.45110871156E+03  0.41800000000E+01 0.  1.
         -5    1    3    3    0  502  0.70016456469E+02 -0.88609218868E+00 -0.27535669680E+03  0.28415114324E+03  0.41800000000E+01 0.  1.
        -11    1    1    2    0    0 -0.34709946052E+02  0.58004434815E+02 -0.18178296548E+03  0.19394417071E+03  0.00000000000E+00 0.  1.
         11    1    1    2    0    0  0.84394373187E+01 -0.31059351901E+02 -0.15084599632E+03  0.15424144076E+03  0.00000000000E+00 0. -1.
</event>
<event>
 7    1  0.2855090E-009  0.1004275E+03  0.7561462E-02  0.1279399E+00
         -1   -1    0    0    0  501 -0.00000000000E+00  0.00000000000E+00  0.38210189653E+02  0.38210189653E+02  0.00000000000E+00 0. -1.
          1   -1    0    0  501    0  0.00000000000E+00 -0.00000000000E+00 -0.45670708377E+03  0.45670708377E+03  0.00000000000E+00 0.  1.
         25    2    1    2    0    0  0.67666145537E+00 -0.69703788883E+02 -0.24114283281E+03  0.28045816997E+03  0.12509133956E+03 0.  0.
          5    1    3    3  502    0 -0.48400565711E+01 -0.91563331192E+02 -0.24061019349E+03  0.25752282885E+03  0.41800000000E+01 0.  1.
         -5    1    3    3    0  502  0.55167180264E+01  0.21859542309E+02 -0.53263931660E+00  0.22935341122E+02  0.41800000000E+01 0.  1.
        -11    1    1    2    0    0  0.24388794103E+02  0.43548541679E+02 -0.17041462912E+03  0.17757374405E+03  0.00000000000E+00 0.  1.
         11    1    1    2    0    0 -0.25065455559E+02  0.26155247204E+02 -0.69394321907E+01  0.36885359396E+02  0.00000000000E+00 0. -1.
</event>
<event>
 7    1  0.2855090E-009  0.9350943E+02  0.7561462E-02  0.1294569E+00
         -1   -1    0    0    0  501 -0.00000000000E+00  0.00000000000E+00  0.24471295490E+02  0.24471295490E+02  0.00000000000E+00 0.  1.
          1   -1    0    0  501    0  0.00000000000E+00 -0.00000000000E+00 -0.98590637626E+03  0.98590637626E+03  0.00000000000E+00 0. -1.
         25    2    1    2    0    0 -0.65650000477E+02 -0.39593013859E+02 -0.81777838293E+03  0.83083533500E+03  0.12509332910E+03 0.  0.
          5    1    3    3  502    0 -0.69236262757E+02 -0.40907521447E+02 -0.82057729548E+03  0.82451904504E+03  0.41800000000E+01 0. -1.
         -5    1    3    3    0  502  0.35862622805E+01  0.13145075881E+01  0.27989125457E+01  0.63162899539E+01  0.41800000000E+01 0. -1.
        -11    1    1    2    0    0  0.56684056358E+02  0.57538115542E+02 -0.13578801951E+03  0.15799399744E+03  0.00000000000E+00 0.  1.
         11    1    1    2    0    0  0.89659441182E+01 -0.17945101683E+02 -0.78686783332E+01  0.21548339311E+02  0.00000000000E+00 0. -1.
</event>
<event>
 7    1  0.2855090E-009  0.1191574E+03  0.7561462E-02  0.1244494E+00
          1   -1    0    0  501    0  0.00000000000E+00  0.00000000000E+00  0.23512621660E+03  0.23512621660E+03  0.00000000000E+00 0. -1.
         -1   -1    0    0    0  501 -0.00000000000E+00 -0.00000000000E+00 -0.86205752354E+02  0.86205752354E+02  0.00000000000E+00 0.  1.
         25    2    1    2    0    0 -0.10179371608E+02  0.73246204443E+02  0.14022689128E+03  0.20194053430E+03  0.12509105598E+03 0.  0.
          5    1    3    3  502    0  0.55666586853E+02  0.30981322878E+02  0.83955054038E+02  0.10547291007E+03  0.41800000000E+01 0.  1.
         -5    1    3    3    0  502 -0.65845958461E+02  0.42264881565E+02  0.56271837237E+02  0.96467624234E+02  0.41800000000E+01 0.  1.
        -11    1    1    2    0    0  0.35560994806E+02 -0.32876203384E+02 -0.30868517231E+02  0.57430779697E+02  0.00000000000E+00 0.  1.
         11    1    1    2    0    0 -0.25381623198E+02 -0.40370001059E+02  0.39562090202E+02  0.61960654958E+02  0.00000000000E+00 0. -1.
</event>
<event>
 7    1  0.2855090E-009  0.2622266E+03  0.7561462E-02  0.1105813E+00
         -1   -1    0    0    0  501 -0.00000000000E+00  0.00000000000E+00  0.77433178545E+02  0.77433178545E+02  0.00000000000E+00 0.  1.
          1   -1    0    0  501    0  0.00000000000E+00 -0.00000000000E+00 -0.98922019970E+03  0.98922019970E+03  0.00000000000E+00 0. -1.
         25    2    1    2    0    0 -0.30542259208E+00 -0.25271488363E+03 -0.38166152775E+03  0.47452848787E+03  0.12508740282E+03 0.  0.
          5    1    3    3  502    0 -0.31919047915E+02 -0.11048229126E+03 -0.82023705775E+02  0.14131710092E+03  0.41800000000E+01 0.  1.
         -5    1    3    3    0  502  0.31613625323E+02 -0.14223259237E+03 -0.29963782198E+03  0.33321138696E+03  0.41800000000E+01 0.  1.
        -11    1    1    2    0    0  0.17780189670E+02  0.10257616570E+02 -0.47178153995E+02  0.51450287237E+02  0.00000000000E+00 0. -1.
         11    1    1    2    0    0 -0.17474767078E+02  0.24245726706E+03 -0.48294733940E+03  0.54067460313E+03  0.00000000000E+00 0.  1.
</event>
<event>
 7    1  0.2855090E-009  0.2204589E+03  0.7561462E-02  0.1133541E+00
         -2   -1    0    0    0  501 -0.00000000000E+00  0.00000000000E+00  0.45133112094E+03  0.45133112094E+03  0.00000000000E+00 0.  1.
          2   -1    0    0  501    0  0.00000000000E+00 -0.00000000000E+00 -0.12587077830E+03  0.12587077830E+03  0.00000000000E+00 0. -1.
         25    2    1    2    0    0  0.28673114345E+02  0.19627752170E+03  0.25146577231E+03  0.34384790151E+03  0.12509728900E+03 0.  0.
          5    1    3    3  502    0 -0.65300647134E+01  0.19821932540E+03  0.22193726621E+03  0.29766955713E+03  0.41800000000E+01 0.  1.
         -5    1    3    3    0  502  0.35203179058E+02 -0.19418036924E+01  0.29528506099E+02  0.46178344382E+02  0.41800000000E+01 0.  1.
        -11    1    1    2    0    0 -0.24788648180E+00 -0.16413317927E+03  0.90439591124E+02  0.18740085813E+03  0.00000000000E+00 0.  1.
         11    1    1    2    0    0 -0.28425227863E+02 -0.32144342430E+02 -0.16445020794E+02  0.45953139591E+02  0.00000000000E+00 0. -1.
</event>
<event>
 7    1  0.2855090E-009  0.8238866E+02  0.7561462E-02  0.1322406E+00
          2   -1    0    0  501    0  0.00000000000E+00  0.00000000000E+00  0.74751591092E+03  0.74751591092E+03  0.00000000000E+00 0. -1.
         -2   -1    0    0    0  501 -0.00000000000E+00 -0.00000000000E+00 -0.23432112540E+02  0.23432112540E+02  0.00000000000E+00 0.  1.
         25    2    1    2    0    0  0.85248482376E+01 -0.63458387239E+02  0.51811010400E+03  0.53682828868E+03  0.12508753618E+03 0.  0.
          5    1    3    3  502    0  0.21711075176E+02 -0.40694418591E+02  0.50733714559E+02  0.68693439881E+02  0.41800000000E+01 0. -1.
         -5    1    3    3    0  502 -0.13186226939E+02 -0.22763968648E+02  0.46737638944E+03  0.46813484880E+03  0.41800000000E+01 0. -1.
        -11    1    1    2    0    0 -0.37385623023E+02  0.32995349022E+02  0.43042461670E+02  0.65871324357E+02  0.00000000000E+00 0.  1.
         11    1    1    2    0    0  0.28860774785E+02  0.30463038217E+02  0.16293123271E+03  0.16824841043E+03  0.00000000000E+00 0. -1.
</event>
<event>
 7    1  0.2855090E-009  0.1475182E+03  0.7561462E-02  0.1203556E+00
          2   -1    0    0  501    0  0.00000000000E+00  0.00000000000E+00  0.64455819212E+03  0.64455819212E+03  0.00000000000E+00 0. -1.
         -2   -1    0    0    0  501 -0.00000000000E+00 -0.00000000000E+00 -0.42371470713E+02  0.42371470713E+02  0.00000000000E+00 0.  1.
         25    2    1    2    0    0 -0.74323709348E+02  0.81458616509E+02  0.42722344754E+03  0.45861399328E+03  0.12508957083E+03 0.  0.
          5    1    3    3  502    0 -0.90951301932E+02  0.98836558509E+02  0.29513125547E+03  0.32428495953E+03  0.41800000000E+01 0.  1.
         -5    1    3    3    0  502  0.16627592584E+02 -0.17377942000E+02  0.13209219207E+03  0.13432903375E+03  0.41800000000E+01 0.  1.
        -11    1    1    2    0    0 -0.79159075077E+01 -0.46015218337E+02  0.23287931265E+02  0.52176523963E+02  0.00000000000E+00 0.  1.
         11    1    1    2    0    0  0.82239616856E+02 -0.35443398172E+02  0.15167534260E+03  0.17613914558E+03  0.00000000000E+00 0. -1.
</event>
<event>
 6    1  0.2855090E-009  0.1386797E+03  0.7561462E-02  0.1215117E+00
          2   -1    0    0  501    0  0.00000000000E+00  0.00000000000E+00  0.12369017641E+03  0.12369017641E+03  0.00000000000E+00 0. -1.
         -2   -1    0    0    0  501 -0.00000000000E+00 -0.00000000000E+00 -0.23150679252E+03  0.23150679252E+03  0.00000000000E+00 0.  1.
          5    1    1    2  502    0  0.60918172937E+02 -0.95823596379E+02  0.43623166458E+02  0.12171129146E+03  0.41800000000E+01 0. -1.
         -5    1    1    2    0  502 -0.36111838427E+02 -0.61499707464E+01 -0.22002245714E+02  0.42935512472E+02  0.41800000000E+01 0. -1.
        -11    1    1    2    0    0 -0.44284180766E+02  0.97196916955E+02 -0.69709474301E+02  0.12754505141E+03  0.00000000000E+00 0. -1.
         11    1    1    2    0    0  0.19477846256E+02  0.47766501701E+01 -0.59728062554E+02  0.63005113587E+02  0.00000000000E+00 0.  1.
</event>
<event>
 7    1  0.2855090E-009  0.9214042E+02  0.7561462E-02  0.1297750E+00
          1   -1    0    0  501    0  0.00000000000E+00  0.00000000000E+00  0.23052690153E+03  0.23052690153E+03  0.00000000000E+00 0. -1.
         -1   -1    0    0    0  501 -0.00000000000E+00 -0.00000000000E+00 -0.68657305132E+02  0.68657305132E+02  0.00000000000E+00 0.  1.
         25    2    1    2    0    0 -0.32615120945E+02 -0.59711832424E+02  0.10896233535E+03  0.17930087490E+03  0.12508702638E+03 0.  0.
          5    1    3    3  502    0 -0.34491094717E+02 -0.22976030101E+02 -0.19224173566E+02  0.45875645208E+02  0.41800000000E+01 0. -1.
         -5    1    3    3    0  502  0.18759737727E+01 -0.36735802323E+02  0.12818650891E+03  0.13342522969E+03  0.41800000000E+01 0. -1.
        -11    1    1    2    0    0  0.43803474031E+02 -0.10575755938E+01  0.10856040755E+02  0.45141072475E+02  0.00000000000E+00 0.  1.
         11    1    1    2    0    0 -0.11188353086E+02  0.60769408017E+02  0.42051220294E+02  0.74742259290E+02  0.00000000000E+00 0. -1.
</event>
<event>
 7    1  0.2855090E-009  0.1604202E+03  0.7561462E-02  0.1188223E+00
         -2   -1    0    0    0  501 -0.00000000000E+00  0.00000000000E+00  0.27038222552E+02  0.27038222552E+02  0.00000000000E+00 0.  1.
          2   -1    0    0  501    0  0.00000000000E+00 -0.00000000000E+00 -0.12173373166E+04  0.12173373166E+04  0.00000000000E+00 0. -1.
         25    2    1    2    0    0  0.13107777986E+03  0.62433106783E+02 -0.60887349409E+03  0.63832033569E+03  0.12508653785E+03 0.  0.
          5    1    3    3  502    0  0.92498208629E+02  0.23290271841E+02 -0.16185968890E+03  0.18792122459E+03  0.41800000000E+01 0. -1.
         -5    1    3    3    0  502  0.38579571227E+02  0.39142834942E+02 -0.44701380519E+03  0.45039911109E+03  0.41800000000E+01 0. -1.
        -11    1    1    2    0    0 -0.30151624292E+02 -0.62418274383E+02 -0.20895047352E+03  0.22014872657E+03  0.00000000000E+00 0.  1.
         11    1    1    2    0    0 -0.10092615556E+03 -0.14832399834E-01 -0.37247512640E+03  0.38590647686E+03  0.00000000000E+00 0. -1.
</event>
<event>
 7    1  0.2855090E-009  0.2112324E+03  0.7561462E-02  0.1140594E+00
         -1   -1    0    0    0  501 -0.00000000000E+00  0.00000000000E+00  0.88219048102E+02  0.88219048102E+02  0.00000000000E+00 0.  1.
          1   -1    0    0  501    0  0.00000000000E+00 -0.00000000000E+00 -0.51241678353E+03  0.51241678353E+03  0.00000000000E+00 0. -1.
         25    2    1    2    0    0  0.17493824683E+03 -0.47295897392E+02 -0.18715360133E+03  0.28898915443E+03  0.12509184135E+03 0.  0.
          5    1    3    3  502    0  0.39052615194E+02 -0.71961387464E+02 -0.66747133873E+02  0.10571754972E+03  0.41800000000E+01 0.  1.
         -5    1    3    3    0  502  0.13588563163E+03  0.24665490072E+02 -0.12040646746E+03  0.18327160470E+03  0.41800000000E+01 0.  1.
        -11    1    1    2    0    0 -0.99902918596E+02 -0.19577574387E+02 -0.11796136479E+03  0.15581642451E+03  0.00000000000E+00 0. -1.
         11    1    1    2    0    0 -0.75035328230E+02  0.66873471780E+02 -0.11908276930E+03  0.15583025269E+03  0.00000000000E+00 0.  1.
</event>
<event>
 7    1  0.2855090E-009  0.1469518E+03  0.7561462E-02  0.1204269E+00
         -2   -1    0    0    0  501 -0.00000000000E+00  0.00000000000E+00  0.42045738080E+03  0.42045738080E+03  0.00000000000E+00 0.  1.
          2   -1    0    0  501    0  0.00000000000E+00 -0.00000000000E+00 -0.62130407575E+02  0.62130407575E+02  0.00000000000E+00 0. -1.
         25    2    1    2    0    0  0.56972627863E+02  0.10546365989E+03  0.19414135307E+03  0.26020847365E+03  0.12509644641E+03 0.  0.
          5    1    3    3  502    0 -0.35640767987E+02  0.31697215159E+02  0.25892723204E+02  0.54432373699E+02  0.41800000000E+01 0.  1.
         -5    1    3    3    0  502  0.92613395850E+02  0.73766444735E+02  0.16824862987E+03  0.20577609995E+03  0.41800000000E+01 0.  1.
        -11    1    1    2    0    0 -0.48661942337E+02 -0.44244559249E+02  0.14242713053E+03  0.15687910366E+03  0.00000000000E+00 0.  1.
         11    1    1    2    0    0 -0.83106855264E+01 -0.61219100646E+02  0.21758489620E+02  0.65500211056E+02  0.00000000000E+00 0. -1.
</event>
<event>
 7    1  0.2855090E-009  0.1290979E+03  0.7561462E-02  0.1228800E+00
         -2   -1    0    0    0  501 -0.00000000000E+00  0.00000000000E+00  0.18040828524E+02  0.18040828524E+02  0.00000000000E+00 0.  1.
          2   -1    0    0  501    0  0.00000000000E+00 -0.00000000000E+00 -0.10809764578E+04  0.10809764578E+04  0.00000000000E+00 0. -1.
         25    2    1    2    0    0 -0.81342140519E+01  0.74220120157E+02 -0.78826125451E+03  0.80160898273E+03  0.12508542743E+03 0.  0.
          5    1    3    3  502    0  0.46620088750E+02 -0.57970875643E+01 -0.31374891566E+03  0.31727416122E+03  0.41800000000E+01 0. -1.
         -5    1    3    3    0  502 -0.54754302802E+02  0.80017207721E+02 -0.47451233885E+03  0.48433482151E+03  0.41800000000E+01 0. -1.
        -11    1    1    2    0    0  0.45986690573E+02 -0.26507720478E+02 -0.13269411754E+03  0.14291663228E+03  0.00000000000E+00 0. -1.
         11    1    1    2    0    0 -0.37852476521E+02 -0.47712399679E+02 -0.14198025727E+03  0.15449167135E+03  0.00000000000E+00 0.  1.
</event>
<event>
 7    1  0.3468700E-009  0.5721735E+02  0.7561462E-02  0.1409895E+00
          2   -1    0    0  501    0  0.00000000000E+00  0.00000000000E+00  0.19580107813E+03  0.19580107813E+03  0.00000000000E+00 0.  1.
         -2   -1    0    0    0  501 -0.00000000000E+00 -0.00000000000E+00 -0.71994917433E+02  0.71994917433E+02  0.00000000000E+00 0. -1.
         25    2    1    2    0    0  0.34326971049E+02 -0.32221723506E+01  0.10748908973E+03  0.16850832134E+03  0.12510965836E+03 0.  0.
          5    1    3    3  502    0 -0.20388930306E+02  0.86501862822E+01 -0.19409248958E+02  0.29744336383E+02  0.41800000000E+01 0.  1.
         -5    1    3    3    0  502  0.54715901355E+02 -0.11872358633E+02  0.12689833868E+03  0.13876398496E+03  0.41800000000E+01 0.  1.
        -11    1    1    2    0    0 -0.21835936175E+02  0.65990371111E+01  0.54441430471E+02  0.59027322074E+02  0.00000000000E+00 0.  1.
         11    1    1    2    0    0 -0.12491034874E+02 -0.33768647604E+01 -0.38124359500E+02  0.40260352149E+02  0.00000000000E+00 0. -1.
</event>
<event>
 7    1  0.2855090E-009  0.1095374E+03  0.7561462E-02  0.1261429E+00
          2   -1    0    0  501    0  0.00000000000E+00  0.00000000000E+00  0.22421973707E+03  0.22421973707E+03  0.00000000000E+00 0.  1.
         -2   -1    0    0    0  501 -0.00000000000E+00 -0.00000000000E+00 -0.84386683850E+02  0.84386683850E+02  0.00000000000E+00 0. -1.
         25    2    1    2    0    0 -0.77094161859E+02  0.55171783282E+01  0.35654453356E+02  0.15130283284E+03  0.12508940056E+03 0.  0.
          5    1    3    3  502    0 -0.61318205884E+02  0.57792111100E+02 -0.27605463301E+01  0.84409380369E+02  0.41800000000E+01 0.  1.
         -5    1    3    3    0  502 -0.15775955976E+02 -0.52274932772E+02  0.38414999686E+02  0.66893452476E+02  0.41800000000E+01 0.  1.
        -11    1    1    2    0    0  0.49573284346E+02  0.63470722066E+01  0.11503964045E+03  0.12542692981E+03  0.00000000000E+00 0.  1.
         11    1    1    2    0    0  0.27520877513E+02 -0.11864250535E+02 -0.10861040583E+02  0.31876658269E+02  0.00000000000E+00 0. -1.
</event>
<event>
 7    1  0.2855090E-009  0.9190889E+02  0.7561462E-02  0.1298294E+00
         -1   -1    0    0    0  501 -0.00000000000E+00  0.00000000000E+00  0.68289404594E+02  0.68289404594E+02  0.00000000000E+00 0.  1.
          1   -1    0    0  501    0  0.00000000000E+00 -0.00000000000E+00 -0.21548582949E+03  0.21548582949E+03  0.00000000000E+00 0. -1.
         25    2    1    2    0    0  0.17927435997E+02  0.16172850718E+01 -0.24326372959E+02  0.12870612246E+03  0.12509790153E+03 0.  0.
          5    1    3    3  502    0 -0.41088097095E+02  0.23738182791E+02 -0.41577711034E+02  0.63229040005E+02  0.41800000000E+01 0.  1.
         -5    1    3    3    0  502  0.59015533092E+02 -0.22120897720E+02  0.17251338075E+02  0.65477082460E+02  0.41800000000E+01 0.  1.
        -11    1    1    2    0    0  0.21638350667E+02  0.18647240313E+02 -0.48743523802E+01  0.28977527534E+02  0.00000000000E+00 0.  1.
         11    1    1    2    0    0 -0.39565786663E+02 -0.20264525385E+02 -0.11799569956E+03  0.12609158409E+03  0.00000000000E+00 0. -1.
</event>
<event>
 7    1  0.2855090E-009  0.9650382E+02  0.7561462E-02  0.1287825E+00
          1   -1    0    0  501    0  0.00000000000E+00  0.00000000000E+00  0.33097442700E+02  0.33097442700E+02  0.00000000000E+00 0. -1.
         -1   -1    0    0    0  501 -0.00000000000E+00 -0.00000000000E+00 -0.54582343237E+03  0.54582343237E+03  0.00000000000E+00 0.  1.
         25    2    1    2    0    0  0.41334711648E+02  0.59769820616E+02 -0.34793179666E+03  0.37680806171E+03  0.12508713125E+03 0.  0.
          5    1    3    3  502    0  0.23205179891E+02  0.49511709274E+02 -0.39351936821E+02  0.67497681890E+02  0.41800000000E+01 0.  1.
         -5    1    3    3    0  502  0.18129531757E+02  0.10258111342E+02 -0.30857985984E+03  0.30931037982E+03  0.41800000000E+01 0.  1.
        -11    1    1    2    0    0  0.71113860125E+01 -0.67491292844E+02 -0.91668873203E+02  0.11405625250E+03  0.00000000000E+00 0. -1.
         11    1    1    2    0    0 -0.48446097661E+02  0.77214722283E+01 -0.73125319812E+02  0.88056560854E+02  0.00000000000E+00 0.  1.
</event>
<event>
 7    1  0.2855090E-009  0.2131140E+03  0.7561462E-02  0.1139124E+00
          2   -1    0    0  501    0  0.00000000000E+00  0.00000000000E+00  0.11893393748E+04  0.11893393748E+04  0.00000000000E+00 0.  1.
         -2   -1    0    0    0  501 -0.00000000000E+00 -0.00000000000E+00 -0.50390120965E+02  0.50390120965E+02  0.00000000000E+00 0. -1.
         25    2    1    2    0    0 -0.20455457164E+02 -0.20561530325E+03  0.40411915052E+03  0.47080345810E+03  0.12509008627E+03 0.  0.
          5    1    3    3  502    0 -0.41876844030E+02 -0.18177513518E+03  0.24244248099E+03  0.30592760390E+03  0.41800000000E+01 0.  1.
         -5    1    3    3    0  502  0.21421386866E+02 -0.23840168066E+02  0.16167666953E+03  0.16487585420E+03  0.41800000000E+01 0.  1.
        -11    1    1    2    0    0  0.22977747685E+02  0.16043838796E+03  0.67340571054E+03  0.69263533277E+03  0.00000000000E+00 0.  1.
         11    1    1    2    0    0 -0.25222905212E+01  0.45176915285E+02  0.61424392753E+02  0.76290704868E+02  0.00000000000E+00 0. -1.
</event>
<event>
 7    1  0.2855090E-009  0.9895908E+02  0.7561462E-02  0.1282500E+00
          1   -1    0    0  501    0  0.00000000000E+00  0.00000000000E+00  0.46846830328E+03  0.46846830328E+03  0.00000000000E+00 0. -1.
         -1   -1    0    0    0  501 -0.00000000000E+00 -0.00000000000E+00 -0.37835562084E+02  0.37835562084E+02  0.00000000000E+00 0.  1.
         25    2    1    2    0    0 -0.45738667984E+01  0.81357276563E+02  0.22925253101E+03  0.27357698138E+03  0.12509082724E+03 0.  0.
          5    1    3    3  502    0  0.11482718227E+02  0.32867506983E+02  0.21839180454E+03  0.22118901085E+03  0.41800000000E+01 0. -1.
         -5    1    3    3    0  502 -0.16056585025E+02  0.48489769580E+02  0.10860726478E+02  0.52387970530E+02  0.41800000000E+01 0. -1.
        -11    1    1    2    0    0  0.70341109499E+01 -0.96250731487E+02  0.19217494166E+03  0.21504625137E+03  0.00000000000E+00 0. -1.
         11    1    1    2    0    0 -0.24602441515E+01  0.14893454924E+02  0.92052685262E+01  0.17680632610E+02  0.00000000000E+00 0.  1.
</event>
<event>
 7    1  0.2855090E-009  0.1090220E+03  0.7561462E-02  0.1262392E+00
          1   -1    0    0  501    0  0.00000000000E+00  0.00000000000E+00  0.73016510516E+03  0.73016510516E+03  0.00000000000E+00 0. -1.
         -1   -1    0    0    0  501 -0.00000000000E+00 -0.00000000000E+00 -0.18649883618E+02  0.18649883618E+02  0.00000000000E+00 0.  1.
         25    2    1    2    0    0  0.34978379287E+02  0.24321877914E+02  0.37975876797E+03  0.40209358866E+03  0.12508993339E+03 0.  0.
          5    1    3    3  502    0 -0.83796568455E+01  0.60687974083E+02  0.10587842713E+03  0.12239674251E+03  0.41800000000E+01 0.  1.
         -5    1    3    3    0  502  0.43358036133E+02 -0.36366096169E+02  0.27388034084E+03  0.27969684615E+03  0.41800000000E+01 0.  1.
        -11    1    1    2    0    0 -0.64110208745E+02 -0.37291429778E+01  0.23426340244E+03  0.24290608699E+03  0.00000000000E+00 0.  1.
         11    1    1    2    0    0  0.29131829458E+02 -0.20592734936E+02  0.97493051130E+02  0.10381531312E+03  0.00000000000E+00 0. -1.
</event>
<event>
 7    1  0.2855090E-009  0.9924220E+02  0.7561462E-02  0.1281898E+00
         -1   -1    0    0    0  501 -0.00000000000E+00  0.00000000000E+00  0.59757873291E+02  0.59757873291E+02  0.00000000000E+00 0.  1.
          1   -1    0    0  501    0  0.00000000000E+00 -0.00000000000E+00 -0.20992911070E+03  0.20992911070E+03  0.00000000000E+00 0. -1.
         25    2    1    2    0    0 -0.71532759830E+01  0.25609861966E+02 -0.67585869155E+02  0.14464920808E+03  0.12509400186E+03 0.  0.
          5    1    3    3  502    0 -0.80263427319E+01  0.71062928283E+02 -0.68317007941E+02  0.98990140559E+02  0.41800000000E+01 0. -1.
         -5    1    3    3    0  502  0.87306674892E+00 -0.45453066317E+02  0.73113878558E+00  0.45659067523E+02  0.41800000000E+01 0. -1.
        -11    1    1    2    0    0  0.31837961708E+02 -0.41147549043E+02 -0.80430489576E+02  0.95790606279E+02  0.00000000000E+00 0. -1.
         11    1    1    2    0    0 -0.24684685725E+02  0.15537687077E+02 -0.21548786738E+01  0.29247169626E+02  0.00000000000E+00 0.  1.
</event>
<event>
 7    1  0.2855090E-009  0.1819367E+03  0.7561462E-02  0.1165942E+00
         -1   -1    0    0    0  501 -0.00000000000E+00  0.00000000000E+00  0.25043674835E+03  0.25043674835E+03  0.00000000000E+00 0.  1.
          1   -1    0    0  501    0  0.00000000000E+00 -0.00000000000E+00 -0.15335802122E+03  0.15335802122E+03  0.00000000000E+00 0. -1.
         25    2    1    2    0    0 -0.34907063523E+02  0.15530842973E+03  0.85525855489E+02  0.21977442518E+03  0.12508762759E+03 0.  0.
          5    1    3    3  502    0  0.41818800173E+02  0.58616143799E+02  0.49227997451E+01  0.72293642314E+02  0.41800000000E+01 0.  1.
         -5    1    3    3    0  502 -0.76725863695E+02  0.96692285936E+02  0.80603055744E+02  0.14748078287E+03  0.41800000000E+01 0.  1.
        -11    1    1    2    0    0 -0.13732708120E+02 -0.56028875992E+02  0.39590748608E+02  0.69966060290E+02  0.00000000000E+00 0.  1.
         11    1    1    2    0    0  0.48639771643E+02 -0.99279553743E+02 -0.28037876970E+02  0.11405428410E+03  0.00000000000E+00 0. -1.
</event>
<event>
 7    1  0.2855090E-009  0.7848343E+02  0.7561462E-02  0.1333411E+00
          2   -1    0    0  501    0  0.00000000000E+00  0.00000000000E+00  0.83895779408E+03  0.83895779408E+03  0.00000000000E+00 0.  1.
         -2   -1    0    0    0  501 -0.00000000000E+00 -0.00000000000E+00 -0.18017126263E+02  0.18017126263E+02  0.00000000000E+00 0. -1.
         25    2    1    2    0    0  0.20141355923E+02 -0.86662299529E+00  0.65440115574E+03  0.66655368632E+03  0.12508604581E+03 0.  0.
          5    1    3    3  502    0 -0.32812430412E+02 -0.11127110506E+02  0.57901175794E+02  0.67605375053E+02  0.41800000000E+01 0. -1.
         -5    1    3    3    0  502  0.52953786335E+02  0.10260487510E+02  0.59649997995E+03  0.59894831127E+03  0.41800000000E+01 0. -1.
        -11    1    1    2    0    0 -0.41117893489E+02  0.13743398757E+02  0.15881186011E+03  0.16462311224E+03  0.00000000000E+00 0. -1.
         11    1    1    2    0    0  0.20976537566E+02 -0.12876775762E+02  0.77276519653E+01  0.25798121777E+02  0.00000000000E+00 0.  1.
</event>
<event>
 7    1  0.2855090E-009  0.9877868E+02  0.7561462E-02  0.1282885E+00
         -2   -1    0    0    0  501 -0.00000000000E+00  0.00000000000E+00  0.33515056239E+02  0.33515056239E+02  0.00000000000E+00 0.  1.
          2   -1    0    0  501    0  0.00000000000E+00 -0.00000000000E+00 -0.46296809451E+03  0.46296809451E+03  0.00000000000E+00 0. -1.
         25    2    1    2    0    0 -0.37691475636E+01  0.31903990712E+02 -0.34347184379E+03  0.36695059193E+03  0.12509100026E+03 0.  0.
          5    1    3    3  502    0 -0.53329614421E+02 -0.13688245103E+02 -0.99203166119E+02  0.11353482460E+03  0.41800000000E+01 0. -1.
         -5    1    3    3    0  502  0.49560466857E+02  0.45592235815E+02 -0.24426867768E+03  0.25341576734E+03  0.41800000000E+01 0. -1.
        -11    1    1    2    0    0 -0.19559121509E+02  0.13539328491E+02 -0.73070204828E+02  0.76844827307E+02  0.00000000000E+00 0. -1.
         11    1    1    2    0    0  0.23328269073E+02 -0.45443319203E+02 -0.12910989653E+02  0.52687731512E+02  0.00000000000E+00 0.  1.
</event>
<event>
 6    1  0.2855090E-009  0.1102467E+03  0.7561462E-02  0.1260114E+00
         -1   -1    0    0    0  501 -0.00000000000E+00  0.00000000000E+00  0.18659841637E+02  0.18659841637E+02  0.00000000000E+00 0.  1.
          1   -1    0    0  501    0  0.00000000000E+00 -0.00000000000E+00 -0.10937123173E+04  0.10937123173E+04  0.00000000000E+00 0. -1.
          5    1    1    2  502    0  0.13829900800E+02 -0.20202955021E+02 -0.48590055514E+03  0.48653493958E+03  0.41800000000E+01 0.  1.
         -5    1    1    2    0  502  0.28708346287E+02 -0.61952063914E+02 -0.11143486252E+03  0.13075713500E+03  0.41800000000E+01 0.  1.
        -11    1    1    2    0    0 -0.69602140079E+02  0.64798708161E+02 -0.30807703889E+03  0.32242021087E+03  0.00000000000E+00 0.  1.
         11    1    1    2    0    0  0.27063892991E+02  0.17356310774E+02 -0.16964001910E+03  0.17265987347E+03  0.00000000000E+00 0. -1.
</event>
<event>
 7    1  0.2855090E-009  0.1580246E+03  0.7561462E-02  0.1190945E+00
          1   -1    0    0  501    0  0.00000000000E+00  0.00000000000E+00  0.70891176844E+02  0.70891176844E+02  0.00000000000E+00 0. -1.
         -1   -1    0    0    0  501 -0.00000000000E+00 -0.00000000000E+00 -0.45349709100E+03  0.45349709100E+03  0.00000000000E+00 0.  1.
         25    2    1    2    0    0  0.95316088105E+02 -0.93357899955E+02 -0.27474681134E+03  0.33005112514E+03  0.12508829174E+03 0.  0.
          5    1    3    3  502    0 -0.92343126370E+01  0.73390154961E+01 -0.10888168456E+03  0.10959848225E+03  0.41800000000E+01 0. -1.
         -5    1    3    3    0  502  0.10455040074E+03 -0.10069691545E+03 -0.16586512678E+03  0.22045264289E+03  0.41800000000E+01 0. -1.
        -11    1    1    2    0    0 -0.25238717789E+01  0.59481337819E+02 -0.60170510596E+02  0.84645672203E+02  0.00000000000E+00 0.  1.
         11    1    1    2    0    0 -0.92792216326E+02  0.33876562136E+02 -0.47688592221E+02  0.10969147050E+03  0.00000000000E+00 0. -1.
</event>
<event>
 7    1  0.2855090E-009  0.1121348E+03  0.7561462E-02  0.1256667E+00
         -3   -1    0    0    0  501 -0.00000000000E+00  0.00000000000E+00  0.15022596034E+02  0.15022596034E+02  0.00000000000E+00 0.  1.
          3   -1    0    0  501    0  0.00000000000E+00 -0.00000000000E+00 -0.10343486956E+04  0.10343486956E+04  0.00000000000E+00 0. -1.
         25    2    1    2    0    0  0.51955272066E+02 -0.11753850230E+02 -0.70193190173E+03  0.71497867130E+03  0.12509437416E+03 0.  0.
          5    1    3    3  502    0  0.86250237717E+02 -0.25871194014E+02 -0.36416273891E+03  0.37515382845E+03  0.41800000000E+01 0.  1.
         -5    1    3    3    0  502 -0.34294965651E+02  0.14117343784E+02 -0.33776916282E+03  0.33982484285E+03  0.41800000000E+01 0.  1.
        -11    1    1    2    0    0 -0.73779987785E+02  0.49607465223E+01 -0.28693783851E+03  0.29631304185E+03  0.00000000000E+00 0. -1.
         11    1    1    2    0    0  0.21824715719E+02  0.67931037080E+01 -0.30456359311E+02  0.38079578473E+02  0.00000000000E+00 0.  1.
</event>
<event>
 7    1  0.2855090E-009  0.1252485E+03  0.7561462E-02  0.1234681E+00
         -1   -1    0    0    0  501 -0.00000000000E+00  0.00000000000E+00  0.52517287562E+03  0.52517287562E+03  0.00000000000E+00 0.  1.
          1   -1    0    0  501    0  0.00000000000E+00 -0.00000000000E+00 -0.35473944399E+02  0.35473944399E+02  0.00000000000E+00 0. -1.
         25    2    1    2    0    0  0.66836291595E+02 -0.14239821116E+02  0.17459660910E+03  0.22538292999E+03  0.12507448518E+03 0.  0.
          5    1    3    3  502    0  0.98642383807E+02 -0.29328661350E+02  0.15105751857E+03  0.18282870829E+03  0.41800000000E+01 0. -1.
         -5    1    3    3    0  502 -0.31806092212E+02  0.15088840234E+02  0.23539090536E+02  0.42554221702E+02  0.41800000000E+01 0. -1.
        -11    1    1    2    0    0 -0.56654467098E+02  0.49572558789E+02  0.24193461178E+03  0.25337624909E+03  0.00000000000E+00 0.  1.
         11    1    1    2    0    0 -0.10181824498E+02 -0.35332737673E+02  0.73167710330E+02  0.81887640927E+02  0.00000000000E+00 0. -1.
</event>
<event>
 7    1  0.2855090E-009  0.1408341E+03  0.7561462E-02  0.1212211E+00
         -1   -1    0    0    0  501 -0.00000000000E+00  0.00000000000E+00  0.37619736900E+02  0.37619736900E+02  0.00000000000E+00 0.  1.
          1   -1    0    0  501    0  0.00000000000E+00 -0.00000000000E+00 -0.83564244569E+03  0.83564244569E+03  0.00000000000E+00 0. -1.
         25    2    1    2    0    0 -0.11825466233E+03  0.63374662479E+02 -0.51264653758E+03  0.54447628990E+03  0.12508974687E+03 0.  0.
          5    1    3    3  502    0  0.63025283873E+01  0.15311768684E-01  0.44759010289E+01  0.87879570176E+01  0.41800000000E+01 0.  1.
         -5    1    3    3    0  502 -0.12455719072E+03  0.63359350710E+02 -0.51712243860E+03  0.53568833289E+03  0.41800000000E+01 0.  1.
        -11    1    1    2    0    0  0.47629460665E+02 -0.28841478912E+02 -0.33627616108E+02  0.65047774705E+02  0.00000000000E+00 0.  1.
         11    1    1    2    0    0  0.70625201669E+02 -0.34533183567E+02 -0.25174855511E+03  0.26373811798E+03  0.00000000000E+00 0. -1.
</event>
<event>
 7    1  0.2855090E-009  0.9529817E+02  0.7561462E-02  0.1290506E+00
          1   -1    0    0  501    0  0.00000000000E+00  0.00000000000E+00  0.57725794073E+03  0.57725794073E+03  0.00000000000E+00 0. -1.
         -1   -1    0    0    0  501 -0.00000000000E+00 -0.00000000000E+00 -0.30257448085E+02  0.30257448085E+02  0.00000000000E+00 0.  1.
         25    2    1    2    0    0  0.40584651716E+02 -0.55253345268E+02  0.38311781736E+03  0.40881131082E+03  0.12508948697E+03 0.  0.
          5    1    3    3  502    0  0.19696787202E+02  0.23775599900E+01  0.32030004565E+03  0.32094112834E+03  0.41800000000E+01 0. -1.
         -5    1    3    3    0  502  0.20887864514E+02 -0.57630905258E+02  0.62817771710E+02  0.87870182471E+02  0.41800000000E+01 0. -1.
        -11    1    1    2    0    0 -0.42071434622E+02  0.76646783501E+02  0.14844372428E+03  0.17227963986E+03  0.00000000000E+00 0.  1.
         11    1    1    2    0    0  0.14867829064E+01 -0.21393438234E+02  0.15438950997E+02  0.26424438135E+02  0.00000000000E+00 0. -1.
</event>
<event>
 7    1  0.2855090E-009  0.9775307E+02  0.7561462E-02  0.1285093E+00
          2   -1    0    0  501    0  0.00000000000E+00  0.00000000000E+00  0.11050410976E+03  0.11050410976E+03  0.00000000000E+00 0. -1.
         -2   -1    0    0    0  501 -0.00000000000E+00 -0.00000000000E+00 -0.11868903092E+03  0.11868903092E+03  0.00000000000E+00 0.  1.
         25    2    1    2    0    0 -0.33405249808E+02 -0.17106031238E+02 -0.22818767979E+02  0.13258297809E+03  0.12509605465E+03 0.  0.
          5    1    3    3  502    0  0.16697448647E+02 -0.55413142145E+02 -0.35628864033E+02  0.68090450623E+02  0.41800000000E+01 0.  1.
         -5    1    3    3    0  502 -0.50102698455E+02  0.38307110907E+02  0.12810096053E+02  0.64492527470E+02  0.41800000000E+01 0.  1.
        -11    1    1    2    0    0 -0.17423119288E+02 -0.60170616886E+01 -0.22847846019E+02  0.29356331256E+02  0.00000000000E+00 0.  1.
         11    1    1    2    0    0  0.50828369096E+02  0.23123092926E+02  0.37481692829E+02  0.67253831331E+02  0.00000000000E+00 0. -1.
</event>
<event>
 7    1  0.3575517E-009  0.8918413E+02  0.7561462E-02  0.1304840E+00
          2   -1    0    0  501    0  0.00000000000E+00  0.00000000000E+00  0.24772303209E+03  0.24772303209E+03  0.00000000000E+00 0. -1.
         -2   -1    0    0    0  501 -0.00000000000E+00 -0.00000000000E+00 -0.72848169620E+02  0.72848169620E+02  0.00000000000E+00 0.  1.
         25    2    1    2    0    0 -0.37353333272E+01 -0.24648165685E+02  0.18550765338E+03  0.22512770607E+03  0.12509160558E+03 0.  0.
          5    1    3    3  502    0 -0.34440230233E+02 -0.66628104739E+02  0.11638637475E+03  0.13852326313E+03  0.41800000000E+01 0. -1.
         -5    1    3    3    0  502  0.30704896905E+02  0.41979939054E+02  0.69121278636E+02  0.86604442941E+02  0.41800000000E+01 0. -1.
        -11    1    1    2    0    0 -0.15901515507E+02 -0.39452500448E+01 -0.44221557563E+02  0.47158979491E+02  0.00000000000E+00 0.  1.
         11    1    1    2    0    0  0.19636848834E+02  0.28593415730E+02  0.33588766653E+02  0.48284516157E+02  0.00000000000E+00 0. -1.
</event>
<event>
 7    1  0.3137675E-009  0.1673543E+03  0.7561462E-02  0.1180635E+00
          1   -1    0    0  501    0  0.00000000000E+00  0.00000000000E+00  0.14410325409E+04  0.14410325409E+04  0.00000000000E+00 0. -1.
         -1   -1    0    0    0  501 -0.00000000000E+00 -0.00000000000E+00 -0.24443899115E+02  0.24443899115E+02  0.00000000000E+00 0.  1.
         25    2    1    2    0    0  0.13841138157E+03 -0.62872415341E+02  0.77921420589E+03  0.80369981362E+03  0.12509180864E+03 0.  0.
          5    1    3    3  502    0  0.61299943035E+02 -0.46208717605E+01  0.98760977852E+02  0.11640549222E+03  0.41800000000E+01 0.  1.
         -5    1    3    3    0  502  0.77111438536E+02 -0.58251543580E+02  0.68045322804E+03  0.68729432141E+03  0.41800000000E+01 0.  1.
        -11    1    1    2    0    0 -0.93601057438E+02 -0.64438948380E+01  0.29331289677E+03  0.30795314115E+03  0.00000000000E+00 0. -1.
         11    1    1    2    0    0 -0.44810324134E+02  0.69316310179E+02  0.34406153911E+03  0.35382348523E+03  0.00000000000E+00 0.  1.
</event>
<event>
 7    1  0.2855090E-009  0.9292397E+02  0.7561462E-02  0.1295921E+00
         -2   -1    0    0    0  501 -0.00000000000E+00  0.00000000000E+00  0.52414949585E+02  0.52414949585E+02  0.00000000000E+00 0.  1.
          2   -1    0    0  501    0  0.00000000000E+00 -0.00000000000E+00 -0.42689190385E+03  0.42689190385E+03  0.00000000000E+00 0. -1.
         25    2    1    2    0    0 -0.53436873919E+02 -0.37766650147E+02 -0.32747870650E+03  0.35661277173E+03  0.12509415011E+03 0.  0.
          5    1    3    3  502    0  0.48025611171E+01 -0.57232958526E+02 -0.25549024814E+03  0.26189962854E+03  0.41800000000E+01 0.  1.
         -5    1    3    3    0  502 -0.58239435036E+02  0.19466308379E+02 -0.71988458357E+02  0.94713143185E+02  0.41800000000E+01 0.  1.
        -11    1    1    2    0    0  0.30645608232E+02  0.13703331624E+02 -0.73143767710E+02  0.80479471646E+02  0.00000000000E+00 0. -1.
         11    1    1    2    0    0  0.22791265687E+02  0.24063318523E+02  0.26145519942E+02  0.42214610066E+02  0.00000000000E+00 0.  1.
</event>
<event>
 7    1  0.2855090E-009  0.9275213E+02  0.7561462E-02  0.1296321E+00
         -1   -1    0    0    0  501 -0.00000000000E+00  0.00000000000E+00  0.10076481864E+03  0.10076481864E+03  0.00000000000E+00 0.  1.
          1   -1    0    0  501    0  0.00000000000E+00 -0.00000000000E+00 -0.15574915842E+03  0.15574915842E+03  0.00000000000E+00 0. -1.
         25    2    1    2    0    0 -0.42408772944E+02 -0.40205791187E+02 -0.14719387786E+02  0.13884691028E+03  0.12508714742E+03 0.  0.
          5    1    3    3  502    0  0.19973991154E+02  0.58199828729E+00  0.40928357270E+02  0.45737313798E+02  0.41800000000E+01 0.  1.
         -5    1    3    3    0  502 -0.62382764098E+02 -0.40787789475E+02 -0.55647745056E+02  0.93109596479E+02  0.41800000000E+01 0.  1.
        -11    1    1    2    0    0 -0.39128416064E-01 -0.18220466023E+02  0.17443326330E+02  0.25224126279E+02  0.00000000000E+00 0.  1.
         11    1    1    2    0    0  0.42447901360E+02  0.58426257210E+02 -0.57708278329E+02  0.92442940505E+02  0.00000000000E+00 0. -1.
</event>
<event>
 7    1  0.2855090E-009  0.9131405E+02  0.7561462E-02  0.1299700E+00
         -4   -1    0    0    0  501 -0.00000000000E+00  0.00000000000E+00  0.29565238809E+02  0.29565238809E+02  0.00000000000E+00 0.  1.
          4   -1    0    0  501    0  0.00000000000E+00 -0.00000000000E+00 -0.45001983491E+03  0.45001983491E+03  0.00000000000E+00 0. -1.
         25    2    1    2    0    0  0.18877336169E+02  0.21725627240E+02 -0.29857344924E+03  0.32499484900E+03  0.12508873084E+03 0.  0.
          5    1    3    3  502    0 -0.47401740112E+02  0.50867791616E+01 -0.19538018579E+03  0.20115588405E+03  0.41800000000E+01 0. -1.
         -5    1    3    3    0  502  0.66279076281E+02  0.16638848078E+02 -0.10319326346E+03  0.12383896495E+03  0.41800000000E+01 0. -1.
        -11    1    1    2    0    0 -0.27802744574E+02  0.12828493396E+02 -0.33492736237E+01  0.30802280475E+02  0.00000000000E+00 0.  1.
         11    1    1    2    0    0  0.89254084053E+01 -0.34554120636E+02 -0.11853187323E+03  0.12378794424E+03  0.00000000000E+00 0. -1.
</event>
<event>
 7    1  0.2855090E-009  0.4018820E+03  0.7561462E-02  0.1043130E+00
          2   -1    0    0  501    0  0.00000000000E+00  0.00000000000E+00  0.60603530140E+03  0.60603530140E+03  0.00000000000E+00 0. -1.
         -2   -1    0    0    0  501 -0.00000000000E+00 -0.00000000000E+00 -0.28031662548E+03  0.28031662548E+03  0.00000000000E+00 0.  1.
         25    2    1    2    0    0  0.26242028556E+03 -0.29388213219E+03  0.11299211064E+03  0.42853922064E+03  0.12509009819E+03 0.  0.
          5    1    3    3  502    0  0.21946016730E+03 -0.29328981333E+03  0.11850205006E+03  0.38502193172E+03  0.41800000000E+01 0.  1.
         -5    1    3    3    0  502  0.42960118261E+02 -0.59231885834E+00 -0.55099394190E+01  0.43517288921E+02  0.41800000000E+01 0.  1.
        -11    1    1    2    0    0 -0.14337539179E+03  0.14960412349E+03  0.16469771458E+03  0.26469460502E+03  0.00000000000E+00 0.  1.
         11    1    1    2    0    0 -0.11904489376E+03  0.14427800870E+03  0.48028850695E+02  0.19311810123E+03  0.00000000000E+00 0. -1.
</event>
<event>
 7    1  0.2855090E-009  0.1148196E+03  0.7561462E-02  0.1251896E+00
          2   -1    0    0  501    0  0.00000000000E+00  0.00000000000E+00  0.11805735543E+03  0.11805735543E+03  0.00000000000E+00 0. -1.
         -2   -1    0    0    0  501 -0.00000000000E+00 -0.00000000000E+00 -0.12364270376E+03  0.12364270376E+03  0.00000000000E+00 0.  1.
         25    2    1    2    0    0 -0.41719422707E+02 -0.15501833981E+02 -0.31627334318E+02  0.13648538816E+03  0.12508859187E+03 0.  0.
          5    1    3    3  502    0  0.41927667382E+02 -0.24062514771E+02 -0.13548648102E+02  0.50378290707E+02  0.41800000000E+01 0.  1.
         -5    1    3    3    0  502 -0.83647090089E+02  0.85606807900E+01 -0.18078686216E+02  0.86107097450E+02  0.41800000000E+01 0.  1.
        -11    1    1    2    0    0  0.61316865216E+02  0.33886967487E+02  0.33023889180E+02  0.77451028282E+02  0.00000000000E+00 0.  1.
         11    1    1    2    0    0 -0.19597442509E+02 -0.18385133506E+02 -0.69819031937E+01  0.27763642757E+02  0.00000000000E+00 0. -1.
</event>
<event>
 7    1  0.2855090E-009  0.1650004E+03  0.7561462E-02  0.1183164E+00
          1   -1    0    0  501    0  0.00000000000E+00  0.00000000000E+00  0.13866067571E+04  0.13866067571E+04  0.00000000000E+00 0. -1.
         -1   -1    0    0    0  501 -0.00000000000E+00 -0.00000000000E+00 -0.24455680187E+02  0.24455680187E+02  0.00000000000E+00 0.  1.
         25    2    1    2    0    0 -0.82924722986E+02 -0.11829383942E+03  0.83543751562E+03  0.85701416077E+03  0.12508991616E+03 0.  0.
          5    1    3    3  502    0 -0.10177397451E+03 -0.49610491393E+02  0.61403614496E+03  0.62440131523E+03  0.41800000000E+01 0.  1.
         -5    1    3    3    0  502  0.18849251519E+02 -0.68683348028E+02  0.22140137065E+03  0.23261284553E+03  0.41800000000E+01 0.  1.
        -11    1    1    2    0    0  0.60006608371E+02  0.97073564322E+02  0.50027600528E+03  0.51312781195E+03  0.00000000000E+00 0. -1.
         11    1    1    2    0    0  0.22918114615E+02  0.21220275099E+02  0.26437556021E+02  0.40920464576E+02  0.00000000000E+00 0.  1.
</event>
<event>
 7    1  0.2855090E-009  0.1015757E+03  0.7561462E-02  0.1277017E+00
         -1   -1    0    0    0  501 -0.00000000000E+00  0.00000000000E+00  0.40156569258E+03  0.40156569258E+03  0.00000000000E+00 0.  1.
          1   -1    0    0  501    0  0.00000000000E+00 -0.00000000000E+00 -0.44203220281E+02  0.44203220281E+02  0.00000000000E+00 0. -1.
         25    2    1    2    0    0  0.58089563333E+00 -0.17342945332E+02  0.32969831850E+03  0.35305793339E+03  0.12509119838E+03 0.  0.
          5    1    3    3  502    0 -0.21155106698E+02 -0.61555084354E+02  0.11015797960E+03  0.12801882604E+03  0.41800000000E+01 0. -1.
         -5    1    3    3    0  502  0.21736002331E+02  0.44212139022E+02  0.21954033890E+03  0.22503910735E+03  0.41800000000E+01 0. -1.
        -11    1    1    2    0    0 -0.53492345768E+01  0.52617966221E+02  0.16201548094E+02  0.55315050759E+02  0.00000000000E+00 0. -1.
         11    1    1    2    0    0  0.47683389434E+01 -0.35275020889E+02  0.11462605705E+02  0.37395928716E+02  0.00000000000E+00 0.  1.
</event>
<event>
 7    1  0.2855090E-009  0.1052507E+03  0.7561462E-02  0.1269627E+00
          1   -1    0    0  501    0  0.00000000000E+00  0.00000000000E+00  0.11034706060E+03  0.11034706060E+03  0.00000000000E+00 0. -1.
         -1   -1    0    0    0  501 -0.00000000000E+00 -0.00000000000E+00 -0.15225668332E+03  0.15225668332E+03  0.00000000000E+00 0.  1.
         25    2    1    2    0    0 -0.62819899135E+02  0.23349124872E+02 -0.37001910738E+01  0.14196071162E+03  0.12509049073E+03 0.  0.
          5    1    3    3  502    0  0.74003636836E+01 -0.26222463911E+02 -0.39986263882E+02  0.48567033011E+02  0.41800000000E+01 0. -1.
         -5    1    3    3    0  502 -0.70220262818E+02  0.49571588783E+02  0.36286072808E+02  0.93393678612E+02  0.41800000000E+01 0. -1.
        -11    1    1    2    0    0  0.20167501416E+02 -0.44804903961E+02 -0.51402819719E+02  0.71108771663E+02  0.00000000000E+00 0.  1.
         11    1    1    2    0    0  0.42652397718E+02  0.21455779089E+02  0.13193388076E+02  0.49534260632E+02  0.00000000000E+00 0. -1.
</event>
<event>
 7    1  0.2855090E-009  0.1036516E+03  0.7561462E-02  0.1272799E+00
         -1   -1    0    0    0  501 -0.00000000000E+00  0.00000000000E+00  0.30025158179E+02  0.30025158179E+02  0.00000000000E+00 0.  1.
          1   -1    0    0  501    0  0.00000000000E+00 -0.00000000000E+00 -0.12483336778E+04  0.12483336778E+04  0.00000000000E+00 0. -1.
         25    2    1    2    0    0 -0.53223678954E+02 -0.69855959978E+02 -0.10792460700E+04  0.10900149615E+04  0.12509165233E+03 0.  0.
          5    1    3    3  502    0 -0.40380931026E+02 -0.39591519146E+02 -0.10241549664E+04  0.10257236351E+04  0.41800000000E+01 0. -1.
         -5    1    3    3    0  502 -0.12842747927E+02 -0.30264440833E+02 -0.55091103637E+02  0.64291326423E+02  0.41800000000E+01 0. -1.
        -11    1    1    2    0    0  0.59253660787E+02  0.13491990625E+02 -0.35760901954E+02  0.70511504283E+02  0.00000000000E+00 0.  1.
         11    1    1    2    0    0 -0.60299818330E+01  0.56363969353E+02 -0.10330154769E+03  0.11783237024E+03  0.00000000000E+00 0. -1.
</event>
<event>
 7    1  0.2855090E-009  0.1044061E+03  0.7561462E-02  0.1271294E+00
          2   -1    0    0  501    0  0.00000000000E+00  0.00000000000E+00  0.32426569174E+03  0.32426569174E+03  0.00000000000E+00 0.  1.
         -2   -1    0    0    0  501 -0.00000000000E+00 -0.00000000000E+00 -0.61222757382E+02  0.61222757382E+02  0.00000000000E+00 0. -1.
         25    2    1    2    0    0  0.59757172952E+02  0.58265718921E+01  0.50590374684E+02  0.14768800727E+03  0.12508993893E+03 0.  0.
          5    1    3    3  502    0  0.41432462860E+02 -0.58448928491E+02  0.24936201296E+02  0.75975079832E+02  0.41800000000E+01 0.  1.
         -5    1    3    3    0  502  0.18324710092E+02  0.64275500383E+02  0.25654173388E+02  0.71712927438E+02  0.41800000000E+01 0.  1.
        -11    1    1    2    0    0 -0.46433262667E+02  0.11870643661E+02  0.21013067086E+03  0.21552693312E+03  0.00000000000E+00 0.  1.
         11    1    1    2    0    0 -0.13323910285E+02 -0.17697215554E+02  0.23218888110E+01  0.22273508733E+02  0.00000000000E+00 0. -1.
</event>
<event>
 7    1  0.2855090E-009  0.8595655E+02  0.7561462E-02  0.1312950E+00
          2   -1    0    0  501    0  0.00000000000E+00  0.00000000000E+00  0.30090708578E+03  0.30090708578E+03  0.00000000000E+00 0. -1.
         -2   -1    0    0    0  501 -0.00000000000E+00 -0.00000000000E+00 -0.47045830552E+02  0.47045830552E+02  0.00000000000E+00 0.  1.
         25    2    1    2    0    0  0.31181193146E+01 -0.12475262869E+02  0.75983838951E+02  0.14692446836E+03  0.12509156953E+03 0.  0.
          5    1    3    3  502    0 -0.32847741770E+02 -0.23541673781E+02 -0.18867726858E+02  0.44795625463E+02  0.41800000000E+01 0.  1.
         -5    1    3    3    0  502  0.35965861085E+02  0.11066410912E+02  0.94851565809E+02  0.10212884289E+03  0.41800000000E+01 0.  1.
        -11    1    1    2    0    0 -0.38019360035E+02 -0.22364235163E+02  0.91125748533E+02  0.10123997628E+03  0.00000000000E+00 0.  1.
         11    1    1    2    0    0  0.34901240720E+02  0.34839498032E+02  0.86751667745E+02  0.99788471696E+02  0.00000000000E+00 0. -1.
</event>
<event>
 7    1  0.2855090E-009  0.7017592E+02  0.7561462E-02  0.1359496E+00
         -2   -1    0    0    0  501 -0.00000000000E+00  0.00000000000E+00  0.12109571565E+03  0.12109571565E+03  0.00000000000E+00 0.  1.
          2   -1    0    0  501    0  0.00000000000E+00 -0.00000000000E+00 -0.13566014359E+03  0.13566014359E+03  0.00000000000E+00 0. -1.
         25    2    1    2    0    0  0.30553041671E+02 -0.70475128747E+01  0.51838905283E+02  0.13898883353E+03  0.12508983952E+03 0.  0.
          5    1    3    3  502    0 -0.71811260061E+01 -0.23805774932E+02 -0.34770492363E+02  0.42950471825E+02  0.41800000000E+01 0. -1.
         -5    1    3    3    0  502  0.37734167677E+02  0.16758262057E+02  0.86609397646E+02  0.96038361700E+02  0.41800000000E+01 0. -1.
        -11    1    1    2    0    0 -0.46905520773E+02  0.21699869269E+02 -0.42579899049E+01  0.51856944408E+02  0.00000000000E+00 0.  1.
         11    1    1    2    0    0  0.16352479103E+02 -0.14652356395E+02 -0.62145343322E+02  0.65910081302E+02  0.00000000000E+00 0. -1.
</event>
<event>
 7    1  0.2855090E-009  0.1354524E+03  0.7561462E-02  0.1219582E+00
          2   -1    0    0  501    0  0.00000000000E+00  0.00000000000E+00  0.11758729008E+04  0.11758729008E+04  0.00000000000E+00 0. -1.
         -2   -1    0    0    0  501 -0.00000000000E+00 -0.00000000000E+00 -0.29166852375E+02  0.29166852375E+02  0.00000000000E+00 0.  1.
         25    2    1    2    0    0  0.56538648887E+02 -0.97561764610E+02  0.92313358166E+03  0.93837000712E+03  0.12509094270E+03 0.  0.
          5    1    3    3  502    0  0.76905117055E+02 -0.84294545886E+02  0.43891677960E+03  0.45352550018E+03  0.41800000000E+01 0. -1.
         -5    1    3    3    0  502 -0.20366468169E+02 -0.13267218725E+02  0.48421680206E+03  0.48484450695E+03  0.41800000000E+01 0. -1.
        -11    1    1    2    0    0  0.63698539834E+01  0.56674833411E+02  0.15449250639E+03  0.16468316949E+03  0.00000000000E+00 0.  1.
         11    1    1    2    0    0 -0.62908502870E+02  0.40886931199E+02  0.69079960407E+02  0.10198657660E+03  0.00000000000E+00 0. -1.
</event>
<event>
 7    1  0.2855090E-009  0.1616801E+03  0.7561462E-02  0.1186813E+00
          2   -1    0    0  501    0  0.00000000000E+00  0.00000000000E+00  0.10757305819E+04  0.10757305819E+04  0.00000000000E+00 0. -1.
         -2   -1    0    0    0  501 -0.00000000000E+00 -0.00000000000E+00 -0.32705367236E+02  0.32705367236E+02  0.00000000000E+00 0.  1.
         25    2    1    2    0    0 -0.13798014671E+03 -0.64914096641E+02  0.54023840419E+03  0.57511397570E+03  0.12508473470E+03 0.  0.
          5    1    3    3  502    0 -0.83877970323E+01 -0.54511266069E+01  0.26397592894E+03  0.26419847347E+03  0.41800000000E+01 0. -1.
         -5    1    3    3    0  502 -0.12959234967E+03 -0.59462970034E+02  0.27626247525E+03  0.31091550223E+03  0.41800000000E+01 0. -1.
        -11    1    1    2    0    0  0.57217359955E+02 -0.11870190044E+02  0.10438621080E+03  0.11962946417E+03  0.00000000000E+00 0.  1.
         11    1    1    2    0    0  0.80762786751E+02  0.76784286685E+02  0.39840059967E+03  0.41369250926E+03  0.00000000000E+00 0. -1.
</event>
<event>
 7    1  0.2855090E-009  0.7914768E+02  0.7561462E-02  0.1331488E+00
          2   -1    0    0  501    0  0.00000000000E+00  0.00000000000E+00  0.69826738138E+03  0.69826738138E+03  0.00000000000E+00 0. -1.
         -2   -1    0    0    0  501 -0.00000000000E+00 -0.00000000000E+00 -0.38481375999E+02  0.38481375999E+02  0.00000000000E+00 0.  1.
         25    2    1    2    0    0 -0.72507110806E+02  0.20438989415E+01  0.56845225569E+03  0.58655533962E+03  0.12509093015E+03 0.  0.
          5    1    3    3  502    0 -0.34700499750E+02  0.81746810986E+01  0.30152388487E+02  0.46878449478E+02  0.41800000000E+01 0.  1.
         -5    1    3    3    0  502 -0.37806611056E+02 -0.61307821571E+01  0.53829986720E+03  0.53967689014E+03  0.41800000000E+01 0.  1.
        -11    1    1    2    0    0  0.59952639102E+02  0.15851540444E+02  0.62276902302E+01  0.62324749461E+02  0.00000000000E+00 0.  1.
         11    1    1    2    0    0  0.12554471704E+02 -0.17895439386E+02  0.85106059467E+02  0.87868668299E+02  0.00000000000E+00 0. -1.
</event>
<event>
 7    1  0.2855090E-009  0.1602323E+03  0.7561462E-02  0.1188435E+00
          2   -1    0    0  501    0  0.00000000000E+00  0.00000000000E+00  0.61899542324E+03  0.61899542324E+03  0.00000000000E+00 0. -1.
         -2   -1    0    0    0  501 -0.00000000000E+00 -0.00000000000E+00 -0.56084609926E+02  0.56084609926E+02  0.00000000000E+00 0.  1.
         25    2    1    2    0    0  0.26494946179E+02 -0.11722493509E+03  0.46255920789E+03  0.49401809701E+03  0.12509672976E+03 0.  0.
          5    1    3    3  502    0 -0.45419233527E+02 -0.15393590619E+02  0.11110356448E+03  0.12108403630E+03  0.41800000000E+01 0.  1.
         -5    1    3    3    0  502  0.71914179705E+02 -0.10183134447E+03  0.35145564340E+03  0.37293406071E+03  0.41800000000E+01 0.  1.
        -11    1    1    2    0    0 -0.56226737711E+02  0.95296481841E+02  0.58229378386E+02  0.12503409932E+03  0.00000000000E+00 0.  1.
         11    1    1    2    0    0  0.29731791532E+02  0.21928453245E+02  0.42122227039E+02  0.56027836832E+02  0.00000000000E+00 0. -1.
</event>
<event>
 7    1  0.2855090E-009  0.1498067E+03  0.7561462E-02  0.1200711E+00
          2   -1    0    0  501    0  0.00000000000E+00  0.00000000000E+00  0.39360371172E+03  0.39360371172E+03  0.00000000000E+00 0. -1.
         -2   -1    0    0    0  501 -0.00000000000E+00 -0.00000000000E+00 -0.90470398031E+02  0.90470398031E+02  0.00000000000E+00 0.  1.
         25    2    1    2    0    0 -0.71244671583E+02 -0.92787814872E+02  0.28892746498E+03  0.33586773764E+03  0.12507068143E+03 0.  0.
          5    1    3    3  502    0 -0.61498008341E+02  0.93156811255E+00  0.51277046550E+02  0.80185290122E+02  0.41800000000E+01 0. -1.
         -5    1    3    3    0  502 -0.97466632423E+01 -0.93719382985E+02  0.23765041843E+03  0.25568244752E+03  0.41800000000E+01 0. -1.
        -11    1    1    2    0    0  0.90334589037E+02  0.72890415545E+02 -0.22474555624E+01  0.11609651895E+03  0.00000000000E+00 0.  1.
         11    1    1    2    0    0 -0.19089917454E+02  0.19897399327E+02  0.16453304267E+02  0.32109853156E+02  0.00000000000E+00 0. -1.
</event>
<event>
 7    1  0.2855090E-009  0.8735994E+02  0.7561462E-02  0.1309374E+00
         -3   -1    0    0    0  501 -0.00000000000E+00  0.00000000000E+00  0.29603168746E+03  0.29603168746E+03  0.00000000000E+00 0.  1.
          3   -1    0    0  501    0  0.00000000000E+00 -0.00000000000E+00 -0.55249161992E+02  0.55249161992E+02  0.00000000000E+00 0. -1.
         25    2    1    2    0    0  0.24217563898E+02 -0.50695347956E+02  0.18617860898E+03  0.23122733376E+03  0.12508835570E+03 0.  0.
          5    1    3    3  502    0  0.34297050998E+02 -0.43552867863E+02  0.20269623958E+03  0.21018177359E+03  0.41800000000E+01 0. -1.
         -5    1    3    3    0  502 -0.10079487100E+02 -0.71424800930E+01 -0.16517630609E+02  0.21045560173E+02  0.41800000000E+01 0. -1.
        -11    1    1    2    0    0  0.27211014261E+01 -0.25305374142E+02  0.19722215654E+02  0.32198325170E+02  0.00000000000E+00 0. -1.
         11    1    1    2    0    0 -0.26938665324E+02  0.76000722097E+02  0.34881700841E+02  0.87855190526E+02  0.00000000000E+00 0.  1.
</event>
<event>
 7    1  0.2855090E-009  0.9096681E+02  0.7561462E-02  0.1300527E+00
         -2   -1    0    0    0  501 -0.00000000000E+00  0.00000000000E+00  0.21701879340E+02  0.21701879340E+02  0.00000000000E+00 0.  1.
          2   -1    0    0  501    0  0.00000000000E+00 -0.00000000000E+00 -0.65635635295E+03  0.65635635295E+03  0.00000000000E+00 0. -1.
         25    2    1    2    0    0 -0.56340835299E+00  0.26521591505E+02 -0.48466405590E+03  0.50125047038E+03  0.12509626188E+03 0.  0.
          5    1    3    3  502    0  0.55045560193E+02  0.31030813772E+02 -0.16515697392E+03  0.17688194802E+03  0.41800000000E+01 0. -1.
         -5    1    3    3    0  502 -0.55608968546E+02 -0.45092222670E+01 -0.31950708198E+03  0.32436852237E+03  0.41800000000E+01 0. -1.
        -11    1    1    2    0    0  0.19795781093E+02 -0.36100825086E+02 -0.21336956068E+02  0.46372494167E+02  0.00000000000E+00 0.  1.
         11    1    1    2    0    0 -0.19232372740E+02  0.95792335815E+01 -0.12865346165E+03  0.13043526774E+03  0.00000000000E+00 0. -1.
</event>
<event>
 7    1  0.2855090E-009  0.1337239E+03  0.7561462E-02  0.1222032E+00
          1   -1    0    0  501    0  0.00000000000E+00  0.00000000000E+00  0.84552893878E+03  0.84552893878E+03  0.00000000000E+00 0. -1.
         -1   -1    0    0    0  501 -0.00000000000E+00 -0.00000000000E+00 -0.32016156972E+02  0.32016156972E+02  0.00000000000E+00 0.  1.
         25    2    1    2    0    0 -0.68694337255E+02  0.89789283547E+02  0.36756527624E+03  0.40439206521E+03  0.12509069788E+03 0.  0.
          5    1    3    3  502    0 -0.44607855236E+02  0.70234593276E+02  0.81245839886E+02  0.11636630844E+03  0.41800000000E+01 0.  1.
         -5    1    3    3    0  502 -0.24086482019E+02  0.19554690270E+02  0.28631943635E+03  0.28802575677E+03  0.41800000000E+01 0.  1.
        -11    1    1    2    0    0  0.92230586003E+02 -0.90597847269E+02  0.41221236766E+03  0.43201098015E+03  0.00000000000E+00 0. -1.
         11    1    1    2    0    0 -0.23536248748E+02  0.80856372263E+00  0.33735137917E+02  0.41142050395E+02  0.00000000000E+00 0.  1.
</event>
<event>
 7    1  0.2855090E-009  0.1181940E+03  0.7561462E-02  0.1246107E+00
         -2   -1    0    0    0  501 -0.00000000000E+00  0.00000000000E+00  0.27614774370E+03  0.27614774370E+03  0.00000000000E+00 0.  1.
          2   -1    0    0  501    0  0.00000000000E+00 -0.00000000000E+00 -0.54043024087E+02  0.54043024087E+02  0.00000000000E+00 0. -1.
         25    2    1    2    0    0 -0.32838024107E+02 -0.32012855938E+02  0.90900826156E+02  0.16128214870E+03  0.12508322238E+03 0.  0.
          5    1    3    3  502    0  0.47828874085E+02 -0.17823087830E+02  0.34708371555E+02  0.61866041671E+02  0.41800000000E+01 0. -1.
         -5    1    3    3    0  502 -0.80666898192E+02 -0.14189768108E+02  0.56192454602E+02  0.99416107031E+02  0.41800000000E+01 0. -1.
        -11    1    1    2    0    0 -0.87974779384E+01  0.54934996432E+02  0.90986821954E+02  0.10664825934E+03  0.00000000000E+00 0.  1.
         11    1    1    2    0    0  0.41635502045E+02 -0.22922140494E+02  0.40217071503E+02  0.62260359746E+02  0.00000000000E+00 0. -1.
</event>
<event>
 7    1  0.2855090E-009  0.1073755E+03  0.7561462E-02  0.1265509E+00
          1   -1    0    0  501    0  0.00000000000E+00  0.00000000000E+00  0.14990477654E+03  0.14990477654E+03  0.00000000000E+00 0. -1.
         -1   -1    0    0    0  501 -0.00000000000E+00 -0.00000000000E+00 -0.96476188640E+02  0.96476188640E+02  0.00000000000E+00 0.  1.
         25    2    1    2    0    0 -0.49502223267E+02  0.24171979928E+01  0.68347030633E+01  0.13472339345E+03  0.12508943449E+03 0.  0.
          5    1    3    3  502    0 -0.76252231893E+02 -0.24176529445E+02  0.35048153357E+02  0.87434277594E+02  0.41800000000E+01 0.  1.
         -5    1    3    3    0  502  0.26750008626E+02  0.26593727437E+02 -0.28213450294E+02  0.47289115851E+02  0.41800000000E+01 0.  1.
        -11    1    1    2    0    0  0.13669496513E+02 -0.41488999247E+02  0.38105316839E+02  0.57967295649E+02  0.00000000000E+00 0. -1.
         11    1    1    2    0    0  0.35832726754E+02  0.39071801254E+02  0.84885680021E+01  0.53690276090E+02  0.00000000000E+00 0.  1.
</event>
<event>
 7    1  0.2855090E-009  0.1451093E+03  0.7561462E-02  0.1206615E+00
         -1   -1    0    0    0  501 -0.00000000000E+00  0.00000000000E+00  0.47353940458E+02  0.47353940458E+02  0.00000000000E+00 0.  1.
          1   -1    0    0  501    0  0.00000000000E+00 -0.00000000000E+00 -0.55648047386E+03  0.55648047386E+03  0.00000000000E+00 0. -1.
         25    2    1    2    0    0  0.61958769253E+02 -0.87979716811E+02 -0.17055094526E+03  0.23730791026E+03  0.12509236463E+03 0.  0.
          5    1    3    3  502    0 -0.22360651732E+02 -0.54715584711E+02 -0.21945401415E+02  0.63189136720E+02  0.41800000000E+01 0. -1.
         -5    1    3    3    0  502  0.84319420986E+02 -0.33264132100E+02 -0.14860554384E+03  0.17411877355E+03  0.41800000000E+01 0. -1.
        -11    1    1    2    0    0 -0.18879260743E+02  0.94751720720E+02 -0.22494940675E+03  0.24481942460E+03  0.00000000000E+00 0.  1.
         11    1    1    2    0    0 -0.43079508510E+02 -0.67720039095E+01 -0.11362618140E+03  0.12170707945E+03  0.00000000000E+00 0. -1.
</event>
<event>
 7    1  0.2855090E-009  0.1017314E+03  0.7561462E-02  0.1276697E+00
         -1   -1    0    0    0  501 -0.00000000000E+00  0.00000000000E+00  0.23258150747E+02  0.23258150747E+02  0.00000000000E+00 0.  1.
          1   -1    0    0  501    0  0.00000000000E+00 -0.00000000000E+00 -0.79108204715E+03  0.79108204715E+03  0.00000000000E+00 0. -1.
         25    2    1    2    0    0  0.11619659136E+02  0.69145100310E+02 -0.52881862341E+03  0.54791799901E+03  0.12509570654E+03 0.  0.
          5    1    3    3  502    0  0.21475087180E+02  0.52203677806E+01 -0.92464919060E+01  0.24318750414E+02  0.41800000000E+01 0.  1.
         -5    1    3    3    0  502 -0.98554280436E+01  0.63924732530E+02 -0.51957213151E+03  0.52359924860E+03  0.41800000000E+01 0.  1.
        -11    1    1    2    0    0 -0.33188125504E+01 -0.91886614950E+02 -0.20504060345E+03  0.22471273570E+03  0.00000000000E+00 0.  1.
         11    1    1    2    0    0 -0.83008465858E+01  0.22741514640E+02 -0.33964669535E+02  0.41709463181E+02  0.00000000000E+00 0. -1.
</event>
<event>
 7    1  0.2855090E-009  0.8544029E+02  0.7561462E-02  0.1314285E+00
         -2   -1    0    0    0  501 -0.00000000000E+00  0.00000000000E+00  0.74662528809E+02  0.74662528809E+02  0.00000000000E+00 0.  1.
          2   -1    0    0  501    0  0.00000000000E+00 -0.00000000000E+00 -0.27448063010E+03  0.27448063010E+03  0.00000000000E+00 0. -1.
         25    2    1    2    0    0  0.27175818041E+02  0.81928815618E+00 -0.21854952290E+03  0.25327788675E+03  0.12508636073E+03 0.  0.
          5    1    3    3  502    0 -0.26631497715E+02 -0.16255764168E+02 -0.18461438863E+03  0.18727902026E+03  0.41800000000E+01 0.  1.
         -5    1    3    3    0  502  0.53807315755E+02  0.17075052324E+02 -0.33935134264E+02  0.65998866491E+02  0.41800000000E+01 0.  1.
        -11    1    1    2    0    0 -0.54900623510E+02 -0.30146758052E+01  0.33490650889E+02  0.64380046823E+02  0.00000000000E+00 0.  1.
         11    1    1    2    0    0  0.27724805470E+02  0.21953876490E+01 -0.14759229282E+02  0.31485225333E+02  0.00000000000E+00 0. -1.
</event>
<event>
 7    1  0.2855090E-009  0.2022312E+03  0.7561462E-02  0.1147870E+00
          2   -1    0    0  501    0  0.00000000000E+00  0.00000000000E+00  0.51642375495E+03  0.51642375495E+03  0.00000000000E+00 0. -1.
         -2   -1    0    0    0  501 -0.00000000000E+00 -0.00000000000E+00 -0.81594785747E+02  0.81594785747E+02  0.00000000000E+00 0.  1.
         25    2    1    2    0    0  0.72795421496E+02 -0.15425987600E+03  0.27518599344E+03  0.34708789420E+03  0.12508953824E+03 0.  0.
          5    1    3    3  502    0  0.10839322950E+03 -0.10988895054E+03  0.20505205939E+03  0.25668753985E+03  0.41800000000E+01 0.  1.
         -5    1    3    3    0  502 -0.35597808007E+02 -0.44370925466E+02  0.70133934050E+02  0.90400354352E+02  0.41800000000E+01 0.  1.
        -11    1    1    2    0    0 -0.64876994813E+02  0.35430064823E+02  0.51783967348E+02  0.90254602230E+02  0.00000000000E+00 0.  1.
         11    1    1    2    0    0 -0.79184266828E+01  0.11882981118E+03  0.10785900842E+03  0.16067604427E+03  0.00000000000E+00 0. -1.
</event>
<event>
 7    1  0.2855090E-009  0.1289834E+03  0.7561462E-02  0.1228972E+00
          2   -1    0    0  501    0  0.00000000000E+00  0.00000000000E+00  0.83936253010E+03  0.83936253010E+03  0.00000000000E+00 0. -1.
         -2   -1    0    0    0  501 -0.00000000000E+00 -0.00000000000E+00 -0.21175602270E+02  0.21175602270E+02  0.00000000000E+00 0.  1.
         25    2    1    2    0    0  0.49356313096E+02 -0.60671434812E+02  0.43468930202E+03  0.45904185055E+03  0.12509021790E+03 0.  0.
          5    1    3    3  502    0  0.65441956170E+02 -0.87967702975E+02  0.38174755022E+03  0.39720225439E+03  0.41800000000E+01 0.  1.
         -5    1    3    3    0  502 -0.16085643074E+02  0.27296268162E+02  0.52941751800E+02  0.61839596153E+02  0.41800000000E+01 0.  1.
        -11    1    1    2    0    0 -0.44099840709E+02  0.82656141335E+02  0.27061516431E+03  0.28637283532E+03  0.00000000000E+00 0.  1.
         11    1    1    2    0    0 -0.52564723868E+01 -0.21984706523E+02  0.11288246149E+03  0.11512344651E+03  0.00000000000E+00 0. -1.
</event>
<event>
 7    1  0.2855090E-009  0.9816337E+02  0.7561462E-02  0.1284206E+00
          1   -1    0    0  501    0  0.00000000000E+00  0.00000000000E+00  0.64018457047E+03  0.64018457047E+03  0.00000000000E+00 0. -1.
         -1   -1    0    0    0  501 -0.00000000000E+00 -0.00000000000E+00 -0.30703393644E+02  0.30703393644E+02  0.00000000000E+00 0.  1.
         25    2    1    2    0    0  0.28628297806E+02 -0.83245812986E+02  0.29354469340E+03  0.33100540103E+03  0.12508654473E+03 0.  0.
          5    1    3    3  502    0 -0.15008321768E+02 -0.71969137147E+01  0.20709174684E+03  0.20780161044E+03  0.41800000000E+01 0. -1.
         -5    1    3    3    0  502  0.43636619574E+02 -0.76048899272E+02  0.86452946558E+02  0.12320379059E+03  0.41800000000E+01 0. -1.
        -11    1    1    2    0    0 -0.23118931326E+02  0.30088704064E+02  0.28332562353E+02  0.47355561314E+02  0.00000000000E+00 0.  1.
         11    1    1    2    0    0 -0.55093664795E+01  0.53157108922E+02  0.28760392107E+03  0.29252700177E+03  0.00000000000E+00 0. -1.
</event>
<event>
 7    1  0.2855090E-009  0.1669544E+03  0.7561462E-02  0.1181062E+00
         -4   -1    0    0    0  501 -0.00000000000E+00  0.00000000000E+00  0.89652968427E+02  0.89652968427E+02  0.00000000000E+00 0.  1.
          4   -1    0    0  501    0  0.00000000000E+00 -0.00000000000E+00 -0.43298816243E+03  0.43298816243E+03  0.00000000000E+00 0. -1.
         25    2    1    2    0    0  0.10596961996E+03  0.95601097279E+02 -0.72119392719E+02  0.20302020388E+03  0.12508743431E+03 0.  0.
          5    1    3    3  502    0 -0.20663690368E+00  0.62744109994E+02  0.11428240003E+02  0.63913559652E+02  0.41800000000E+01 0. -1.
         -5    1    3    3    0  502  0.10617625687E+03  0.32856987285E+02 -0.83547632722E+02  0.13910664423E+03  0.41800000000E+01 0. -1.
        -11    1    1    2    0    0 -0.57270698384E+01  0.11660662188E+02 -0.22338950772E+01  0.13181830632E+02  0.00000000000E+00 0.  1.
         11    1    1    2    0    0 -0.10024255013E+03 -0.10726175947E+03 -0.26898190621E+03  0.30643909634E+03  0.00000000000E+00 0. -1.
</event>
<event>
 7    1  0.2855090E-009  0.1083626E+03  0.7561462E-02  0.1263633E+00
         -2   -1    0    0    0  501 -0.00000000000E+00  0.00000000000E+00  0.94370360593E+02  0.94370360593E+02  0.00000000000E+00 0.  1.
          2   -1    0    0  501    0  0.00000000000E+00 -0.00000000000E+00 -0.17880108329E+03  0.17880108329E+03  0.00000000000E+00 0. -1.
         25    2    1    2    0    0 -0.59200603333E+02 -0.22999937151E+02 -0.21830686334E+02  0.14197809737E+03  0.12508993853E+03 0.  0.
          5    1    3    3  502    0 -0.40686648199E+02  0.45096120719E+02  0.14373192371E+02  0.62554971861E+02  0.41800000000E+01 0.  1.
         -5    1    3    3    0  502 -0.18513955134E+02 -0.68096057870E+02 -0.36203878705E+02  0.79423125507E+02  0.41800000000E+01 0.  1.
        -11    1    1    2    0    0  0.58938946475E+02  0.38014774176E+02 -0.35076755635E+01  0.70222690458E+02  0.00000000000E+00 0.  1.
         11    1    1    2    0    0  0.26165685797E+00 -0.15014837025E+02 -0.59092360801E+02  0.60970656059E+02  0.00000000000E+00 0. -1.
</event>
<event>
 7    1  0.2855090E-009  0.1068829E+03  0.7561462E-02  0.1266454E+00
          2   -1    0    0  501    0  0.00000000000E+00  0.00000000000E+00  0.21732952825E+02  0.21732952825E+02  0.00000000000E+00 0.  1.
         -2   -1    0    0    0  501 -0.00000000000E+00 -0.00000000000E+00 -0.75371331884E+03  0.75371331884E+03  0.00000000000E+00 0. -1.
         25    2    1    2    0    0 -0.31140382478E+02 -0.37156870642E+02 -0.28292689599E+03  0.31312843222E+03  0.12510567585E+03 0.  0.
          5    1    3    3  502    0 -0.15761869887E+02  0.30393192034E+02 -0.20861220790E+03  0.21144433866E+03  0.41800000000E+01 0.  1.
         -5    1    3    3    0  502 -0.15378512591E+02 -0.67550062676E+02 -0.74314688091E+02  0.10168409356E+03  0.41800000000E+01 0.  1.
        -11    1    1    2    0    0 -0.24153227495E+02 -0.19247022214E+02 -0.13424074467E+03  0.13774760902E+03  0.00000000000E+00 0. -1.
         11    1    1    2    0    0  0.55293609973E+02  0.56403892856E+02 -0.31481272535E+03  0.32457023042E+03  0.00000000000E+00 0.  1.
</event>
<event>
 7    1  0.2855090E-009  0.1183056E+03  0.7561462E-02  0.1245919E+00
         -2   -1    0    0    0  501 -0.00000000000E+00  0.00000000000E+00  0.27173674193E+03  0.27173674193E+03  0.00000000000E+00 0. -1.
          2   -1    0    0  501    0  0.00000000000E+00 -0.00000000000E+00 -0.76686520346E+02  0.76686520346E+02  0.00000000000E+00 0.  1.
         25    2    1    2    0    0  0.24329196547E+02 -0.82203298544E+02  0.15675967443E+03  0.21810544872E+03  0.12508836532E+03 0.  0.
          5    1    3    3  502    0 -0.45834364256E+02 -0.60101136431E+02  0.98183783971E+02  0.12397767292E+03  0.41800000000E+01 0.  1.
         -5    1    3    3    0  502  0.70163560803E+02 -0.22102162113E+02  0.58575890456E+02  0.94127775801E+02  0.41800000000E+01 0.  1.
        -11    1    1    2    0    0 -0.16900096775E+02  0.29431597374E+02 -0.28887789545E+02  0.44568336067E+02  0.00000000000E+00 0.  1.
         11    1    1    2    0    0 -0.74290997724E+01  0.52771701170E+02  0.67178336705E+02  0.85749477493E+02  0.00000000000E+00 0. -1.
</event>
<event>
 7    1  0.2855090E-009  0.7251545E+02  0.7561462E-02  0.1351742E+00
         -1   -1    0    0    0  501 -0.00000000000E+00  0.00000000000E+00  0.33710521131E+03  0.33710521131E+03  0.00000000000E+00 0.  1.
          1   -1    0    0  501    0  0.00000000000E+00 -0.00000000000E+00 -0.37439944828E+02  0.37439944828E+02  0.00000000000E+00 0. -1.
         25    2    1    2    0    0  0.20788047725E+02  0.14725285349E+02  0.16904022693E+03  0.21183060701E+03  0.12509448743E+03 0.  0.
          5    1    3    3  502    0  0.32084397927E+02  0.15952363851E+02  0.18684706949E+03  0.19029762553E+03  0.41800000000E+01 0. -1.
         -5    1    3    3    0  502 -0.11296350203E+02 -0.12270785024E+01 -0.17806842558E+02  0.21532981480E+02  0.41800000000E+01 0. -1.
        -11    1    1    2    0    0  0.34150773555E+02  0.11415798149E+02  0.53305655073E+02  0.64327977153E+02  0.00000000000E+00 0. -1.
         11    1    1    2    0    0 -0.54938821280E+02 -0.26141083498E+02  0.77319384470E+02  0.98386571974E+02  0.00000000000E+00 0.  1.
</event>
<event>
 7    1  0.2855090E-009  0.1032289E+03  0.7561462E-02  0.1273649E+00
          2   -1    0    0  501    0  0.00000000000E+00  0.00000000000E+00  0.32972141590E+02  0.32972141590E+02  0.00000000000E+00 0.  1.
         -2   -1    0    0    0  501 -0.00000000000E+00 -0.00000000000E+00 -0.40628684385E+03  0.40628684385E+03  0.00000000000E+00 0. -1.
         25    2    1    2    0    0 -0.23783868759E+01  0.27034565441E+02 -0.25469402793E+03  0.28504922004E+03  0.12508990978E+03 0.  0.
          5    1    3    3  502    0 -0.54349982891E+02  0.22457229131E+02 -0.62764453300E+02  0.86110956205E+02  0.41800000000E+01 0.  1.
         -5    1    3    3    0  502  0.51971596015E+02  0.45773363098E+01 -0.19192957463E+03  0.19893826383E+03  0.41800000000E+01 0.  1.
        -11    1    1    2    0    0  0.46673321846E+02 -0.10188964343E+02 -0.79541467803E+02  0.92785015314E+02  0.00000000000E+00 0. -1.
         11    1    1    2    0    0 -0.44294934970E+02 -0.16845601098E+02 -0.39079206525E+02  0.61424750085E+02  0.00000000000E+00 0.  1.
</event>
<event>
 7    1  0.2855090E-009  0.1358041E+03  0.7561462E-02  0.1219089E+00
          1   -1    0    0  501    0  0.00000000000E+00  0.00000000000E+00  0.13867653724E+03  0.13867653724E+03  0.00000000000E+00 0. -1.
         -1   -1    0    0    0  501 -0.00000000000E+00 -0.00000000000E+00 -0.20120003650E+03  0.20120003650E+03  0.00000000000E+00 0.  1.
         25    2    1    2    0    0 -0.90566479388E+02 -0.25994925025E+02 -0.11959484312E+03  0.19704894079E+03  0.12508930910E+03 0.  0.
          5    1    3    3  502    0 -0.12604859628E+02 -0.64277399055E+02 -0.73830306894E+02  0.98786907693E+02  0.41800000000E+01 0.  1.
         -5    1    3    3    0  502 -0.77961619759E+02  0.38282474030E+02 -0.45764536224E+02  0.98262033101E+02  0.41800000000E+01 0.  1.
        -11    1    1    2    0    0  0.94175154465E+02  0.14252669999E+01  0.17033597580E+02  0.95713815883E+02  0.00000000000E+00 0. -1.
         11    1    1    2    0    0 -0.36086750766E+01  0.24569658025E+02  0.40037746277E+02  0.47113817062E+02  0.00000000000E+00 0.  1.
</event>
<event>
 7    1  0.2855090E-009  0.1036460E+03  0.7561462E-02  0.1272810E+00
         -2   -1    0    0    0  501 -0.00000000000E+00  0.00000000000E+00  0.63453050171E+02  0.63453050171E+02  0.00000000000E+00 0.  1.
          2   -1    0    0  501    0  0.00000000000E+00 -0.00000000000E+00 -0.39368554303E+03  0.39368554303E+03  0.00000000000E+00 0. -1.
         25    2    1    2    0    0  0.77820468030E+02 -0.50546553866E+02 -0.79128399869E+02  0.17469438563E+03  0.12508335362E+03 0.  0.
          5    1    3    3  502    0 -0.47764285488E+01 -0.23018879204E+02  0.27861244284E+02  0.36693383634E+02  0.41800000000E+01 0.  1.
         -5    1    3    3    0  502  0.82596896579E+02 -0.27527674662E+02 -0.10698964415E+03  0.13800100200E+03  0.41800000000E+01 0.  1.
        -11    1    1    2    0    0 -0.61151696126E+02  0.25704442039E+02 -0.24236339686E+03  0.25127726602E+03  0.00000000000E+00 0. -1.
         11    1    1    2    0    0 -0.16668771904E+02  0.24842111826E+02 -0.87406961288E+01  0.31166941550E+02  0.00000000000E+00 0.  1.
</event>
<event>
 7    1  0.2855090E-009  0.8379399E+02  0.7561462E-02  0.1318617E+00
          2   -1    0    0  501    0  0.00000000000E+00  0.00000000000E+00  0.13981175860E+04  0.13981175860E+04  0.00000000000E+00 0. -1.
         -2   -1    0    0    0  501 -0.00000000000E+00 -0.00000000000E+00 -0.11159783918E+02  0.11159783918E+02  0.00000000000E+00 0.  1.
         25    2    1    2    0    0 -0.31672978397E+02  0.46968108771E+02  0.92332217808E+03  0.93347737019E+03  0.12508787039E+03 0.  0.
          5    1    3    3  502    0 -0.33625461001E+02  0.32716438236E+02  0.91524979755E+03  0.91646096549E+03  0.41800000000E+01 0. -1.
         -5    1    3    3    0  502  0.19524826042E+01  0.14251670534E+02  0.80723805293E+01  0.17016404695E+02  0.41800000000E+01 0. -1.
        -11    1    1    2    0    0 -0.30372900844E+02 -0.26098217056E+02  0.14023599451E+03  0.14584157224E+03  0.00000000000E+00 0.  1.
         11    1    1    2    0    0  0.62045879241E+02 -0.20869891715E+02  0.32339962955E+03  0.32995842754E+03  0.00000000000E+00 0. -1.
</event>
<event>
 7    1  0.2855090E-009  0.1531766E+03  0.7561462E-02  0.1196623E+00
         -2   -1    0    0    0  501 -0.00000000000E+00  0.00000000000E+00  0.13122639422E+04  0.13122639422E+04  0.00000000000E+00 0.  1.
          2   -1    0    0  501    0  0.00000000000E+00 -0.00000000000E+00 -0.31632778336E+02  0.31632778336E+02  0.00000000000E+00 0. -1.
         25    2    1    2    0    0  0.10866116901E+03 -0.72366908254E+02  0.10335681769E+04  0.10492639451E+04  0.12508969227E+03 0.  0.
          5    1    3    3  502    0  0.28241520557E+02 -0.66029533343E+02  0.77597778183E+03  0.77930512192E+03  0.41800000000E+01 0.  1.
         -5    1    3    3    0  502  0.80419648453E+02 -0.63373749110E+01  0.25759039512E+03  0.26995882322E+03  0.41800000000E+01 0.  1.
        -11    1    1    2    0    0 -0.77235984827E+02  0.27809405151E+01  0.16690384554E+03  0.18392940124E+03  0.00000000000E+00 0.  1.
         11    1    1    2    0    0 -0.31425184183E+02  0.69585967739E+02  0.80159141420E+02  0.11070337421E+03  0.00000000000E+00 0. -1.
</event>
<event>
 7    1  0.2855090E-009  0.9149924E+02  0.7561462E-02  0.1299261E+00
          1   -1    0    0  501    0  0.00000000000E+00  0.00000000000E+00  0.46621021098E+03  0.46621021098E+03  0.00000000000E+00 0. -1.
         -1   -1    0    0    0  501 -0.00000000000E+00 -0.00000000000E+00 -0.40855762848E+02  0.40855762848E+02  0.00000000000E+00 0.  1.
         25    2    1    2    0    0  0.59300914703E+02 -0.36543340082E+02  0.14130319326E+03  0.20115984489E+03  0.12508667628E+03 0.  0.
          5    1    3    3  502    0  0.35883963123E+02  0.27081182805E+02  0.86610071340E+00  0.45158297156E+02  0.41800000000E+01 0. -1.
         -5    1    3    3    0  502  0.23416951579E+02 -0.63624522887E+02  0.14043709254E+03  0.15600154774E+03  0.41800000000E+01 0. -1.
        -11    1    1    2    0    0 -0.11659358026E+02  0.10151905694E+02 -0.11961364068E+01  0.15505887950E+02  0.00000000000E+00 0.  1.
         11    1    1    2    0    0 -0.47641556677E+02  0.26391434387E+02  0.28524739128E+03  0.29040024098E+03  0.00000000000E+00 0. -1.
</event>
<event>
 7    1  0.2855090E-009  0.1269477E+03  0.7561462E-02  0.1232056E+00
          2   -1    0    0  501    0  0.00000000000E+00  0.00000000000E+00  0.19448952323E+03  0.19448952323E+03  0.00000000000E+00 0. -1.
         -2   -1    0    0    0  501 -0.00000000000E+00 -0.00000000000E+00 -0.10022750855E+03  0.10022750855E+03  0.00000000000E+00 0.  1.
         25    2    1    2    0    0  0.79783846578E+02 -0.31044759225E+02  0.95075970534E+02  0.17892920901E+03  0.12508789876E+03 0.  0.
          5    1    3    3  502    0  0.68156752350E+02  0.30990853833E+02  0.14309859276E+02  0.76341472246E+02  0.41800000000E+01 0. -1.
         -5    1    3    3    0  502  0.11627094229E+02 -0.62035613057E+02  0.80766111258E+02  0.10258773677E+03  0.41800000000E+01 0. -1.
        -11    1    1    2    0    0  0.10003843259E+02  0.23509853274E+02 -0.24738109539E+01  0.25669238819E+02  0.00000000000E+00 0.  1.
         11    1    1    2    0    0 -0.89787689837E+02  0.75349059503E+01  0.16598551008E+01  0.90118583949E+02  0.00000000000E+00 0. -1.
</event>
<event>
 7    1  0.3253983E-009  0.8257453E+02  0.7561462E-02  0.1321900E+00
         -2   -1    0    0    0  501 -0.00000000000E+00  0.00000000000E+00  0.61555606613E+02  0.61555606613E+02  0.00000000000E+00 0.  1.
          2   -1    0    0  501    0  0.00000000000E+00 -0.00000000000E+00 -0.28993946568E+03  0.28993946568E+03  0.00000000000E+00 0. -1.
         25    2    1    2    0    0 -0.76183748723E+02  0.55281068146E+01 -0.10963542722E+03  0.18303695941E+03  0.12509227823E+03 0.  0.
          5    1    3    3  502    0 -0.42577346896E+02  0.19952041548E+00  0.21226679607E+02  0.47758921724E+02  0.41800000000E+01 0.  1.
         -5    1    3    3    0  502 -0.33606401827E+02  0.53285863992E+01 -0.13086210683E+03  0.13527803769E+03  0.41800000000E+01 0.  1.
        -11    1    1    2    0    0  0.83713300695E+01 -0.17336359431E+02  0.10569337799E+02  0.21962227277E+02  0.00000000000E+00 0.  1.
         11    1    1    2    0    0  0.67812418654E+02  0.11808252616E+02 -0.12931776964E+03  0.14649588560E+03  0.00000000000E+00 0. -1.
</event>
<event>
 7    1  0.2855090E-009  0.9141931E+02  0.7561462E-02  0.1299451E+00
         -4   -1    0    0    0  501 -0.00000000000E+00  0.00000000000E+00  0.46929445901E+02  0.46929445901E+02  0.00000000000E+00 0. -1.
          4   -1    0    0  501    0  0.00000000000E+00 -0.00000000000E+00 -0.33030663185E+03  0.33030663185E+03  0.00000000000E+00 0.  1.
         25    2    1    2    0    0 -0.15819412067E+02  0.59006958708E+02 -0.15341696974E+03  0.20716272342E+03  0.12509017705E+03 0.  0.
          5    1    3    3  502    0 -0.21058582735E+02  0.75800005073E+02 -0.33030398135E+02  0.85425899333E+02  0.41800000000E+01 0. -1.
         -5    1    3    3    0  502  0.52391706685E+01 -0.16793046365E+02 -0.12038657160E+03  0.12173682408E+03  0.41800000000E+01 0. -1.
        -11    1    1    2    0    0 -0.15405057805E+02 -0.51646932141E+02 -0.12687193410E+03  0.13784487320E+03  0.00000000000E+00 0.  1.
         11    1    1    2    0    0  0.31224469872E+02 -0.73600265674E+01 -0.30882821119E+01  0.32228481135E+02  0.00000000000E+00 0. -1.
</event>
<event>
 6    1  0.2855090E-009  0.1511902E+03  0.7561462E-02  0.1199018E+00
         -2   -1    0    0    0  501 -0.00000000000E+00  0.00000000000E+00  0.40360676434E+03  0.40360676434E+03  0.00000000000E+00 0.  1.
          2   -1    0    0  501    0  0.00000000000E+00 -0.00000000000E+00 -0.72498857781E+02  0.72498857781E+02  0.00000000000E+00 0. -1.
          5    1    1    2  502    0 -0.94970300949E+01 -0.52900129838E+02  0.14633138255E+03  0.15594538543E+03  0.41800000000E+01 0. -1.
         -5    1    1    2    0  502 -0.74120180259E+02 -0.49010687702E+02  0.21859011176E+02  0.91603151694E+02  0.41800000000E+01 0. -1.
        -11    1    1    2    0    0  0.50820250224E+02 -0.16888338397E+01  0.41685482106E+02  0.65751269273E+02  0.00000000000E+00 0.  1.
         11    1    1    2    0    0  0.32796960129E+02  0.10359965138E+03  0.12123203073E+03  0.16280581573E+03  0.00000000000E+00 0. -1.
</event>
<event>
 7    1  0.2855090E-009  0.8598205E+02  0.7561462E-02  0.1312884E+00
         -1   -1    0    0    0  501 -0.00000000000E+00  0.00000000000E+00  0.80582634025E+02  0.80582634025E+02  0.00000000000E+00 0.  1.
          1   -1    0    0  501    0  0.00000000000E+00 -0.00000000000E+00 -0.16884207865E+03  0.16884207865E+03  0.00000000000E+00 0. -1.
         25    2    1    2    0    0 -0.28098189758E+02 -0.29647799066E+02 -0.38845086853E+02  0.13720952770E+03  0.12509601697E+03 0.  0.
          5    1    3    3  502    0  0.27523014044E+02  0.34866873986E+02 -0.23936365299E+02  0.50632372918E+02  0.41800000000E+01 0.  1.
         -5    1    3    3    0  502 -0.55621203802E+02 -0.64514673052E+02 -0.14908721554E+02  0.86577154780E+02  0.41800000000E+01 0.  1.
        -11    1    1    2    0    0  0.11179231836E+02  0.51938411031E+01 -0.73141379644E+02  0.74172856396E+02  0.00000000000E+00 0. -1.
         11    1    1    2    0    0  0.16918957922E+02  0.24453957963E+02  0.23727021870E+02  0.38042328583E+02  0.00000000000E+00 0.  1.
</event>
<event>
 7    1  0.2866472E-009  0.1639877E+03  0.7561462E-02  0.1184267E+00
          2   -1    0    0  501    0  0.00000000000E+00  0.00000000000E+00  0.17381788656E+04  0.17381788656E+04  0.00000000000E+00 0. -1.
         -2   -1    0    0    0  501 -0.00000000000E+00 -0.00000000000E+00 -0.18102621988E+02  0.18102621988E+02  0.00000000000E+00 0.  1.
         25    2    1    2    0    0  0.85254218402E+01  0.12410958608E+03  0.12248695991E+04  0.12375091837E+04  0.12509025876E+03 0.  0.
          5    1    3    3  502    0  0.10896927689E+02 -0.24484317805E+02  0.15431572517E+03  0.15668133356E+03  0.41800000000E+01 0. -1.
         -5    1    3    3    0  502 -0.23715058491E+01  0.14859390388E+03  0.10705538739E+04  0.10808278502E+04  0.41800000000E+01 0. -1.
        -11    1    1    2    0    0  0.37910184307E+02 -0.34522391616E+02  0.12621533382E+03  0.13623247809E+03  0.00000000000E+00 0.  1.
         11    1    1    2    0    0 -0.46435606147E+02 -0.89587194461E+02  0.36899131073E+03  0.38253982580E+03  0.00000000000E+00 0. -1.
</event>
<event>
 7    1  0.2855090E-009  0.1016650E+03  0.7561462E-02  0.1276833E+00
         -1   -1    0    0    0  501 -0.00000000000E+00  0.00000000000E+00  0.99636044216E+02  0.99636044216E+02  0.00000000000E+00 0.  1.
          1   -1    0    0  501    0  0.00000000000E+00 -0.00000000000E+00 -0.24314943796E+03  0.24314943796E+03  0.00000000000E+00 0. -1.
         25    2    1    2    0    0  0.40115864688E+02  0.57849355106E+02 -0.16607305696E+03  0.21947740372E+03  0.12503695458E+03 0.  0.
          5    1    3    3  502    0  0.45075218289E+01 -0.26735640158E+02  0.24471817664E+01  0.27542209539E+02  0.41800000000E+01 0.  1.
         -5    1    3    3    0  502  0.35608342859E+02  0.84584995265E+02 -0.16852023872E+03  0.19193519418E+03  0.41800000000E+01 0.  1.
        -11    1    1    2    0    0 -0.50206455560E+02 -0.43172512928E+02 -0.26342430768E+02  0.71263438811E+02  0.00000000000E+00 0. -1.
         11    1    1    2    0    0  0.10090590872E+02 -0.14676842178E+02  0.48902093980E+02  0.52044639648E+02  0.00000000000E+00 0.  1.
</event>
<event>
 7    1  0.3531890E-009  0.1033289E+03  0.7561462E-02  0.1273447E+00
          3   -1    0    0  501    0  0.00000000000E+00  0.00000000000E+00  0.51089769040E+02  0.51089769040E+02  0.00000000000E+00 0.  1.
         -3   -1    0    0    0  501 -0.00000000000E+00 -0.00000000000E+00 -0.38632430827E+03  0.38632430827E+03  0.00000000000E+00 0. -1.
         25    2    1    2    0    0 -0.65564047771E+02 -0.70496660937E+01 -0.90358572051E+02  0.16780923314E+03  0.12508766938E+03 0.  0.
          5    1    3    3  502    0 -0.59187290249E+02 -0.60705297137E+02 -0.40038274156E+02  0.93855230141E+02  0.41800000000E+01 0.  1.
         -5    1    3    3    0  502 -0.63767575227E+01  0.53655631043E+02 -0.50320297895E+02  0.73954002998E+02  0.41800000000E+01 0.  1.
        -11    1    1    2    0    0  0.18901602350E+02  0.88683514731E+01 -0.58105408276E+00  0.20886738690E+02  0.00000000000E+00 0.  1.
         11    1    1    2    0    0  0.46662445421E+02 -0.18186853794E+01 -0.24429491310E+03  0.24871810548E+03  0.00000000000E+00 0. -1.
</event>
<event>
 7    1  0.2855090E-009  0.3159220E+03  0.7561462E-02  0.1077542E+00
          1   -1    0    0  501    0  0.00000000000E+00  0.00000000000E+00  0.10348219695E+04  0.10348219695E+04  0.00000000000E+00 0. -1.
         -1   -1    0    0    0  501 -0.00000000000E+00 -0.00000000000E+00 -0.12013753132E+03  0.12013753132E+03  0.00000000000E+00 0.  1.
         25    2    1    2    0    0 -0.20312158308E+03 -0.23636011308E+03  0.66767413347E+03  0.74736809199E+03  0.12508331561E+03 0.  0.
          5    1    3    3  502    0 -0.96340217384E+02 -0.16650947516E+03  0.50609542790E+03  0.54143965254E+03  0.41800000000E+01 0.  1.
         -5    1    3    3    0  502 -0.10678136570E+03 -0.69850637917E+02  0.16157870558E+03  0.20592843945E+03  0.41800000000E+01 0.  1.
        -11    1    1    2    0    0  0.44000794343E+02  0.56593989618E+02  0.14014616888E+02  0.73043542152E+02  0.00000000000E+00 0.  1.
         11    1    1    2    0    0  0.15912078874E+03  0.17976612346E+03  0.23299568777E+03  0.33454786664E+03  0.00000000000E+00 0. -1.
</event>
<event>
 7    1  0.2855090E-009  0.9414347E+02  0.7561462E-02  0.1293117E+00
         -3   -1    0    0    0  501 -0.00000000000E+00  0.00000000000E+00  0.53615273919E+03  0.53615273919E+03  0.00000000000E+00 0.  1.
          3   -1    0    0  501    0  0.00000000000E+00 -0.00000000000E+00 -0.24181614256E+02  0.24181614256E+02  0.00000000000E+00 0. -1.
         25    2    1    2    0    0  0.27210221381E+02  0.11501028290E+01  0.34296067018E+03  0.36607555802E+03  0.12509026345E+03 0.  0.
          5    1    3    3  502    0  0.65657294483E+02 -0.68811426209E+01  0.30205092177E+03  0.30920941477E+03  0.41800000000E+01 0. -1.
         -5    1    3    3    0  502 -0.38447073102E+02  0.80312454498E+01  0.40909748411E+02  0.56866143254E+02  0.41800000000E+01 0. -1.
        -11    1    1    2    0    0  0.27590314070E+02  0.25866682000E+01  0.11084750008E+03  0.11425884892E+03  0.00000000000E+00 0.  1.
         11    1    1    2    0    0 -0.54800535451E+02 -0.37367710290E+01  0.58162954682E+02  0.79999946505E+02  0.00000000000E+00 0. -1.
</event>
<event>
 7    1  0.2855090E-009  0.8846710E+02  0.7561462E-02  0.1306607E+00
         -1   -1    0    0    0  501 -0.00000000000E+00  0.00000000000E+00  0.59683244963E+02  0.59683244963E+02  0.00000000000E+00 0.  1.
          1   -1    0    0  501    0  0.00000000000E+00 -0.00000000000E+00 -0.21074481467E+03  0.21074481467E+03  0.00000000000E+00 0. -1.
         25    2    1    2    0    0 -0.14761519888E+02 -0.24386272735E+02 -0.87600250802E+02  0.15534995068E+03  0.12508881032E+03 0.  0.
          5    1    3    3  502    0 -0.12105821029E+01  0.45004583357E+02 -0.34273825357E+01  0.45344210029E+02  0.41800000000E+01 0. -1.
         -5    1    3    3    0  502 -0.13550937785E+02 -0.69390856092E+02 -0.84172868267E+02  0.11000574065E+03  0.41800000000E+01 0. -1.
        -11    1    1    2    0    0 -0.18994258538E+02  0.18716024217E+02 -0.74487932809E+02  0.79117150821E+02  0.00000000000E+00 0. -1.
         11    1    1    2    0    0  0.33755778426E+02  0.56702485181E+01  0.11026613905E+02  0.35960958130E+02  0.00000000000E+00 0.  1.
</event>
<event>
 7    1  0.2855090E-009  0.1603028E+03  0.7561462E-02  0.1188355E+00
          3   -1    0    0  501    0  0.00000000000E+00  0.00000000000E+00  0.51085296691E+03  0.51085296691E+03  0.00000000000E+00 0. -1.
         -3   -1    0    0    0  501 -0.00000000000E+00 -0.00000000000E+00 -0.56887025760E+02  0.56887025760E+02  0.00000000000E+00 0.  1.
         25    2    1    2    0    0 -0.87981133419E+01  0.13028257281E+03  0.21635948250E+03  0.28197422287E+03  0.12508829329E+03 0.  0.
          5    1    3    3  502    0  0.56105025332E+02  0.83280982582E+02  0.12443026232E+03  0.15994954988E+03  0.41800000000E+01 0. -1.
         -5    1    3    3    0  502 -0.64903138673E+02  0.47001590233E+02  0.91929220175E+02  0.12202467298E+03  0.41800000000E+01 0. -1.
        -11    1    1    2    0    0  0.29083976575E+02 -0.59525289293E+02  0.46407916616E+02  0.80887777096E+02  0.00000000000E+00 0.  1.
         11    1    1    2    0    0 -0.20285863233E+02 -0.70757283522E+02  0.19119854204E+03  0.20487799271E+03  0.00000000000E+00 0. -1.
</event>
<event>
 7    1  0.2855090E-009  0.9186705E+02  0.7561462E-02  0.1298392E+00
         -3   -1    0    0    0  501 -0.00000000000E+00  0.00000000000E+00  0.16337026343E+03  0.16337026343E+03  0.00000000000E+00 0.  1.
          3   -1    0    0  501    0  0.00000000000E+00 -0.00000000000E+00 -0.11833678533E+03  0.11833678533E+03  0.00000000000E+00 0. -1.
         25    2    1    2    0    0 -0.14327855583E+02 -0.71482768972E+02 -0.23072477186E+02  0.14661088971E+03  0.12508932837E+03 0.  0.
          5    1    3    3  502    0  0.30369854334E+02 -0.11800227344E+02  0.37933101504E+02  0.50179338451E+02  0.41800000000E+01 0. -1.
         -5    1    3    3    0  502 -0.44697709917E+02 -0.59682541628E+02 -0.61005578690E+02  0.96431551259E+02  0.41800000000E+01 0. -1.
        -11    1    1    2    0    0  0.62753060677E+00  0.53945720520E+02 -0.91314097095E+01  0.54716699465E+02  0.00000000000E+00 0. -1.
         11    1    1    2    0    0  0.13700324976E+02  0.17537048452E+02  0.77237364991E+02  0.80379459588E+02  0.00000000000E+00 0.  1.
</event>
<event>
 7    1  0.2855090E-009  0.9685622E+02  0.7561462E-02  0.1287049E+00
          2   -1    0    0  501    0  0.00000000000E+00  0.00000000000E+00  0.37232136214E+03  0.37232136214E+03  0.00000000000E+00 0. -1.
         -2   -1    0    0    0  501 -0.00000000000E+00 -0.00000000000E+00 -0.42706177383E+02  0.42706177383E+02  0.00000000000E+00 0.  1.
         25    2    1    2    0    0  0.54286935169E+01  0.64086322329E+02  0.19002150057E+03  0.23641413401E+03  0.12508774784E+03 0.  0.
          5    1    3    3  502    0  0.29356551666E+02  0.50061299750E+01 -0.56334934709E+01  0.30595377294E+02  0.41800000000E+01 0. -1.
         -5    1    3    3    0  502 -0.23927858149E+02  0.59080192354E+02  0.19565499404E+03  0.20581875672E+03  0.41800000000E+01 0. -1.
        -11    1    1    2    0    0  0.17246918860E+02  0.11577813020E+02  0.71071809008E+02  0.74045283443E+02  0.00000000000E+00 0. -1.
         11    1    1    2    0    0 -0.22675612377E+02 -0.75664135349E+02  0.68521875182E+02  0.10456812207E+03  0.00000000000E+00 0.  1.
</event>
<event>
 7    1  0.2855090E-009  0.1246893E+03  0.7561462E-02  0.1235556E+00
          2   -1    0    0  501    0  0.00000000000E+00  0.00000000000E+00  0.79223290010E+02  0.79223290010E+02  0.00000000000E+00 0. -1.
         -2   -1    0    0    0  501 -0.00000000000E+00 -0.00000000000E+00 -0.30611433034E+03  0.30611433034E+03  0.00000000000E+00 0.  1.
         25    2    1    2    0    0  0.94967226553E+02 -0.10504010623E+02 -0.50604046001E+02  0.16534124038E+03  0.12509135838E+03 0.  0.
          5    1    3    3  502    0  0.19606338872E+02  0.46799024894E+02  0.11297462836E+02  0.52150381796E+02  0.41800000000E+01 0.  1.
         -5    1    3    3    0  502  0.75360887681E+02 -0.57303035516E+02 -0.61901508838E+02  0.11319085859E+03  0.41800000000E+01 0.  1.
        -11    1    1    2    0    0 -0.15992628599E+02 -0.13745603126E+02  0.41985009645E+01  0.21501934452E+02  0.00000000000E+00 0. -1.
         11    1    1    2    0    0 -0.78974597954E+02  0.24249613749E+02 -0.18048549530E+03  0.19849444552E+03  0.00000000000E+00 0.  1.
</event>
<event>
 7    1  0.2855090E-009  0.1098678E+03  0.7561462E-02  0.1260815E+00
         -2   -1    0    0    0  501 -0.00000000000E+00  0.00000000000E+00  0.48277929705E+03  0.48277929705E+03  0.00000000000E+00 0.  1.
          2   -1    0    0  501    0  0.00000000000E+00 -0.00000000000E+00 -0.42072064245E+02  0.42072064245E+02  0.00000000000E+00 0. -1.
         25    2    1    2    0    0  0.24398538625E+02 -0.67002028182E+02  0.34871498253E+03  0.37727284578E+03  0.12509236847E+03 0.  0.
          5    1    3    3  502    0  0.57810145396E+02 -0.81631174286E+02  0.30005831314E+03  0.31631965670E+03  0.41800000000E+01 0.  1.
         -5    1    3    3    0  502 -0.33411606771E+02  0.14629146104E+02  0.48656669391E+02  0.60953189079E+02  0.41800000000E+01 0.  1.
        -11    1    1    2    0    0 -0.27872371128E+02  0.16714388067E+02 -0.98369159931E+01  0.33955923739E+02  0.00000000000E+00 0. -1.
         11    1    1    2    0    0  0.34738325026E+01  0.50287640114E+02  0.10182916626E+03  0.11362259178E+03  0.00000000000E+00 0.  1.
</event>
<event>
 7    1  0.2855090E-009  0.1096128E+03  0.7561462E-02  0.1261289E+00
          2   -1    0    0  501    0  0.00000000000E+00  0.00000000000E+00  0.62423686569E+03  0.62423686569E+03  0.00000000000E+00 0. -1.
         -2   -1    0    0    0  501 -0.00000000000E+00 -0.00000000000E+00 -0.22588726952E+02  0.22588726952E+02  0.00000000000E+00 0.  1.
         25    2    1    2    0    0 -0.45041022947E+02 -0.16669516466E+02  0.36802378312E+03  0.39165651999E+03  0.12508700246E+03 0.  0.
          5    1    3    3  502    0  0.11023414858E+01 -0.62447161774E+02  0.12154192595E+03  0.13671421043E+03  0.41800000000E+01 0. -1.
         -5    1    3    3    0  502 -0.46143364433E+02  0.45777645308E+02  0.24648185717E+03  0.25494230956E+03  0.41800000000E+01 0. -1.
        -11    1    1    2    0    0  0.33363710780E+02 -0.29093467991E+02  0.56056728353E+02  0.71427752803E+02  0.00000000000E+00 0.  1.
         11    1    1    2    0    0  0.11677312167E+02  0.45762984457E+02  0.17756762727E+03  0.18374131985E+03  0.00000000000E+00 0. -1.
</event>
<event>
 7    1  0.2855090E-009  0.1120412E+03  0.7561462E-02  0.1256836E+00
          1   -1    0    0  501    0  0.00000000000E+00  0.00000000000E+00  0.10115609566E+04  0.10115609566E+04  0.00000000000E+00 0. -1.
         -1   -1    0    0    0  501 -0.00000000000E+00 -0.00000000000E+00 -0.21930649246E+02  0.21930649246E+02  0.00000000000E+00 0.  1.
         25    2    1    2    0    0 -0.76387778732E+02  0.52381744196E+02  0.39151864368E+03  0.42132239778E+03  0.12508706829E+03 0.  0.
          5    1    3    3  502    0 -0.63747802461E+02  0.32953235232E+02  0.74842822293E+02  0.10377195421E+03  0.41800000000E+01 0.  1.
         -5    1    3    3    0  502 -0.12639976272E+02  0.19428508964E+02  0.31667582139E+03  0.31755044357E+03  0.41800000000E+01 0.  1.
        -11    1    1    2    0    0  0.90545813981E+02 -0.63543858250E+02  0.54401208120E+03  0.55514458553E+03  0.00000000000E+00 0. -1.
         11    1    1    2    0    0 -0.14158035249E+02  0.11162114054E+02  0.54099582516E+02  0.57024622583E+02  0.00000000000E+00 0.  1.
</event>
<event>
 7    1  0.2855090E-009  0.7687095E+02  0.7561462E-02  0.1338173E+00
          2   -1    0    0  501    0  0.00000000000E+00  0.00000000000E+00  0.53641693724E+03  0.53641693724E+03  0.00000000000E+00 0. -1.
         -2   -1    0    0    0  501 -0.00000000000E+00 -0.00000000000E+00 -0.28313063751E+02  0.28313063751E+02  0.00000000000E+00 0.  1.
         25    2    1    2    0    0 -0.41086482705E+02  0.37113262683E+02  0.27179138493E+03  0.30427516599E+03  0.12508927368E+03 0.  0.
          5    1    3    3  502    0 -0.54305942197E+02  0.10110780923E+02  0.34958881261E+02  0.65505412202E+02  0.41800000000E+01 0. -1.
         -5    1    3    3    0  502  0.13219459492E+02  0.27002481761E+02  0.23683250367E+03  0.23876975379E+03  0.41800000000E+01 0. -1.
        -11    1    1    2    0    0  0.32393236394E+01 -0.29131752216E+02  0.10165738065E+02  0.31024094431E+02  0.00000000000E+00 0.  1.
         11    1    1    2    0    0  0.37847159066E+02 -0.79815104671E+01  0.22614675050E+03  0.22943074057E+03  0.00000000000E+00 0. -1.
</event>
<event>
 7    1  0.2855090E-009  0.2862570E+03  0.7561462E-02  0.1092320E+00
          1   -1    0    0  501    0  0.00000000000E+00  0.00000000000E+00  0.12259719165E+04  0.12259719165E+04  0.00000000000E+00 0. -1.
         -1   -1    0    0    0  501 -0.00000000000E+00 -0.00000000000E+00 -0.76253510178E+02  0.76253510178E+02  0.00000000000E+00 0.  1.
         25    2    1    2    0    0 -0.26446742742E+02 -0.27938055145E+03  0.47459531772E+03  0.56536900818E+03  0.12509387308E+03 0.  0.
          5    1    3    3  502    0 -0.35657051476E+02 -0.26684641444E+03  0.35949079105E+03  0.44914311246E+03  0.41800000000E+01 0. -1.
         -5    1    3    3    0  502  0.92103087349E+01 -0.12534137013E+02  0.11510452667E+03  0.11622589573E+03  0.41800000000E+01 0. -1.
        -11    1    1    2    0    0 -0.17261152632E+02  0.14062857236E+03  0.41895468668E+03  0.44226391696E+03  0.00000000000E+00 0.  1.
         11    1    1    2    0    0  0.43707895374E+02  0.13875197909E+03  0.25616840196E+03  0.29459250157E+03  0.00000000000E+00 0. -1.
</event>
<event>
 7    1  0.2855090E-009  0.1844583E+03  0.7561462E-02  0.1163557E+00
         -1   -1    0    0    0  501 -0.00000000000E+00  0.00000000000E+00  0.33496118219E+02  0.33496118219E+02  0.00000000000E+00 0.  1.
          1   -1    0    0  501    0  0.00000000000E+00 -0.00000000000E+00 -0.11581880678E+04  0.11581880678E+04  0.00000000000E+00 0. -1.
         25    2    1    2    0    0 -0.16267132562E+03 -0.17177374377E+02 -0.64879182280E+03  0.68068736937E+03  0.12508974030E+03 0.  0.
          5    1    3    3  502    0 -0.85820995290E+02 -0.54660674129E+02 -0.48815118089E+03  0.49866028550E+03  0.41800000000E+01 0. -1.
         -5    1    3    3    0  502 -0.76850330333E+02  0.37483299752E+02 -0.16064064190E+03  0.18202708387E+03  0.41800000000E+01 0. -1.
        -11    1    1    2    0    0  0.66521469906E+02  0.46256974848E+02 -0.15737276664E+03  0.17700565347E+03  0.00000000000E+00 0.  1.
         11    1    1    2    0    0  0.96149855718E+02 -0.29079600471E+02 -0.31852736015E+03  0.33399116318E+03  0.00000000000E+00 0. -1.
</event>
<event>
 7    1  0.2855090E-009  0.1698547E+03  0.7561462E-02  0.1177999E+00
         -2   -1    0    0    0  501 -0.00000000000E+00  0.00000000000E+00  0.37692323452E+02  0.37692323452E+02  0.00000000000E+00 0.  1.
          2   -1    0    0  501    0  0.00000000000E+00 -0.00000000000E+00 -0.93454692604E+03  0.93454692604E+03  0.00000000000E+00 0. -1.
         25    2    1    2    0    0  0.13389899361E+03 -0.29747799084E+01 -0.28052274849E+03  0.33508082566E+03  0.12509339512E+03 0.  0.
          5    1    3    3  502    0  0.49587078840E+02 -0.58774797398E+02 -0.16103212938E+03  0.17849978792E+03  0.41800000000E+01 0. -1.
         -5    1    3    3    0  502  0.84311914769E+02  0.55800017489E+02 -0.11949061911E+03  0.15658103774E+03  0.41800000000E+01 0. -1.
        -11    1    1    2    0    0 -0.72929434407E+02 -0.43434146361E+02 -0.33305292131E+03  0.34369968849E+03  0.00000000000E+00 0.  1.
         11    1    1    2    0    0 -0.60969559201E+02  0.46408926269E+02 -0.28327893280E+03  0.29345873535E+03  0.00000000000E+00 0. -1.
</event>
<event>
 7    1  0.2855090E-009  0.2269198E+03  0.7561462E-02  0.1128827E+00
          2   -1    0    0  501    0  0.00000000000E+00  0.00000000000E+00  0.91555948567E+03  0.91555948567E+03  0.00000000000E+00 0. -1.
         -2   -1    0    0    0  501 -0.00000000000E+00 -0.00000000000E+00 -0.68482025120E+02  0.68482025120E+02  0.00000000000E+00 0.  1.
         25    2    1    2    0    0  0.19823760527E+03 -0.87204239896E+02  0.31237857766E+03  0.40016387773E+03  0.12509206873E+03 0.  0.
          5    1    3    3  502    0  0.10213690539E+03 -0.14653894143E+02  0.57389021571E+02  0.11814252517E+03  0.41800000000E+01 0.  1.
         -5    1    3    3    0  502  0.96100699885E+02 -0.72550345753E+02  0.25498955609E+03  0.28202135256E+03  0.41800000000E+01 0.  1.
        -11    1    1    2    0    0 -0.16262321820E+03  0.34120004925E+02  0.43263860978E+03  0.46345080915E+03  0.00000000000E+00 0. -1.
         11    1    1    2    0    0 -0.35614387077E+02  0.53084234972E+02  0.10206027311E+03  0.12042682391E+03  0.00000000000E+00 0.  1.
</event>
<event>
 7    1  0.2855090E-009  0.9951667E+02  0.7561462E-02  0.1281316E+00
         -1   -1    0    0    0  501 -0.00000000000E+00  0.00000000000E+00  0.12329795363E+02  0.12329795363E+02  0.00000000000E+00 0.  1.
          1   -1    0    0  501    0  0.00000000000E+00 -0.00000000000E+00 -0.99867397340E+03  0.99867397340E+03  0.00000000000E+00 0. -1.
         25    2    1    2    0    0  0.55151493180E+01 -0.21540456500E+02 -0.65860359232E+03  0.67074726657E+03  0.12509514645E+03 0.  0.
          5    1    3    3  502    0 -0.34907217610E+02  0.28647229023E+02 -0.11995363578E+03  0.12824010569E+03  0.41800000000E+01 0.  1.
         -5    1    3    3    0  502  0.40422366928E+02 -0.50187685523E+02 -0.53864995654E+03  0.54250716088E+03  0.41800000000E+01 0.  1.
        -11    1    1    2    0    0  0.87871723194E+01  0.53434160956E+02 -0.16008348301E+03  0.16899451319E+03  0.00000000000E+00 0.  1.
         11    1    1    2    0    0 -0.14302321637E+02 -0.31893704455E+02 -0.16765710271E+03  0.17126198900E+03  0.00000000000E+00 0. -1.
</event>
<event>
 7    1  0.2855090E-009  0.9543038E+02  0.7561462E-02  0.1290210E+00
          1   -1    0    0  501    0  0.00000000000E+00  0.00000000000E+00  0.36293626453E+02  0.36293626453E+02  0.00000000000E+00 0. -1.
         -1   -1    0    0    0  501 -0.00000000000E+00 -0.00000000000E+00 -0.43943378723E+03  0.43943378723E+03  0.00000000000E+00 0.  1.
         25    2    1    2    0    0 -0.52164899727E+02  0.34218793289E+02 -0.19174787333E+03  0.23731118877E+03  0.12512893676E+03 0.  0.
          5    1    3    3  502    0  0.23517133713E+02  0.37455874635E+01 -0.13665307328E+03  0.13877542952E+03  0.41800000000E+01 0. -1.
         -5    1    3    3    0  502 -0.75682033440E+02  0.30473205825E+02 -0.55094800050E+02  0.98535759252E+02  0.41800000000E+01 0. -1.
        -11    1    1    2    0    0  0.16538146648E+02 -0.44856772817E+02 -0.18913196656E+03  0.19508085795E+03  0.00000000000E+00 0.  1.
         11    1    1    2    0    0  0.35626753079E+02  0.10637979529E+02 -0.22260320888E+02  0.43335366958E+02  0.00000000000E+00 0. -1.
</event>
<event>
 7    1  0.2855090E-009  0.1383944E+03  0.7561462E-02  0.1215506E+00
          2   -1    0    0  501    0  0.00000000000E+00  0.00000000000E+00  0.18051636788E+04  0.18051636788E+04  0.00000000000E+00 0. -1.
         -2   -1    0    0    0  501 -0.00000000000E+00 -0.00000000000E+00 -0.11226238419E+02  0.11226238419E+02  0.00000000000E+00 0.  1.
         25    2    1    2    0    0 -0.82741895972E+02 -0.21757313576E+02  0.11731512347E+04  0.11828997764E+04  0.12509380269E+03 0.  0.
          5    1    3    3  502    0 -0.96048548232E+02  0.27094535622E+02  0.83511386447E+03  0.84106603576E+03  0.41800000000E+01 0. -1.
         -5    1    3    3    0  502  0.13306652260E+02 -0.48851849199E+02  0.33803737025E+03  0.34183374066E+03  0.41800000000E+01 0. -1.
        -11    1    1    2    0    0  0.76129084449E+01  0.46409764735E+02  0.24562427100E+03  0.25008619543E+03  0.00000000000E+00 0.  1.
         11    1    1    2    0    0  0.75128987527E+02 -0.24652451159E+02  0.37516193466E+03  0.38340394538E+03  0.00000000000E+00 0. -1.
</event>
<event>
 7    1  0.2855090E-009  0.1602555E+03  0.7561462E-02  0.1188409E+00
         -1   -1    0    0    0  501 -0.00000000000E+00  0.00000000000E+00  0.18889276763E+03  0.18889276763E+03  0.00000000000E+00 0.  1.
          1   -1    0    0  501    0  0.00000000000E+00 -0.00000000000E+00 -0.18191911254E+03  0.18191911254E+03  0.00000000000E+00 0. -1.
         25    2    1    2    0    0 -0.13045887300E+03 -0.15458826726E+02 -0.67453243835E+02  0.19353497571E+03  0.12508938344E+03 0.  0.
          5    1    3    3  502    0  0.10574507871E+02  0.11626206422E+02 -0.45344418425E+02  0.48172373564E+02  0.41800000000E+01 0. -1.
         -5    1    3    3    0  502 -0.14103338087E+03 -0.27085033148E+02 -0.22108825410E+02  0.14536260215E+03  0.41800000000E+01 0. -1.
        -11    1    1    2    0    0  0.34848601679E+02  0.48233619444E+02  0.22226472039E+02  0.63521044882E+02  0.00000000000E+00 0. -1.
         11    1    1    2    0    0  0.95610271324E+02 -0.32774792718E+02  0.52200426889E+02  0.11375585958E+03  0.00000000000E+00 0.  1.
</event>
<event>
 7    1  0.3127014E-009  0.9025303E+02  0.7561462E-02  0.1302240E+00
         -1   -1    0    0    0  501 -0.00000000000E+00  0.00000000000E+00  0.35933494448E+02  0.35933494448E+02  0.00000000000E+00 0.  1.
          1   -1    0    0  501    0  0.00000000000E+00 -0.00000000000E+00 -0.62880189936E+03  0.62880189936E+03  0.00000000000E+00 0. -1.
         25    2    1    2    0    0 -0.42939723113E+02  0.16764667040E+02 -0.52358220944E+03  0.54029658375E+03  0.12512871168E+03 0.  0.
          5    1    3    3  502    0 -0.67155040728E+02  0.53175135071E+02 -0.28196263128E+03  0.29471646089E+03  0.41800000000E+01 0. -1.
         -5    1    3    3    0  502  0.24215317615E+02 -0.36410468031E+02 -0.24161957817E+03  0.24558012286E+03  0.41800000000E+01 0. -1.
        -11    1    1    2    0    0  0.98667503088E+01 -0.14669933045E+02 -0.85666870083E+02  0.87472123142E+02  0.00000000000E+00 0. -1.
         11    1    1    2    0    0  0.33072972804E+02 -0.20947339952E+01  0.16380674615E+02  0.36966686915E+02  0.00000000000E+00 0.  1.
</event>
<event>
 7    1  0.2855090E-009  0.1444829E+03  0.7561462E-02  0.1207421E+00
          1   -1    0    0  501    0  0.00000000000E+00  0.00000000000E+00  0.95196193982E+02  0.95196193982E+02  0.00000000000E+00 0. -1.
         -1   -1    0    0    0  501 -0.00000000000E+00 -0.00000000000E+00 -0.30670577634E+03  0.30670577634E+03  0.00000000000E+00 0.  1.
         25    2    1    2    0    0  0.10242700284E+03 -0.39790224339E+02 -0.27462213682E+02  0.16874864417E+03  0.12508948343E+03 0.  0.
          5    1    3    3  502    0  0.85046312686E+02 -0.80408005331E+02 -0.38022250240E+02  0.12313198827E+03  0.41800000000E+01 0.  1.
         -5    1    3    3    0  502  0.17380690151E+02  0.40617780992E+02  0.10560036558E+02  0.45616655893E+02  0.41800000000E+01 0.  1.
        -11    1    1    2    0    0 -0.69236112277E+02 -0.75616961754E+01 -0.15162989173E+03  0.16686054824E+03  0.00000000000E+00 0.  1.
         11    1    1    2    0    0 -0.33190890560E+02  0.47351920515E+02 -0.32417476946E+02  0.66292777919E+02  0.00000000000E+00 0. -1.
</event>
<event>
 7    1  0.2855090E-009  0.2137814E+03  0.7561462E-02  0.1138606E+00
         -2   -1    0    0    0  501 -0.00000000000E+00  0.00000000000E+00  0.18839791458E+03  0.18839791458E+03  0.00000000000E+00 0.  1.
          2   -1    0    0  501    0  0.00000000000E+00 -0.00000000000E+00 -0.44652918453E+03  0.44652918453E+03  0.00000000000E+00 0. -1.
         25    2    1    2    0    0 -0.82498231555E+02 -0.17619490206E+03  0.71102332521E+02  0.24198001658E+03  0.12509270568E+03 0.  0.
          5    1    3    3  502    0 -0.10458556603E+03 -0.18004863235E+03  0.67241517625E+02  0.21884822303E+03  0.41800000000E+01 0. -1.
         -5    1    3    3    0  502  0.22087334471E+02  0.38537302910E+01  0.38608148962E+01  0.23131793551E+02  0.41800000000E+01 0. -1.
        -11    1    1    2    0    0  0.52938283731E+02  0.14053224820E+03 -0.30657883734E+03  0.34138300803E+03  0.00000000000E+00 0.  1.
         11    1    1    2    0    0  0.29559947823E+02  0.35662653857E+02 -0.22654765123E+02  0.51564074492E+02  0.00000000000E+00 0. -1.
</event>
<event>
 7    1  0.2855090E-009  0.1032029E+03  0.7561462E-02  0.1273701E+00
         -2   -1    0    0    0  501 -0.00000000000E+00  0.00000000000E+00  0.15002937453E+03  0.15002937453E+03  0.00000000000E+00 0. -1.
          2   -1    0    0  501    0  0.00000000000E+00 -0.00000000000E+00 -0.12256625132E+03  0.12256625132E+03  0.00000000000E+00 0.  1.
         25    2    1    2    0    0  0.69689888025E+02  0.41711568880E+02  0.65581379957E+01  0.14929383107E+03  0.12509637624E+03 0.  0.
          5    1    3    3  502    0  0.25742214034E+02 -0.29679386361E+02 -0.37520265717E+02  0.54486423058E+02  0.41800000000E+01 0. -1.
         -5    1    3    3    0  502  0.43947673991E+02  0.71390955241E+02  0.44078403713E+02  0.94807408009E+02  0.41800000000E+01 0. -1.
        -11    1    1    2    0    0 -0.32786854736E+02 -0.29451744027E+02  0.55764606587E+02  0.71077946070E+02  0.00000000000E+00 0. -1.
         11    1    1    2    0    0 -0.36903033289E+02 -0.12259824853E+02 -0.34859621374E+02  0.52223848706E+02  0.00000000000E+00 0.  1.
</event>
<event>
 7    1  0.2855090E-009  0.1340544E+03  0.7561462E-02  0.1221561E+00
         -2   -1    0    0    0  501 -0.00000000000E+00  0.00000000000E+00  0.21794329993E+02  0.21794329993E+02  0.00000000000E+00 0.  1.
          2   -1    0    0  501    0  0.00000000000E+00 -0.00000000000E+00 -0.11611573277E+04  0.11611573277E+04  0.00000000000E+00 0. -1.
         25    2    1    2    0    0  0.54934017000E+02 -0.97669180318E+02 -0.50624134656E+03  0.53337093462E+03  0.12508892008E+03 0.  0.
          5    1    3    3  502    0  0.98139935760E+01  0.43667923343E+01  0.31009753564E+01  0.11936154882E+02  0.41800000000E+01 0. -1.
         -5    1    3    3    0  502  0.45120023424E+02 -0.10203597265E+03 -0.50934232192E+03  0.52143477974E+03  0.41800000000E+01 0. -1.
        -11    1    1    2    0    0 -0.55498187649E+02  0.89484901841E+01 -0.26826241735E+03  0.27408912579E+03  0.00000000000E+00 0. -1.
         11    1    1    2    0    0  0.56417064947E+00  0.88720690134E+02 -0.36485923377E+03  0.37549159726E+03  0.00000000000E+00 0.  1.
</event>
<event>
 7    1  0.2855090E-009  0.1526298E+03  0.7561462E-02  0.1197278E+00
         -1   -1    0    0    0  501 -0.00000000000E+00  0.00000000000E+00  0.54427541774E+02  0.54427541774E+02  0.00000000000E+00 0.  1.
          1   -1    0    0  501    0  0.00000000000E+00 -0.00000000000E+00 -0.62031778185E+03  0.62031778185E+03  0.00000000000E+00 0. -1.
         25    2    1    2    0    0 -0.39666473160E+02  0.10703914206E+03 -0.47289415692E+03  0.50230218740E+03  0.12509115391E+03 0.  0.
          5    1    3    3  502    0 -0.80220570010E+02  0.45658455566E+02 -0.31083029855E+03  0.32427300429E+03  0.41800000000E+01 0.  1.
         -5    1    3    3    0  502  0.40554096850E+02  0.61380686493E+02 -0.16206385838E+03  0.17802918311E+03  0.41800000000E+01 0.  1.
        -11    1    1    2    0    0 -0.23968356264E+02 -0.40812893690E+02 -0.94075100607E+01  0.48256353353E+02  0.00000000000E+00 0. -1.
         11    1    1    2    0    0  0.63634829424E+02 -0.66226248369E+02 -0.83588573089E+02  0.12418678287E+03  0.00000000000E+00 0.  1.
</event>
<event>
 7    1  0.2855090E-009  0.1064276E+03  0.7561462E-02  0.1267332E+00
          2   -1    0    0  501    0  0.00000000000E+00  0.00000000000E+00  0.22618151844E+03  0.22618151844E+03  0.00000000000E+00 0. -1.
         -2   -1    0    0    0  501 -0.00000000000E+00 -0.00000000000E+00 -0.70017214088E+02  0.70017214088E+02  0.00000000000E+00 0.  1.
         25    2    1    2    0    0  0.38336768334E+02  0.51605492870E+02  0.79218032754E+02  0.16141633618E+03  0.12508757800E+03 0.  0.
          5    1    3    3  502    0  0.59189695785E+02 -0.58162965297E+01  0.80493215991E+02  0.10016925483E+03  0.41800000000E+01 0. -1.
         -5    1    3    3    0  502 -0.20852927451E+02  0.57421789400E+02 -0.12751832369E+01  0.61247081346E+02  0.41800000000E+01 0. -1.
        -11    1    1    2    0    0  0.10141359604E+02  0.95707137250E+01 -0.10582429259E+02  0.17505243353E+02  0.00000000000E+00 0.  1.
         11    1    1    2    0    0 -0.48478127938E+02 -0.61176206595E+02  0.87528700855E+02  0.11727715300E+03  0.00000000000E+00 0. -1.
</event>
<event>
 7    1  0.2855090E-009  0.1173946E+03  0.7561462E-02  0.1247458E+00
         -1   -1    0    0    0  501 -0.00000000000E+00  0.00000000000E+00  0.16976113255E+03  0.16976113255E+03  0.00000000000E+00 0.  1.
          1   -1    0    0  501    0  0.00000000000E+00 -0.00000000000E+00 -0.16996094287E+03  0.16996094287E+03  0.00000000000E+00 0. -1.
         25    2    1    2    0    0  0.78862298001E+02  0.33581770321E+02  0.96499197354E+02  0.17974286958E+03  0.12509359189E+03 0.  0.
          5    1    3    3  502    0 -0.24891138039E+02 -0.37572540520E+01  0.57153036514E+02  0.62590955366E+02  0.41800000000E+01 0. -1.
         -5    1    3    3    0  502  0.10375343604E+03  0.37339024374E+02  0.39346160840E+02  0.11715191421E+03  0.41800000000E+01 0. -1.
        -11    1    1    2    0    0 -0.43156533342E+02 -0.44098346437E+02 -0.60649719990E+01  0.61999471078E+02  0.00000000000E+00 0.  1.
         11    1    1    2    0    0 -0.35705764659E+02  0.10516576115E+02 -0.90634035669E+02  0.97979734765E+02  0.00000000000E+00 0. -1.
</event>
<event>
 7    1  0.3720641E-009  0.1165079E+03  0.7561462E-02  0.1248972E+00
          2   -1    0    0  501    0  0.00000000000E+00  0.00000000000E+00  0.67382899014E+03  0.67382899014E+03  0.00000000000E+00 0. -1.
         -2   -1    0    0    0  501 -0.00000000000E+00 -0.00000000000E+00 -0.26673440931E+02  0.26673440931E+02  0.00000000000E+00 0.  1.
         25    2    1    2    0    0 -0.26899328530E+02  0.71657013146E+02  0.40387841315E+03  0.42968091431E+03  0.12509841769E+03 0.  0.
          5    1    3    3  502    0  0.26542930550E+02 -0.18877372450E+02  0.17118462983E+03  0.17430585832E+03  0.41800000000E+01 0.  1.
         -5    1    3    3    0  502 -0.53442259080E+02  0.90534385595E+02  0.23269378332E+03  0.25537505600E+03  0.41800000000E+01 0.  1.
        -11    1    1    2    0    0 -0.15815023266E+02 -0.36005755554E+02  0.27501163925E+02  0.47987950687E+02  0.00000000000E+00 0.  1.
         11    1    1    2    0    0  0.42714351796E+02 -0.35651257592E+02  0.21577597214E+03  0.22283356607E+03  0.00000000000E+00 0. -1.
</event>
<event>
 7    1  0.2855090E-009  0.1052674E+03  0.7561462E-02  0.1269594E+00
         -1   -1    0    0    0  501 -0.00000000000E+00  0.00000000000E+00  0.29841178815E+02  0.29841178815E+02  0.00000000000E+00 0.  1.
          1   -1    0    0  501    0  0.00000000000E+00 -0.00000000000E+00 -0.56977857972E+03  0.56977857972E+03  0.00000000000E+00 0. -1.
         25    2    1    2    0    0  0.36614520885E+02  0.57580989050E+02 -0.36758384335E+03  0.39423505963E+03  0.12508879611E+03 0.  0.
          5    1    3    3  502    0  0.45232532565E+02 -0.29739839071E+02 -0.15405736918E+03  0.16334498899E+03  0.41800000000E+01 0.  1.
         -5    1    3    3    0  502 -0.86180116806E+01  0.87320828122E+02 -0.21352647417E+03  0.23089007064E+03  0.41800000000E+01 0.  1.
        -11    1    1    2    0    0 -0.12420607261E+02 -0.23775867532E+02  0.12691214606E+01  0.26854683594E+02  0.00000000000E+00 0.  1.
         11    1    1    2    0    0 -0.24193913624E+02 -0.33805121519E+02 -0.17362267902E+03  0.17853001531E+03  0.00000000000E+00 0. -1.
</event>
<event>
 7    1  0.2855090E-009  0.1290124E+03  0.7561462E-02  0.1228929E+00
         -1   -1    0    0    0  501 -0.00000000000E+00  0.00000000000E+00  0.16367309683E+02  0.16367309683E+02  0.00000000000E+00 0.  1.
          1   -1    0    0  501    0  0.00000000000E+00 -0.00000000000E+00 -0.13839018938E+04  0.13839018938E+04  0.00000000000E+00 0. -1.
         25    2    1    2    0    0 -0.91999331501E+02  0.43856296532E+02 -0.82096221079E+03  0.83666783190E+03  0.12508740005E+03 0.  0.
          5    1    3    3  502    0 -0.48328135324E+02  0.60304804334E+02 -0.20823877892E+03  0.22215566510E+03  0.41800000000E+01 0. -1.
         -5    1    3    3    0  502 -0.43671196177E+02 -0.16448507802E+02 -0.61272343187E+03  0.61451216680E+03  0.41800000000E+01 0. -1.
        -11    1    1    2    0    0  0.51501817261E+02  0.22370723624E+02 -0.29604021937E+03  0.30131826686E+03  0.00000000000E+00 0. -1.
         11    1    1    2    0    0  0.40497514241E+02 -0.66227020156E+02 -0.25053215396E+03  0.26228310473E+03  0.00000000000E+00 0.  1.
</event>
<event>
 7    1  0.2855090E-009  0.6951688E+02  0.7561462E-02  0.1361744E+00
         -1   -1    0    0    0  501 -0.00000000000E+00  0.00000000000E+00  0.15201691155E+03  0.15201691155E+03  0.00000000000E+00 0.  1.
          1   -1    0    0  501    0  0.00000000000E+00 -0.00000000000E+00 -0.86052901994E+02  0.86052901994E+02  0.00000000000E+00 0. -1.
         25    2    1    2    0    0 -0.21560402104E+02  0.31328925417E+02  0.22106115864E+02  0.13259540898E+03  0.12508600888E+03 0.  0.
          5    1    3    3  502    0 -0.20936877359E+02  0.61502138281E+02  0.56817444861E+02  0.86409260425E+02  0.41800000000E+01 0. -1.
         -5    1    3    3    0  502 -0.62352474473E+00 -0.30173212864E+02 -0.34711328998E+02  0.46186148556E+02  0.41800000000E+01 0. -1.
        -11    1    1    2    0    0  0.17528214715E+02 -0.71167999004E+01 -0.25585958716E+02  0.31820251968E+02  0.00000000000E+00 0. -1.
         11    1    1    2    0    0  0.40321873893E+01 -0.24212125517E+02  0.69443852403E+02  0.73654152590E+02  0.00000000000E+00 0.  1.
</event>
<event>
 7    1  0.2855090E-009  0.1524915E+03  0.7561462E-02  0.1197444E+00
          2   -1    0    0  501    0  0.00000000000E+00  0.00000000000E+00  0.14582756769E+03  0.14582756769E+03  0.00000000000E+00 0. -1.
         -2   -1    0    0    0  501 -0.00000000000E+00 -0.00000000000E+00 -0.22977303239E+03  0.22977303239E+03  0.00000000000E+00 0.  1.
         25    2    1    2    0    0 -0.56436274398E+02 -0.12255305483E+03 -0.10408968027E+03  0.21140898695E+03  0.12511911887E+03 0.  0.
          5    1    3    3  502    0  0.40484790638E+01  0.40212010876E+01  0.21772815903E+02  0.22892971700E+02  0.41800000000E+01 0. -1.
         -5    1    3    3    0  502 -0.60484753462E+02 -0.12657425591E+03 -0.12586249618E+03  0.18851601525E+03  0.41800000000E+01 0. -1.
        -11    1    1    2    0    0  0.31978173018E+02 -0.62185840187E+00 -0.12659028914E+02  0.34398274237E+02  0.00000000000E+00 0.  1.
         11    1    1    2    0    0  0.24458101380E+02  0.12317491323E+03  0.32803244482E+02  0.12979333889E+03  0.00000000000E+00 0. -1.
</event>
<event>
 7    1  0.2855090E-009  0.1112649E+03  0.7561462E-02  0.1258245E+00
         -2   -1    0    0    0  501 -0.00000000000E+00  0.00000000000E+00  0.14373157713E+02  0.14373157713E+02  0.00000000000E+00 0. -1.
          2   -1    0    0  501    0  0.00000000000E+00 -0.00000000000E+00 -0.10851584068E+04  0.10851584068E+04  0.00000000000E+00 0.  1.
         25    2    1    2    0    0  0.24169858927E+02 -0.27165846742E+02 -0.80309739974E+03  0.81359410439E+03  0.12509103852E+03 0.  0.
          5    1    3    3  502    0  0.41645525551E+02 -0.69279759130E+02 -0.41626704199E+03  0.42406338851E+03  0.41800000000E+01 0. -1.
         -5    1    3    3    0  502 -0.17475666625E+02  0.42113912388E+02 -0.38683035774E+03  0.38953071588E+03  0.41800000000E+01 0. -1.
        -11    1    1    2    0    0 -0.27892118774E+02 -0.28578046610E+02 -0.70896626330E+02  0.81369568408E+02  0.00000000000E+00 0. -1.
         11    1    1    2    0    0  0.37222598476E+01  0.55743893352E+02 -0.19679122302E+03  0.20456789172E+03  0.00000000000E+00 0.  1.
</event>
<event>
 7    1  0.2855090E-009  0.1767816E+03  0.7561462E-02  0.1170955E+00
         -1   -1    0    0    0  501 -0.00000000000E+00  0.00000000000E+00  0.13629568587E+03  0.13629568587E+03  0.00000000000E+00 0.  1.
          1   -1    0    0  501    0  0.00000000000E+00 -0.00000000000E+00 -0.33925289919E+03  0.33925289919E+03  0.00000000000E+00 0. -1.
         25    2    1    2    0    0  0.13484285160E+03 -0.61338299110E+02  0.16429151783E+02  0.19457793774E+03  0.12508267370E+03 0.  0.
          5    1    3    3  502    0  0.10274597991E+03 -0.98767234097E+02  0.23785334152E+02  0.14455074347E+03  0.41800000000E+01 0.  1.
         -5    1    3    3    0  502  0.32096871693E+02  0.37428934987E+02 -0.73561823689E+01  0.50027194262E+02  0.41800000000E+01 0.  1.
        -11    1    1    2    0    0 -0.60131804303E+02 -0.66314194522E+01 -0.32838196298E+02  0.68834270163E+02  0.00000000000E+00 0.  1.
         11    1    1    2    0    0 -0.74711047297E+02  0.67969718562E+02 -0.18654816880E+03  0.21213637716E+03  0.00000000000E+00 0. -1.
</event>
<event>
 7    1  0.2855090E-009  0.9159693E+02  0.7561462E-02  0.1299030E+00
          1   -1    0    0  501    0  0.00000000000E+00  0.00000000000E+00  0.35895023259E+03  0.35895023259E+03  0.00000000000E+00 0. -1.
         -1   -1    0    0    0  501 -0.00000000000E+00 -0.00000000000E+00 -0.52234400563E+02  0.52234400563E+02  0.00000000000E+00 0.  1.
         25    2    1    2    0    0  0.45982362072E+02 -0.48761616602E+02  0.25457825970E+03  0.29146245355E+03  0.12509276016E+03 0.  0.
          5    1    3    3  502    0 -0.12825941310E+02  0.18366941515E+02  0.15901708199E+03  0.16064169470E+03  0.41800000000E+01 0. -1.
         -5    1    3    3    0  502  0.58808303382E+02 -0.67128558117E+02  0.95561177707E+02  0.13082075885E+03  0.41800000000E+01 0. -1.
        -11    1    1    2    0    0 -0.23703998732E+02  0.41206415883E+02 -0.13974603979E+02  0.49549347343E+02  0.00000000000E+00 0.  1.
         11    1    1    2    0    0 -0.22278363340E+02  0.75552007193E+01  0.66112176309E+02  0.70172832259E+02  0.00000000000E+00 0. -1.
</event>
<event>
 7    1  0.2855090E-009  0.1566106E+03  0.7561462E-02  0.1192577E+00
         -1   -1    0    0    0  501 -0.00000000000E+00  0.00000000000E+00  0.16215654535E+03  0.16215654535E+03  0.00000000000E+00 0.  1.
          1   -1    0    0  501    0  0.00000000000E+00 -0.00000000000E+00 -0.17198940881E+03  0.17198940881E+03  0.00000000000E+00 0. -1.
         25    2    1    2    0    0  0.12182201452E+03 -0.32850806254E+02 -0.16580018554E+02  0.17844496228E+03  0.12509168181E+03 0.  0.
          5    1    3    3  502    0  0.47870746225E+02  0.41897454236E+02 -0.33248018768E+02  0.71902073459E+02  0.41800000000E+01 0.  1.
         -5    1    3    3    0  502  0.73951268290E+02 -0.74748260490E+02  0.16668000214E+02  0.10654288883E+03  0.41800000000E+01 0.  1.
        -11    1    1    2    0    0 -0.75802501451E+02  0.54518346971E+02  0.32270865455E+02  0.98791083302E+02  0.00000000000E+00 0.  1.
         11    1    1    2    0    0 -0.46019513065E+02 -0.21667540717E+02 -0.25523710359E+02  0.56909908574E+02  0.00000000000E+00 0. -1.
</event>
<event>
 7    1  0.2855090E-009  0.9517074E+02  0.7561462E-02  0.1290792E+00
         -1   -1    0    0    0  501 -0.00000000000E+00  0.00000000000E+00  0.31732462113E+03  0.31732462113E+03  0.00000000000E+00 0.  1.
          1   -1    0    0  501    0  0.00000000000E+00 -0.00000000000E+00 -0.48805938866E+02  0.48805938866E+02  0.00000000000E+00 0. -1.
         25    2    1    2    0    0  0.46411744146E+02  0.16617880422E+02  0.95153423001E+02  0.16472146362E+03  0.12509509472E+03 0.  0.
          5    1    3    3  502    0  0.52297967393E+02 -0.19761236431E+02  0.11102710807E+03  0.12437875616E+03  0.41800000000E+01 0. -1.
         -5    1    3    3    0  502 -0.58862232472E+01  0.36379116853E+02 -0.15873685066E+02  0.40342707454E+02  0.41800000000E+01 0. -1.
        -11    1    1    2    0    0 -0.41387502171E+01  0.32284692334E+02  0.30523687630E+02  0.44622036249E+02  0.00000000000E+00 0.  1.
         11    1    1    2    0    0 -0.42272993929E+02 -0.48902572757E+02  0.14284157163E+03  0.15678706013E+03  0.00000000000E+00 0. -1.
</event>
<event>
 7    1  0.2855090E-009  0.1177480E+03  0.7561462E-02  0.1246859E+00
          4   -1    0    0  501    0  0.00000000000E+00  0.00000000000E+00  0.68414144379E+02  0.68414144379E+02  0.00000000000E+00 0. -1.
         -4   -1    0    0    0  501 -0.00000000000E+00 -0.00000000000E+00 -0.26516299086E+03  0.26516299086E+03  0.00000000000E+00 0.  1.
         25    2    1    2    0    0 -0.75747451063E+02  0.20670009723E+02 -0.12404300806E+03  0.19287025639E+03  0.12508933730E+03 0.  0.
          5    1    3    3  502    0 -0.96798046678E+02 -0.22488132064E+02 -0.81845235676E+02  0.12880874554E+03  0.41800000000E+01 0. -1.
         -5    1    3    3    0  502  0.21050595615E+02  0.43158141787E+02 -0.42197772385E+02  0.64061510851E+02  0.41800000000E+01 0. -1.
        -11    1    1    2    0    0  0.24197150335E+02  0.11786997438E+02 -0.75064597083E+02  0.79744147925E+02  0.00000000000E+00 0.  1.
         11    1    1    2    0    0  0.51550300728E+02 -0.32457007161E+02  0.23587586669E+01  0.60962730922E+02  0.00000000000E+00 0. -1.
</event>
<event>
 7    1  0.2855090E-009  0.2286100E+03  0.7561462E-02  0.1127622E+00
         -2   -1    0    0    0  501 -0.00000000000E+00  0.00000000000E+00  0.92320985283E+02  0.92320985283E+02  0.00000000000E+00 0.  1.
          2   -1    0    0  501    0  0.00000000000E+00 -0.00000000000E+00 -0.60799470998E+03  0.60799470998E+03  0.00000000000E+00 0. -1.
         25    2    1    2    0    0 -0.81227964755E+02  0.19289266685E+03 -0.24304301018E+03  0.34427260198E+03  0.12509259168E+03 0.  0.
          5    1    3    3  502    0 -0.49497774482E+02  0.19287098998E+02 -0.14001191068E+02  0.55095622492E+02  0.41800000000E+01 0. -1.
         -5    1    3    3    0  502 -0.31730190273E+02  0.17360556785E+03 -0.22904181911E+03  0.28917697948E+03  0.41800000000E+01 0.  1.
        -11    1    1    2    0    0 -0.15621030019E+02 -0.56793582284E+01 -0.32658344007E+02  0.36644769368E+02  0.00000000000E+00 0.  1.
         11    1    1    2    0    0  0.96848994775E+02 -0.18721330862E+03 -0.23997237052E+03  0.31939832392E+03  0.00000000000E+00 0. -1.
</event>
<event>
 7    1  0.2855090E-009  0.2291098E+03  0.7561462E-02  0.1127268E+00
          1   -1    0    0  501    0  0.00000000000E+00  0.00000000000E+00  0.10695168636E+04  0.10695168636E+04  0.00000000000E+00 0. -1.
         -1   -1    0    0    0  501 -0.00000000000E+00 -0.00000000000E+00 -0.52593618371E+02  0.52593618371E+02  0.00000000000E+00 0.  1.
         25    2    1    2    0    0  0.18435253201E+03  0.95551406800E+02  0.60835477401E+03  0.65487329932E+03  0.12509028623E+03 0.  0.
          5    1    3    3  502    0  0.11905605359E+03 -0.79759868052E+01  0.27838117228E+03  0.30290511673E+03  0.41800000000E+01 0. -1.
         -5    1    3    3    0  502  0.65296478421E+02  0.10352739360E+03  0.32997360173E+03  0.35196818260E+03  0.41800000000E+01 0. -1.
        -11    1    1    2    0    0 -0.15477403176E+03 -0.51160649397E+02  0.23761685634E+03  0.28815652582E+03  0.00000000000E+00 0.  1.
         11    1    1    2    0    0 -0.29578500250E+02 -0.44390757403E+02  0.17095161490E+03  0.17908065685E+03  0.00000000000E+00 0. -1.
</event>
<event>
 7    1  0.2855090E-009  0.1788664E+03  0.7561462E-02  0.1168905E+00
          1   -1    0    0  501    0  0.00000000000E+00  0.00000000000E+00  0.20634409336E+03  0.20634409336E+03  0.00000000000E+00 0. -1.
         -1   -1    0    0    0  501 -0.00000000000E+00 -0.00000000000E+00 -0.17337404580E+03  0.17337404580E+03  0.00000000000E+00 0.  1.
         25    2    1    2    0    0 -0.21888493994E+02  0.15202165493E+03 -0.42080569075E+01  0.19811887493E+03  0.12507474214E+03 0.  0.
          5    1    3    3  502    0  0.50011864893E+02  0.49653817138E+02 -0.16033501262E+02  0.72396365579E+02  0.41800000000E+01 0.  1.
         -5    1    3    3    0  502 -0.71900358887E+02  0.10236783779E+03  0.11825444354E+02  0.12572250935E+03  0.41800000000E+01 0.  1.
        -11    1    1    2    0    0 -0.15741097497E+02 -0.25473107248E+02 -0.21760687589E+02  0.37016062292E+02  0.00000000000E+00 0.  1.
         11    1    1    2    0    0  0.37629591491E+02 -0.12654854768E+03  0.58938792051E+02  0.14458320194E+03  0.00000000000E+00 0. -1.
</event>
<event>
 7    1  0.2855090E-009  0.1281744E+03  0.7561462E-02  0.1230190E+00
          1   -1    0    0  501    0  0.00000000000E+00  0.00000000000E+00  0.94102314944E+03  0.94102314944E+03  0.00000000000E+00 0. -1.
         -1   -1    0    0    0  501 -0.00000000000E+00 -0.00000000000E+00 -0.23050121863E+02  0.23050121863E+02  0.00000000000E+00 0.  1.
         25    2    1    2    0    0 -0.95792936012E+02  0.20856329778E+02  0.52339679210E+03  0.54699378034E+03  0.12508685251E+03 0.  0.
          5    1    3    3  502    0  0.10142892713E+02 -0.15032916313E+02  0.92076560590E+01  0.20763433617E+02  0.41800000000E+01 0. -1.
         -5    1    3    3    0  502 -0.10593582873E+03  0.35889246092E+02  0.51418913604E+03  0.52623034673E+03  0.41800000000E+01 0. -1.
        -11    1    1    2    0    0  0.16516831730E+02  0.28129995902E+02  0.46887593856E+02  0.57118725979E+02  0.00000000000E+00 0.  1.
         11    1    1    2    0    0  0.79276104282E+02 -0.48986325681E+02  0.34768864162E+03  0.35996076498E+03  0.00000000000E+00 0. -1.
</event>
<event>
 7    1  0.2855090E-009  0.1141766E+03  0.7561462E-02  0.1253025E+00
          1   -1    0    0  501    0  0.00000000000E+00  0.00000000000E+00  0.26769360381E+02  0.26769360381E+02  0.00000000000E+00 0. -1.
         -1   -1    0    0    0  501 -0.00000000000E+00 -0.00000000000E+00 -0.65214283402E+03  0.65214283402E+03  0.00000000000E+00 0.  1.
         25    2    1    2    0    0 -0.23755285962E+02  0.30749204671E+02 -0.50916065705E+03  0.52573698970E+03  0.12507989626E+03 0.  0.
          5    1    3    3  502    0  0.34978563858E+02  0.55535722296E+02 -0.22092519176E+03  0.23050624533E+03  0.41800000000E+01 0.  1.
         -5    1    3    3    0  502 -0.58733849820E+02 -0.24786517625E+02 -0.28823546529E+03  0.29523074437E+03  0.41800000000E+01 0.  1.
        -11    1    1    2    0    0 -0.31274314754E+02 -0.30479459354E+02 -0.40370480992E+02  0.59471471660E+02  0.00000000000E+00 0.  1.
         11    1    1    2    0    0  0.55029600715E+02 -0.26974531672E+00 -0.75842335593E+02  0.93703733040E+02  0.00000000000E+00 0. -1.
</event>
<event>
 7    1  0.2855090E-009  0.1045628E+03  0.7561462E-02  0.1270983E+00
         -2   -1    0    0    0  501 -0.00000000000E+00  0.00000000000E+00  0.33854370336E+03  0.33854370336E+03  0.00000000000E+00 0.  1.
          2   -1    0    0  501    0  0.00000000000E+00 -0.00000000000E+00 -0.45827755221E+02  0.45827755221E+02  0.00000000000E+00 0. -1.
         25    2    1    2    0    0 -0.37475542595E+02 -0.43761138914E+02  0.19561565538E+03  0.23923046048E+03  0.12508507112E+03 0.  0.
          5    1    3    3  502    0 -0.40742300105E+02  0.17498903378E+02  0.12784699951E+02  0.46336460699E+02  0.41800000000E+01 0. -1.
         -5    1    3    3    0  502  0.32667575100E+01 -0.61260042292E+02  0.18283095543E+03  0.19289399978E+03  0.41800000000E+01 0. -1.
        -11    1    1    2    0    0 -0.27636716385E+02  0.78037801028E+01  0.48261299289E+02  0.56159060582E+02  0.00000000000E+00 0. -1.
         11    1    1    2    0    0  0.65112258979E+02  0.35957358811E+02  0.48838993466E+02  0.88981937520E+02  0.00000000000E+00 0.  1.
</event>
<event>
 7    1  0.2855090E-009  0.1447587E+03  0.7561462E-02  0.1207065E+00
         -1   -1    0    0    0  501 -0.00000000000E+00  0.00000000000E+00  0.21790617934E+02  0.21790617934E+02  0.00000000000E+00 0.  1.
          1   -1    0    0  501    0  0.00000000000E+00 -0.00000000000E+00 -0.13564386253E+04  0.13564386253E+04  0.00000000000E+00 0. -1.
         25    2    1    2    0    0  0.92633955640E+01 -0.10063948469E+03 -0.10538575191E+04  0.10660572321E+04  0.12509290570E+03 0.  0.
          5    1    3    3  502    0  0.42312205433E+02 -0.11584666295E+03 -0.85446554595E+03  0.86333053558E+03  0.41800000000E+01 0. -1.
         -5    1    3    3    0  502 -0.33048809869E+02  0.15207178258E+02 -0.19939197317E+03  0.20272669649E+03  0.41800000000E+01 0. -1.
        -11    1    1    2    0    0 -0.27170718853E+01 -0.14206076754E+02 -0.89855059064E+01  0.17027460549E+02  0.00000000000E+00 0.  1.
         11    1    1    2    0    0 -0.65463236787E+01  0.11484556144E+03 -0.27180498237E+03  0.29514455065E+03  0.00000000000E+00 0. -1.
</event>
<event>
 7    1  0.3667496E-009  0.1093955E+03  0.7561462E-02  0.1261693E+00
          2   -1    0    0  501    0  0.00000000000E+00  0.00000000000E+00  0.21137369852E+03  0.21137369852E+03  0.00000000000E+00 0. -1.
         -2   -1    0    0    0  501 -0.00000000000E+00 -0.00000000000E+00 -0.98628740434E+02  0.98628740434E+02  0.00000000000E+00 0.  1.
         25    2    1    2    0    0 -0.29068853905E+02 -0.68458391586E+02 -0.21314883645E+01  0.14554500894E+03  0.12508899528E+03 0.  0.
          5    1    3    3  502    0 -0.23222780980E+02  0.34163687595E+02  0.76083552969E+01  0.42211545539E+02  0.41800000000E+01 0. -1.
         -5    1    3    3    0  502 -0.58460729249E+01 -0.10262207918E+03 -0.97398436614E+01  0.10333346340E+03  0.41800000000E+01 0. -1.
        -11    1    1    2    0    0  0.12299402627E+02  0.31325109223E+02 -0.83467106791E+01  0.34672833054E+02  0.00000000000E+00 0.  1.
         11    1    1    2    0    0  0.16769451278E+02  0.37133282363E+02  0.12322315713E+03  0.12978459696E+03  0.00000000000E+00 0. -1.
</event>
<event>
 7    1  0.3230725E-009  0.1139840E+03  0.7561462E-02  0.1253365E+00
          1   -1    0    0  501    0  0.00000000000E+00  0.00000000000E+00  0.51722502644E+03  0.51722502644E+03  0.00000000000E+00 0. -1.
         -1   -1    0    0    0  501 -0.00000000000E+00 -0.00000000000E+00 -0.40076240171E+02  0.40076240171E+02  0.00000000000E+00 0.  1.
         25    2    1    2    0    0 -0.31370045282E+02 -0.84539486725E+02  0.31482880832E+03  0.35056975476E+03  0.12510383626E+03 0.  0.
          5    1    3    3  502    0 -0.32580732508E+02  0.96749676970E+01  0.17131186867E+02  0.38289151129E+02  0.41800000000E+01 0. -1.
         -5    1    3    3    0  502  0.12106872257E+01 -0.94214454422E+02  0.29769762145E+03  0.31228060363E+03  0.41800000000E+01 0. -1.
        -11    1    1    2    0    0  0.29240746296E+02  0.21400713812E+02  0.13157375976E+03  0.13647221715E+03  0.00000000000E+00 0. -1.
         11    1    1    2    0    0  0.21292989864E+01  0.63138772912E+02  0.30746218184E+02  0.70259294700E+02  0.00000000000E+00 0.  1.
</event>
<event>
 7    1  0.2855090E-009  0.5891072E+02  0.7561462E-02  0.1402461E+00
         -2   -1    0    0    0  501 -0.00000000000E+00  0.00000000000E+00  0.30266883811E+02  0.30266883811E+02  0.00000000000E+00 0.  1.
          2   -1    0    0  501    0  0.00000000000E+00 -0.00000000000E+00 -0.48222238597E+03  0.48222238597E+03  0.00000000000E+00 0. -1.
         25    2    1    2    0    0  0.38897801180E+02  0.40212407124E+01 -0.31979078774E+03  0.34560188980E+03  0.12508120961E+03 0.  0.
          5    1    3    3  502    0  0.28135128310E+02  0.35809128338E+01 -0.32935643578E+03  0.33060178852E+03  0.41800000000E+01 0.  1.
         -5    1    3    3    0  502  0.10762672869E+02  0.44032787865E+00  0.95656480423E+01  0.15000101280E+02  0.41800000000E+01 0.  1.
        -11    1    1    2    0    0  0.24512378903E+01 -0.29123529626E+02 -0.35062782228E+01  0.29436075350E+02  0.00000000000E+00 0.  1.
         11    1    1    2    0    0 -0.41349039070E+02  0.25102288913E+02 -0.12865843620E+03  0.13745130464E+03  0.00000000000E+00 0. -1.
</event>
<event>
 7    1  0.2855090E-009  0.2262663E+03  0.7561462E-02  0.1129296E+00
          2   -1    0    0  501    0  0.00000000000E+00  0.00000000000E+00  0.12594337208E+03  0.12594337208E+03  0.00000000000E+00 0. -1.
         -2   -1    0    0    0  501 -0.00000000000E+00 -0.00000000000E+00 -0.43422476504E+03  0.43422476504E+03  0.00000000000E+00 0.  1.
         25    2    1    2    0    0  0.14391159116E+02 -0.20415736223E+03 -0.12561947178E+03  0.27076742131E+03  0.12508961084E+03 0.  0.
          5    1    3    3  502    0  0.63628403103E+02 -0.11486537400E+03 -0.39371765866E+02  0.13715041441E+03  0.41800000000E+01 0. -1.
         -5    1    3    3    0  502 -0.49237243987E+02 -0.89291988230E+02 -0.86247705919E+02  0.13361700690E+03  0.41800000000E+01 0. -1.
        -11    1    1    2    0    0  0.15918475196E+02  0.17901507665E+03 -0.17161931522E+03  0.24850147862E+03  0.00000000000E+00 0.  1.
         11    1    1    2    0    0 -0.30309634312E+02  0.25142285582E+02 -0.11042605956E+02  0.40899237190E+02  0.00000000000E+00 0. -1.
</event>
<event>
 6    1  0.2855090E-009  0.8712652E+02  0.7561462E-02  0.1309963E+00
          3   -1    0    0  501    0  0.00000000000E+00  0.00000000000E+00  0.19471307767E+03  0.19471307767E+03  0.00000000000E+00 0. -1.
         -3   -1    0    0    0  501 -0.00000000000E+00 -0.00000000000E+00 -0.72201854162E+02  0.72201854162E+02  0.00000000000E+00 0.  1.
          5    1    1    2  502    0  0.47132013089E+02  0.22248264664E+02  0.25907841707E+02  0.58353239844E+02  0.41800000000E+01 0.  1.
         -5    1    1    2    0  502 -0.64954115250E+02 -0.25083027282E+02 -0.50815369482E+01  0.69939186178E+02  0.41800000000E+01 0.  1.
        -11    1    1    2    0    0 -0.16622906732E+02 -0.39957508273E+01  0.10208280362E+03  0.10350452091E+03  0.00000000000E+00 0. -1.
         11    1    1    2    0    0  0.34445008893E+02  0.68305134451E+01 -0.39788486941E+00  0.35117984907E+02  0.00000000000E+00 0.  1.
</event>
<event>
 7    1  0.2855090E-009  0.1480434E+03  0.7561462E-02  0.1202898E+00
          1   -1    0    0  501    0  0.00000000000E+00  0.00000000000E+00  0.88588875776E+03  0.88588875776E+03  0.00000000000E+00 0. -1.
         -1   -1    0    0    0  501 -0.00000000000E+00 -0.00000000000E+00 -0.33148915915E+02  0.33148915915E+02  0.00000000000E+00 0.  1.
         25    2    1    2    0    0 -0.75087785460E+02 -0.11543557817E+03  0.53467355252E+03  0.56611567647E+03  0.12509037993E+03 0.  0.
          5    1    3    3  502    0 -0.32620123224E+02 -0.60339687532E+01  0.31724949045E+03  0.31900657173E+03  0.41800000000E+01 0.  1.
         -5    1    3    3    0  502 -0.42467662237E+02 -0.10940160941E+03  0.21742406207E+03  0.24710910474E+03  0.41800000000E+01 0.  1.
        -11    1    1    2    0    0  0.33881883955E+02  0.91492145998E+02  0.26060590568E+03  0.27827007190E+03  0.00000000000E+00 0. -1.
         11    1    1    2    0    0  0.41205901506E+02  0.23943432170E+02  0.57460383655E+02  0.74651925311E+02  0.00000000000E+00 0.  1.
</event>
<event>
 7    1  0.2855090E-009  0.1234019E+03  0.7561462E-02  0.1237588E+00
          2   -1    0    0  501    0  0.00000000000E+00  0.00000000000E+00  0.53250172212E+03  0.53250172212E+03  0.00000000000E+00 0. -1.
         -2   -1    0    0    0  501 -0.00000000000E+00 -0.00000000000E+00 -0.82725020066E+02  0.82725020066E+02  0.00000000000E+00 0.  1.
         25    2    1    2    0    0  0.85900389602E+02  0.60814944829E+02  0.19193573236E+02  0.16460060415E+03  0.12509049198E+03 0.  0.
          5    1    3    3  502    0  0.38638759659E+02  0.87747512961E+00 -0.48732537527E+02  0.62338241268E+02  0.41800000000E+01 0.  1.
         -5    1    3    3    0  502  0.47261629942E+02  0.59937469699E+02  0.67926110763E+02  0.10226236288E+03  0.41800000000E+01 0.  1.
        -11    1    1    2    0    0 -0.34322307512E+02  0.16864976306E+02  0.97310163040E+02  0.10455484709E+03  0.00000000000E+00 0.  1.
         11    1    1    2    0    0 -0.51578082090E+02 -0.77679921135E+02  0.33327296577E+03  0.34607129094E+03  0.00000000000E+00 0. -1.
</event>
<event>
 7    1  0.2855090E-009  0.1459929E+03  0.7561462E-02  0.1205485E+00
          1   -1    0    0  501    0  0.00000000000E+00  0.00000000000E+00  0.10789909247E+03  0.10789909247E+03  0.00000000000E+00 0.  1.
         -1   -1    0    0    0  501 -0.00000000000E+00 -0.00000000000E+00 -0.22902076869E+03  0.22902076869E+03  0.00000000000E+00 0. -1.
         25    2    1    2    0    0 -0.11070659480E+03  0.82835274905E+01 -0.44229584949E+02  0.17296929630E+03  0.12505020719E+03 0.  0.
          5    1    3    3  502    0 -0.89146925732E+02  0.51668269078E+02  0.56917690461E+01  0.10327948989E+03  0.41800000000E+01 0. -1.
         -5    1    3    3    0  502 -0.21559669069E+02 -0.43384741588E+02 -0.49921353995E+02  0.69689806412E+02  0.41800000000E+01 0. -1.
        -11    1    1    2    0    0  0.38954123223E+02  0.38348167070E+02 -0.50446762304E+02  0.74383341285E+02  0.00000000000E+00 0.  1.
         11    1    1    2    0    0  0.71752471577E+02 -0.46631694560E+02 -0.26445328963E+02  0.89567223575E+02  0.00000000000E+00 0. -1.
</event>
<event>
 7    1  0.2855090E-009  0.1860832E+03  0.7561462E-02  0.1162042E+00
         -2   -1    0    0    0  501 -0.00000000000E+00  0.00000000000E+00  0.31010243977E+03  0.31010243977E+03  0.00000000000E+00 0. -1.
          2   -1    0    0  501    0  0.00000000000E+00 -0.00000000000E+00 -0.13255271791E+03  0.13255271791E+03  0.00000000000E+00 0.  1.
         25    2    1    2    0    0 -0.16405201528E+03  0.46309946848E+02  0.78461262160E+02  0.22552373382E+03  0.12508840858E+03 0.  0.
          5    1    3    3  502    0 -0.45430793691E+02  0.48056896779E+02  0.83634404054E+02  0.10670336586E+03  0.41800000000E+01 0.  1.
         -5    1    3    3    0  502 -0.11862122159E+03 -0.17469499310E+01 -0.51731418941E+01  0.11882036796E+03  0.41800000000E+01 0.  1.
        -11    1    1    2    0    0  0.13700039423E+03 -0.67599620334E+02  0.57713949457E+02  0.16330865455E+03  0.00000000000E+00 0.  1.
         11    1    1    2    0    0  0.27051621046E+02  0.21289673486E+02  0.41374510239E+02  0.53822769307E+02  0.00000000000E+00 0. -1.
</event>
<event>
 7    1  0.2855090E-009  0.1203686E+03  0.7561462E-02  0.1242490E+00
          1   -1    0    0  501    0  0.00000000000E+00  0.00000000000E+00  0.50876550561E+03  0.50876550561E+03  0.00000000000E+00 0. -1.
         -1   -1    0    0    0  501 -0.00000000000E+00 -0.00000000000E+00 -0.36965469280E+02  0.36965469280E+02  0.00000000000E+00 0.  1.
         25    2    1    2    0    0 -0.28093846040E+02 -0.59140641932E+02  0.37034866257E+03  0.39634878624E+03  0.12508936317E+03 0.  0.
          5    1    3    3  502    0  0.41033150870E+02 -0.45125489949E+02  0.24444250066E+03  0.25197150204E+03  0.41800000000E+01 0.  1.
         -5    1    3    3    0  502 -0.69126996910E+02 -0.14015151983E+02  0.12590616191E+03  0.14437728420E+03  0.41800000000E+01 0.  1.
        -11    1    1    2    0    0  0.28157791929E+02 -0.16942401668E+02  0.23098806183E+02  0.40167910920E+02  0.00000000000E+00 0. -1.
         11    1    1    2    0    0 -0.63945888663E-01  0.76083043600E+02  0.78352567578E+02  0.10921427772E+03  0.00000000000E+00 0.  1.
</event>
<event>
 7    1  0.2855090E-009  0.1081387E+03  0.7561462E-02  0.1264056E+00
          3   -1    0    0  501    0  0.00000000000E+00  0.00000000000E+00  0.99538789974E+02  0.99538789974E+02  0.00000000000E+00 0. -1.
         -3   -1    0    0    0  501 -0.00000000000E+00 -0.00000000000E+00 -0.29626852746E+03  0.29626852746E+03  0.00000000000E+00 0.  1.
         25    2    1    2    0    0 -0.60531832040E+01  0.20210595803E+02 -0.25000377838E+03  0.28034754267E+03  0.12509095198E+03 0.  0.
          5    1    3    3  502    0  0.55322922232E+02 -0.11855005089E+02 -0.12777343521E+03  0.13980232479E+03  0.41800000000E+01 0.  1.
         -5    1    3    3    0  502 -0.61376105436E+02  0.32065600892E+02 -0.12223034317E+03  0.14054521789E+03  0.41800000000E+01 0.  1.
        -11    1    1    2    0    0 -0.40790504610E+02 -0.60731208066E+01 -0.24366915119E+01  0.41312050641E+02  0.00000000000E+00 0.  1.
         11    1    1    2    0    0  0.46843687814E+02 -0.14137474996E+02  0.55710732407E+02  0.74147724123E+02  0.00000000000E+00 0. -1.
</event>
<event>
 7    1  0.2855090E-009  0.9905986E+02  0.7561462E-02  0.1282285E+00
         -2   -1    0    0    0  501 -0.00000000000E+00  0.00000000000E+00  0.22624414003E+02  0.22624414003E+02  0.00000000000E+00 0.  1.
          2   -1    0    0  501    0  0.00000000000E+00 -0.00000000000E+00 -0.69721552752E+03  0.69721552752E+03  0.00000000000E+00 0. -1.
         25    2    1    2    0    0 -0.14706429718E+02  0.41480903233E+02 -0.56007018122E+03  0.57555455716E+03  0.12508995151E+03 0.  0.
          5    1    3    3  502    0 -0.63042073752E+00  0.81731207124E+02 -0.26382793323E+03  0.27623004616E+03  0.41800000000E+01 0. -1.
         -5    1    3    3    0  502 -0.14076008980E+02 -0.40250303891E+02 -0.29624224799E+03  0.29932451100E+03  0.41800000000E+01 0. -1.
        -11    1    1    2    0    0  0.25108734918E+02  0.51718743543E+01 -0.69319067386E+01  0.26556509269E+02  0.00000000000E+00 0.  1.
         11    1    1    2    0    0 -0.10402305200E+02 -0.46652777587E+02 -0.10758902555E+03  0.11772887509E+03  0.00000000000E+00 0. -1.
</event>
<event>
 7    1  0.2855090E-009  0.1459142E+03  0.7561462E-02  0.1205585E+00
          1   -1    0    0  501    0  0.00000000000E+00  0.00000000000E+00  0.42473298614E+03  0.42473298614E+03  0.00000000000E+00 0. -1.
         -1   -1    0    0    0  501 -0.00000000000E+00 -0.00000000000E+00 -0.58382676793E+02  0.58382676793E+02  0.00000000000E+00 0.  1.
         25    2    1    2    0    0 -0.88702572186E+02  0.39538498397E+02  0.28454419584E+03  0.32564284325E+03  0.12508566187E+03 0.  0.
          5    1    3    3  502    0 -0.57111009278E+02  0.85164328125E+02  0.18943207435E+03  0.21544515162E+03  0.41800000000E+01 0. -1.
         -5    1    3    3    0  502 -0.31591562907E+02 -0.45625829728E+02  0.95112121492E+02  0.11019769163E+03  0.41800000000E+01 0. -1.
        -11    1    1    2    0    0 -0.12072667231E+02 -0.29983353880E+02  0.11856756762E+02  0.34428672424E+02  0.00000000000E+00 0.  1.
         11    1    1    2    0    0  0.10077523942E+03 -0.95551445174E+01  0.69949356749E+02  0.12304414726E+03  0.00000000000E+00 0. -1.
</event>
<event>
 7    1  0.2855090E-009  0.1003177E+03  0.7561462E-02  0.1279629E+00
         -1   -1    0    0    0  501 -0.00000000000E+00  0.00000000000E+00  0.40598033084E+02  0.40598033084E+02  0.00000000000E+00 0.  1.
          1   -1    0    0  501    0  0.00000000000E+00 -0.00000000000E+00 -0.38909784367E+03  0.38909784367E+03  0.00000000000E+00 0. -1.
         25    2    1    2    0    0  0.35581193798E+00 -0.37563123919E+02 -0.29369775186E+03  0.32142947260E+03  0.12508965397E+03 0.  0.
          5    1    3    3  502    0 -0.58342206867E+02 -0.37579972429E+02 -0.12912272896E+03  0.14664998794E+03  0.41800000000E+01 0. -1.
         -5    1    3    3    0  502  0.58698018805E+02  0.16848509695E-01 -0.16457502290E+03  0.17477948466E+03  0.41800000000E+01 0. -1.
        -11    1    1    2    0    0 -0.89290672468E+01 -0.15837168684E+02 -0.50890975997E+02  0.54041054688E+02  0.00000000000E+00 0. -1.
         11    1    1    2    0    0  0.85732553088E+01  0.53400292603E+02 -0.39110827330E+01  0.54225349467E+02  0.00000000000E+00 0.  1.
</event>
<event>
 7    1  0.2855090E-009  0.9849144E+02  0.7561462E-02  0.1283501E+00
          1   -1    0    0  501    0  0.00000000000E+00  0.00000000000E+00  0.24404296746E+03  0.24404296746E+03  0.00000000000E+00 0. -1.
         -1   -1    0    0    0  501 -0.00000000000E+00 -0.00000000000E+00 -0.78970723793E+02  0.78970723793E+02  0.00000000000E+00 0.  1.
         25    2    1    2    0    0  0.75274992308E+02 -0.23758433706E+02  0.50723737161E+02  0.15637168041E+03  0.12509363406E+03 0.  0.
          5    1    3    3  502    0  0.65718093442E+02 -0.24876845381E+01 -0.29882063488E+02  0.72356523536E+02  0.41800000000E+01 0. -1.
         -5    1    3    3    0  502  0.95568988661E+01 -0.21270749168E+02  0.80605800649E+02  0.84015156873E+02  0.41800000000E+01 0. -1.
        -11    1    1    2    0    0 -0.12325885426E+01  0.32780989183E+02  0.75986624865E+02  0.82765208178E+02  0.00000000000E+00 0.  1.
         11    1    1    2    0    0 -0.74042403765E+02 -0.90225554771E+01  0.38361881644E+02  0.83876802669E+02  0.00000000000E+00 0. -1.
</event>
<event>
 7    1  0.2855090E-009  0.1055597E+03  0.7561462E-02  0.1269021E+00
          1   -1    0    0  501    0  0.00000000000E+00  0.00000000000E+00  0.28676929647E+03  0.28676929647E+03  0.00000000000E+00 0. -1.
         -1   -1    0    0    0  501 -0.00000000000E+00 -0.00000000000E+00 -0.54296754457E+02  0.54296754457E+02  0.00000000000E+00 0.  1.
         25    2    1    2    0    0 -0.51315316161E+01 -0.61731093660E+02  0.13211961634E+03  0.19219876610E+03  0.12509081552E+03 0.  0.
          5    1    3    3  502    0 -0.12202368238E+02 -0.82989362624E+02  0.14384580606E+03  0.16656896596E+03  0.41800000000E+01 0. -1.
         -5    1    3    3    0  502  0.70708366216E+01  0.21258268965E+02 -0.11726189719E+02  0.25629800140E+02  0.41800000000E+01 0. -1.
        -11    1    1    2    0    0 -0.33702804218E+02  0.28683611856E+01  0.12152539131E+02  0.35941490166E+02  0.00000000000E+00 0.  1.
         11    1    1    2    0    0  0.38834335834E+02  0.58862732474E+02  0.88200386543E+02  0.11292579466E+03  0.00000000000E+00 0. -1.
</event>
<event>
 7    1  0.2855090E-009  0.8941241E+02  0.7561462E-02  0.1304281E+00
         -1   -1    0    0    0  501 -0.00000000000E+00  0.00000000000E+00  0.87571622290E+02  0.87571622290E+02  0.00000000000E+00 0.  1.
          1   -1    0    0  501    0  0.00000000000E+00 -0.00000000000E+00 -0.15874481702E+03  0.15874481702E+03  0.00000000000E+00 0. -1.
         25    2    1    2    0    0 -0.18923907828E+02 -0.42944471583E+02 -0.35470721601E+02  0.13823313837E+03  0.12509151260E+03 0.  0.
          5    1    3    3  502    0  0.26495026759E+02 -0.39673892391E+01 -0.65682719141E+02  0.71059261283E+02  0.41800000000E+01 0.  1.
         -5    1    3    3    0  502 -0.45418934587E+02 -0.38977082344E+02  0.30211997540E+02  0.67173877084E+02  0.41800000000E+01 0.  1.
        -11    1    1    2    0    0  0.23102050134E+02 -0.18826547397E+02  0.96633918893E+01  0.31329295397E+02  0.00000000000E+00 0.  1.
         11    1    1    2    0    0 -0.41781423057E+01  0.61771018980E+02 -0.45365865023E+02  0.76754005552E+02  0.00000000000E+00 0. -1.
</event>
<event>
 7    1  0.2855090E-009  0.5786695E+02  0.7561462E-02  0.1407008E+00
          1   -1    0    0  501    0  0.00000000000E+00  0.00000000000E+00  0.40888279323E+02  0.40888279323E+02  0.00000000000E+00 0. -1.
         -1   -1    0    0    0  501 -0.00000000000E+00 -0.00000000000E+00 -0.30129579848E+03  0.30129579848E+03  0.00000000000E+00 0.  1.
         25    2    1    2    0    0  0.21120888037E+02  0.16919474621E+01 -0.16833832943E+03  0.21079549446E+03  0.12509193711E+03 0.  0.
          5    1    3    3  502    0 -0.87538051335E+01  0.22670052848E+02  0.11524158017E+02  0.27218358114E+02  0.41800000000E+01 0. -1.
         -5    1    3    3    0  502  0.29874693171E+02 -0.20978105386E+02 -0.17986248745E+03  0.18357713635E+03  0.41800000000E+01 0. -1.
        -11    1    1    2    0    0  0.11529154711E+02  0.13976080157E+02  0.11642375385E+02  0.21535949700E+02  0.00000000000E+00 0. -1.
         11    1    1    2    0    0 -0.32650042748E+02 -0.15668027619E+02 -0.10371156511E+03  0.10985263364E+03  0.00000000000E+00 0.  1.
</event>
<event>
 7    1  0.2855090E-009  0.1673778E+03  0.7561462E-02  0.1180610E+00
          1   -1    0    0  501    0  0.00000000000E+00  0.00000000000E+00  0.12599278795E+03  0.12599278795E+03  0.00000000000E+00 0. -1.
         -1   -1    0    0    0  501 -0.00000000000E+00 -0.00000000000E+00 -0.35716945833E+03  0.35716945833E+03  0.00000000000E+00 0.  1.
         25    2    1    2    0    0  0.13178144521E+03  0.44995692436E+02 -0.25338195841E+03  0.31502451348E+03  0.12508823129E+03 0.  0.
          5    1    3    3  502    0 -0.83528801833E+01 -0.27666479996E+02 -0.36355940921E+02  0.46630800582E+02  0.41800000000E+01 0. -1.
         -5    1    3    3    0  502  0.14013432540E+03  0.72662172431E+02 -0.21702601749E+03  0.26839371290E+03  0.41800000000E+01 0. -1.
        -11    1    1    2    0    0 -0.86682366476E+02 -0.41196221525E+01 -0.25892724322E+02  0.90560681961E+02  0.00000000000E+00 0.  1.
         11    1    1    2    0    0 -0.45099078736E+02 -0.40876070283E+02  0.48098012347E+02  0.77577050836E+02  0.00000000000E+00 0. -1.
</event>
<event>
 7    1  0.2855090E-009  0.1030791E+03  0.7561462E-02  0.1273951E+00
         -1   -1    0    0    0  501 -0.00000000000E+00  0.00000000000E+00  0.93999123495E+02  0.93999123495E+02  0.00000000000E+00 0.  1.
          1   -1    0    0  501    0  0.00000000000E+00 -0.00000000000E+00 -0.16330443136E+03  0.16330443136E+03  0.00000000000E+00 0. -1.
         25    2    1    2    0    0 -0.22186803570E+02  0.52673706485E+02 -0.56594495243E+02  0.14871628693E+03  0.12508726354E+03 0.  0.
          5    1    3    3  502    0 -0.55388947508E+02  0.38379363093E+02  0.14313211367E+02  0.69016312833E+02  0.41800000000E+01 0. -1.
         -5    1    3    3    0  502  0.33202143937E+02  0.14294343392E+02 -0.70907706611E+02  0.79699974102E+02  0.41800000000E+01 0. -1.
        -11    1    1    2    0    0 -0.32210871421E+02 -0.12174216695E+02 -0.20892698023E+02  0.40277246934E+02  0.00000000000E+00 0.  1.
         11    1    1    2    0    0  0.54397674992E+02 -0.40499489790E+02  0.81818854059E+01  0.68310020982E+02  0.00000000000E+00 0. -1.
</event>
<event>
 7    1  0.2855090E-009  0.1292963E+03  0.7561462E-02  0.1228504E+00
         -1   -1    0    0    0  501 -0.00000000000E+00  0.00000000000E+00  0.20208147926E+03  0.20208147926E+03  0.00000000000E+00 0.  1.
          1   -1    0    0  501    0  0.00000000000E+00 -0.00000000000E+00 -0.10202171662E+03  0.10202171662E+03  0.00000000000E+00 0. -1.
         25    2    1    2    0    0  0.70618746424E+02 -0.15485754837E+02  0.11790074166E+03  0.18647963352E+03  0.12508897987E+03 0.  0.
          5    1    3    3  502    0  0.83823320308E+02  0.35017316407E+02  0.85978122391E+02  0.12514899682E+03  0.41800000000E+01 0.  1.
         -5    1    3    3    0  502 -0.13204573884E+02 -0.50503071244E+02  0.31922619274E+02  0.61330636699E+02  0.41800000000E+01 0.  1.
        -11    1    1    2    0    0 -0.10649200140E+02 -0.35193395944E+02 -0.12847508774E+02  0.38949185658E+02  0.00000000000E+00 0.  1.
         11    1    1    2    0    0 -0.59969546284E+02  0.50679150782E+02 -0.49934702511E+01  0.78674376709E+02  0.00000000000E+00 0. -1.
</event>
<event>
 7    1  0.2855090E-009  0.5536456E+02  0.7561462E-02  0.1418383E+00
          2   -1    0    0  501    0  0.00000000000E+00  0.00000000000E+00  0.40591619222E+03  0.40591619222E+03  0.00000000000E+00 0. -1.
         -2   -1    0    0    0  501 -0.00000000000E+00 -0.00000000000E+00 -0.43506107006E+02  0.43506107006E+02  0.00000000000E+00 0.  1.
         25    2    1    2    0    0  0.24227161384E+02 -0.15131705049E+02  0.32048635504E+03  0.34521807853E+03  0.12509234242E+03 0.  0.
          5    1    3    3  502    0  0.20766805671E+02 -0.10894158774E+02 -0.82326308351E+00  0.23834703171E+02  0.41800000000E+01 0.  1.
         -5    1    3    3    0  502  0.34603557136E+01 -0.42375462753E+01  0.32130961812E+03  0.32138337536E+03  0.41800000000E+01 0.  1.
        -11    1    1    2    0    0  0.23134969344E+02 -0.11341027088E+02 -0.11359014306E+02  0.28157999005E+02  0.00000000000E+00 0.  1.
         11    1    1    2    0    0 -0.47362130729E+02  0.26472732137E+02  0.53282744486E+02  0.76046221694E+02  0.00000000000E+00 0. -1.
</event>
<event>
 7    1  0.2855090E-009  0.1323712E+03  0.7561462E-02  0.1223979E+00
          2   -1    0    0  501    0  0.00000000000E+00  0.00000000000E+00  0.30884917153E+03  0.30884917153E+03  0.00000000000E+00 0.  1.
         -2   -1    0    0    0  501 -0.00000000000E+00 -0.00000000000E+00 -0.75357119407E+02  0.75357119407E+02  0.00000000000E+00 0. -1.
         25    2    1    2    0    0  0.56156355976E+02 -0.64507318296E+02  0.19984873002E+03  0.25080383076E+03  0.12509323004E+03 0.  0.
          5    1    3    3  502    0  0.73831086753E+02 -0.42715510411E+01  0.53105760263E+02  0.91142578922E+02  0.41800000000E+01 0.  1.
         -5    1    3    3    0  502 -0.17674730778E+02 -0.60235767255E+02  0.14674296976E+03  0.15966125184E+03  0.41800000000E+01 0.  1.
        -11    1    1    2    0    0 -0.36167074812E+02  0.89043052265E+02  0.16845090778E+02  0.97572944715E+02  0.00000000000E+00 0. -1.
         11    1    1    2    0    0 -0.19989281163E+02 -0.24535733969E+02  0.16798231330E+02  0.35829515467E+02  0.00000000000E+00 0.  1.
</event>
<event>
 7    1  0.2855090E-009  0.8453874E+02  0.7561462E-02  0.1316643E+00
         -1   -1    0    0    0  501 -0.00000000000E+00  0.00000000000E+00  0.73092444236E+02  0.73092444236E+02  0.00000000000E+00 0.  1.
          1   -1    0    0  501    0  0.00000000000E+00 -0.00000000000E+00 -0.17392803703E+03  0.17392803703E+03  0.00000000000E+00 0. -1.
         25    2    1    2    0    0 -0.18490453968E+02 -0.23675034022E+02 -0.59891228515E+02  0.14190127496E+03  0.12508640398E+03 0.  0.
          5    1    3    3  502    0  0.12786245083E+02  0.29531380138E+02 -0.71902516941E+02  0.78886214376E+02  0.41800000000E+01 0. -1.
         -5    1    3    3    0  502 -0.31276699051E+02 -0.53206414160E+02  0.12011288426E+02  0.63015060589E+02  0.41800000000E+01 0. -1.
        -11    1    1    2    0    0  0.77285384903E+00  0.46145248518E+02  0.95042472057E+01  0.47120186532E+02  0.00000000000E+00 0.  1.
         11    1    1    2    0    0  0.17717600119E+02 -0.22470214496E+02 -0.50448611488E+02  0.57999019772E+02  0.00000000000E+00 0. -1.
</event>
<event>
 7    1  0.2855090E-009  0.1070699E+03  0.7561462E-02  0.1266094E+00
          1   -1    0    0  501    0  0.00000000000E+00  0.00000000000E+00  0.73211102405E+02  0.73211102405E+02  0.00000000000E+00 0. -1.
         -1   -1    0    0    0  501 -0.00000000000E+00 -0.00000000000E+00 -0.28476237571E+03  0.28476237571E+03  0.00000000000E+00 0.  1.
         25    2    1    2    0    0 -0.90121997973E+02  0.22493942728E+02 -0.12467017061E+03  0.19954466807E+03  0.12508985226E+03 0.  0.
          5    1    3    3  502    0 -0.14969018925E+02  0.18960698563E+01 -0.12037603248E+03  0.12138998396E+03  0.41800000000E+01 0.  1.
         -5    1    3    3    0  502 -0.75152979049E+02  0.20597872871E+02 -0.42941381215E+01  0.78154684114E+02  0.41800000000E+01 0.  1.
        -11    1    1    2    0    0  0.51134439051E+02  0.26692587285E+02 -0.89603854673E+01  0.58373911816E+02  0.00000000000E+00 0. -1.
         11    1    1    2    0    0  0.38987558923E+02 -0.49186530012E+02 -0.77920717231E+02  0.10005489823E+03  0.00000000000E+00 0.  1.
</event>
<event>
 7    1  0.2855090E-009  0.1175387E+03  0.7561462E-02  0.1247214E+00
         -2   -1    0    0    0  501 -0.00000000000E+00  0.00000000000E+00  0.58098567070E+02  0.58098567070E+02  0.00000000000E+00 0.  1.
          2   -1    0    0  501    0  0.00000000000E+00 -0.00000000000E+00 -0.36330380010E+03  0.36330380010E+03  0.00000000000E+00 0. -1.
         25    2    1    2    0    0 -0.12319862899E+02  0.79411074954E+02 -0.23960775845E+03  0.28198903020E+03  0.12509211565E+03 0.  0.
          5    1    3    3  502    0  0.50801119697E+02  0.90165937948E+01 -0.10930617343E+03  0.12094364256E+03  0.41800000000E+01 0. -1.
         -5    1    3    3    0  502 -0.63120982596E+02  0.70394481159E+02 -0.13030158502E+03  0.16104538764E+03  0.41800000000E+01 0. -1.
        -11    1    1    2    0    0  0.25813939185E+02 -0.55656344607E+02  0.70915101177E+01  0.61759838625E+02  0.00000000000E+00 0.  1.
         11    1    1    2    0    0 -0.13494076286E+02 -0.23754730347E+02 -0.72688984703E+02  0.77653498349E+02  0.00000000000E+00 0. -1.
</event>
<event>
 7    1  0.3607948E-009  0.1810372E+03  0.7561462E-02  0.1166803E+00
          1   -1    0    0  501    0  0.00000000000E+00  0.00000000000E+00  0.52995887203E+03  0.52995887203E+03  0.00000000000E+00 0. -1.
         -1   -1    0    0    0  501 -0.00000000000E+00 -0.00000000000E+00 -0.83313035759E+02  0.83313035759E+02  0.00000000000E+00 0.  1.
         25    2    1    2    0    0 -0.16202117776E+03 -0.20651600973E+02  0.12343514267E+03  0.23991822741E+03  0.12508865149E+03 0.  0.
          5    1    3    3  502    0 -0.12081749137E+03 -0.64792197922E+02  0.52982897351E+02  0.14703589679E+03  0.41800000000E+01 0.  1.
         -5    1    3    3    0  502 -0.41203686385E+02  0.44140596949E+02  0.70452245321E+02  0.92882330620E+02  0.41800000000E+01 0.  1.
        -11    1    1    2    0    0  0.28791656896E+02  0.10958879170E+02  0.92638876392E+01  0.32169491038E+02  0.00000000000E+00 0.  1.
         11    1    1    2    0    0  0.13322952086E+03  0.96927218033E+01  0.31394680596E+03  0.34118418934E+03  0.00000000000E+00 0. -1.
</event>
<event>
 7    1  0.2855090E-009  0.1009734E+03  0.7561462E-02  0.1278262E+00
          1   -1    0    0  501    0  0.00000000000E+00  0.00000000000E+00  0.16009916078E+03  0.16009916078E+03  0.00000000000E+00 0. -1.
         -1   -1    0    0    0  501 -0.00000000000E+00 -0.00000000000E+00 -0.88125390752E+02  0.88125390752E+02  0.00000000000E+00 0.  1.
         25    2    1    2    0    0 -0.48007120282E+02 -0.12472605680E+02  0.44022530102E+02  0.14158715160E+03  0.12509471952E+03 0.  0.
          5    1    3    3  502    0  0.37244230611E+02 -0.64473805004E+01 -0.11326996966E+02  0.39679650823E+02  0.41800000000E+01 0.  1.
         -5    1    3    3    0  502 -0.85251350894E+02 -0.60252251797E+01  0.55349527068E+02  0.10190750078E+03  0.41800000000E+01 0.  1.
        -11    1    1    2    0    0  0.56986771510E+02 -0.65053092687E+01  0.50072965409E+02  0.76138774883E+02  0.00000000000E+00 0. -1.
         11    1    1    2    0    0 -0.89796512272E+01  0.18977914949E+02 -0.22121725480E+02  0.30498625054E+02  0.00000000000E+00 0.  1.
</event>
<event>
 7    1  0.2855090E-009  0.1035988E+03  0.7561462E-02  0.1272905E+00
          3   -1    0    0  501    0  0.00000000000E+00  0.00000000000E+00  0.39220432298E+03  0.39220432298E+03  0.00000000000E+00 0. -1.
         -3   -1    0    0    0  501 -0.00000000000E+00 -0.00000000000E+00 -0.30890853516E+02  0.30890853516E+02  0.00000000000E+00 0.  1.
         25    2    1    2    0    0 -0.63373028951E+01 -0.10330726794E+01  0.23392234274E+03  0.26534731056E+03  0.12509318184E+03 0.  0.
          5    1    3    3  502    0 -0.53197618421E+02 -0.36294093163E+02  0.99066138424E+02  0.11823205989E+03  0.41800000000E+01 0.  1.
         -5    1    3    3    0  502  0.46860315526E+02  0.35261020484E+02  0.13485620432E+03  0.14711525067E+03  0.41800000000E+01 0.  1.
        -11    1    1    2    0    0 -0.30049904291E+01 -0.40848222351E+02  0.96624794250E+02  0.10494740636E+03  0.00000000000E+00 0. -1.
         11    1    1    2    0    0  0.93422933242E+01  0.41881295030E+02  0.30766332473E+02  0.52800459579E+02  0.00000000000E+00 0.  1.
</event>
<event>
 7    1  0.2855090E-009  0.2460247E+03  0.7561462E-02  0.1115843E+00
          1   -1    0    0  501    0  0.00000000000E+00  0.00000000000E+00  0.39619928227E+03  0.39619928227E+03  0.00000000000E+00 0. -1.
         -1   -1    0    0    0  501 -0.00000000000E+00 -0.00000000000E+00 -0.16461787870E+03  0.16461787870E+03  0.00000000000E+00 0.  1.
         25    2    1    2    0    0 -0.20997169659E+03 -0.77938762500E+02  0.56985881656E+02  0.26278657981E+03  0.12508729652E+03 0.  0.
          5    1    3    3  502    0 -0.30428757891E+02 -0.66466936145E+02 -0.24683459799E+01  0.73262050471E+02  0.41800000000E+01 0. -1.
         -5    1    3    3    0  502 -0.17954293870E+03 -0.11471826355E+02  0.59454227636E+02  0.18952452934E+03  0.41800000000E+01 0. -1.
        -11    1    1    2    0    0  0.17865426646E+03  0.29327611403E+02  0.15032027679E+03  0.23531604563E+03  0.00000000000E+00 0.  1.
         11    1    1    2    0    0  0.31317430133E+02  0.48611151097E+02  0.24275245129E+02  0.62714535534E+02  0.00000000000E+00 0. -1.
</event>
<event>
 7    1  0.2855090E-009  0.1455642E+03  0.7561462E-02  0.1206032E+00
         -2   -1    0    0    0  501 -0.00000000000E+00  0.00000000000E+00  0.49854351729E+02  0.49854351729E+02  0.00000000000E+00 0.  1.
          2   -1    0    0  501    0  0.00000000000E+00 -0.00000000000E+00 -0.67452380950E+03  0.67452380950E+03  0.00000000000E+00 0. -1.
         25    2    1    2    0    0  0.57625203034E+01 -0.11008501806E+03 -0.52159702026E+03  0.54759716885E+03  0.12508912803E+03 0.  0.
          5    1    3    3  502    0 -0.55143690873E+02 -0.83060627179E+02 -0.29989865157E+03  0.31606418343E+03  0.41800000000E+01 0.  1.
         -5    1    3    3    0  502  0.60906211176E+02 -0.27024390881E+02 -0.22169836869E+03  0.23153298543E+03  0.41800000000E+01 0.  1.
        -11    1    1    2    0    0  0.19831000120E+02  0.89679110465E+02 -0.11002126533E+03  0.14331884121E+03  0.00000000000E+00 0. -1.
         11    1    1    2    0    0 -0.25593520424E+02  0.20405907596E+02  0.69488278235E+01  0.33462151165E+02  0.00000000000E+00 0.  1.
</event>
<event>
 7    1  0.2855090E-009  0.1080755E+03  0.7561462E-02  0.1264176E+00
          2   -1    0    0  501    0  0.00000000000E+00  0.00000000000E+00  0.16711608728E+03  0.16711608728E+03  0.00000000000E+00 0. -1.
         -2   -1    0    0    0  501 -0.00000000000E+00 -0.00000000000E+00 -0.12251782869E+03  0.12251782869E+03  0.00000000000E+00 0.  1.
         25    2    1    2    0    0 -0.30594305238E+02  0.71978074464E+02  0.75224185543E+02  0.16560008801E+03  0.12509139196E+03 0.  0.
          5    1    3    3  502    0  0.43451946601E+01  0.89801194832E+02  0.86234291670E+02  0.12464734562E+03  0.41800000000E+01 0.  1.
         -5    1    3    3    0  502 -0.34939499898E+02 -0.17823120368E+02 -0.11010106127E+02  0.40952742396E+02  0.41800000000E+01 0.  1.
        -11    1    1    2    0    0  0.19109866381E+02 -0.72725030445E+02 -0.57591629191E+02  0.94714902730E+02  0.00000000000E+00 0.  1.
         11    1    1    2    0    0  0.11484438857E+02  0.74695598051E+00  0.26965702239E+02  0.29318925224E+02  0.00000000000E+00 0. -1.
</event>
<event>
 7    1  0.2855090E-009  0.1417465E+03  0.7561462E-02  0.1210998E+00
         -2   -1    0    0    0  501 -0.00000000000E+00  0.00000000000E+00  0.30178047792E+02  0.30178047792E+02  0.00000000000E+00 0.  1.
          2   -1    0    0  501    0  0.00000000000E+00 -0.00000000000E+00 -0.11554756284E+04  0.11554756284E+04  0.00000000000E+00 0. -1.
         25    2    1    2    0    0  0.10404137058E+03 -0.69753960388E+02 -0.87437276182E+03  0.89211277325E+03  0.12508897556E+03 0.  0.
          5    1    3    3  502    0  0.98743949946E+02 -0.81429075827E+02 -0.45920561779E+03  0.47672668674E+03  0.41800000000E+01 0. -1.
         -5    1    3    3    0  502  0.52974206325E+01  0.11675115439E+02 -0.41516714403E+03  0.41538608651E+03  0.41800000000E+01 0. -1.
        -11    1    1    2    0    0 -0.83493696949E+02  0.82819008267E+02 -0.15494335829E+03  0.19451897038E+03  0.00000000000E+00 0.  1.
         11    1    1    2    0    0 -0.20547673629E+02 -0.13065047879E+02 -0.95981460451E+02  0.99021932510E+02  0.00000000000E+00 0. -1.
</event>
<event>
 7    1  0.2855090E-009  0.1041508E+03  0.7561462E-02  0.1271802E+00
         -2   -1    0    0    0  501 -0.00000000000E+00  0.00000000000E+00  0.41507545036E+02  0.41507545036E+02  0.00000000000E+00 0.  1.
          2   -1    0    0  501    0  0.00000000000E+00 -0.00000000000E+00 -0.43636713849E+03  0.43636713849E+03  0.00000000000E+00 0. -1.
         25    2    1    2    0    0 -0.62038005595E+02  0.26401338857E+02 -0.14111976232E+03  0.20025377164E+03  0.12506414716E+03 0.  0.
          5    1    3    3  502    0  0.28267287014E+01  0.30130628321E+02  0.12805639268E+02  0.33125548376E+02  0.41800000000E+01 0. -1.
         -5    1    3    3    0  502 -0.64864734297E+02 -0.37292894631E+01 -0.15392540159E+03  0.16712822326E+03  0.41800000000E+01 0. -1.
        -11    1    1    2    0    0 -0.11808250493E+02 -0.36268737672E+02 -0.86774475432E+02  0.94787476486E+02  0.00000000000E+00 0.  1.
         11    1    1    2    0    0  0.73846256088E+02  0.98673988149E+01 -0.16696535569E+03  0.18283343540E+03  0.00000000000E+00 0. -1.
</event>
<event>
 7    1  0.2855090E-009  0.2220883E+03  0.7561462E-02  0.1132336E+00
          2   -1    0    0  501    0  0.00000000000E+00  0.00000000000E+00  0.92050497441E+03  0.92050497441E+03  0.00000000000E+00 0. -1.
         -2   -1    0    0    0  501 -0.00000000000E+00 -0.00000000000E+00 -0.64649009368E+02  0.64649009368E+02  0.00000000000E+00 0.  1.
         25    2    1    2    0    0  0.16621173859E+03  0.13062426102E+03  0.57055974792E+03  0.62119008920E+03  0.12509860656E+03 0.  0.
          5    1    3    3  502    0  0.29496072432E+02  0.81461589017E+02  0.12215848088E+03  0.14982047799E+03  0.41800000000E+01 0.  1.
         -5    1    3    3    0  502  0.13671566616E+03  0.49162672002E+02  0.44840126704E+03  0.47136961121E+03  0.41800000000E+01 0.  1.
        -11    1    1    2    0    0 -0.10095672197E+02 -0.13828675831E+02 -0.14818054123E+01  0.17185767938E+02  0.00000000000E+00 0.  1.
         11    1    1    2    0    0 -0.15611606640E+03 -0.11679558519E+03  0.28677802254E+03  0.34677812664E+03  0.00000000000E+00 0. -1.
</event>
<event>
 7    1  0.2855090E-009  0.9950186E+02  0.7561462E-02  0.1281347E+00
         -2   -1    0    0    0  501 -0.00000000000E+00  0.00000000000E+00  0.14273354559E+03  0.14273354559E+03  0.00000000000E+00 0.  1.
          2   -1    0    0  501    0  0.00000000000E+00 -0.00000000000E+00 -0.89196549726E+02  0.89196549726E+02  0.00000000000E+00 0. -1.
         25    2    1    2    0    0 -0.24642014410E+02  0.16334347997E+02  0.32838456796E+02  0.13266222512E+03  0.12508741716E+03 0.  0.
          5    1    3    3  502    0 -0.56164001370E+02  0.33767913779E+02  0.58734612712E+02  0.88101612819E+02  0.41800000000E+01 0. -1.
         -5    1    3    3    0  502  0.31521986960E+02 -0.17433565782E+02 -0.25896155916E+02  0.44560612305E+02  0.41800000000E+01 0. -1.
        -11    1    1    2    0    0  0.35339300031E+02 -0.50294254436E+02  0.13875302392E+02  0.63015094798E+02  0.00000000000E+00 0. -1.
         11    1    1    2    0    0 -0.10697285621E+02  0.33959906438E+02  0.68232366731E+01  0.36252775392E+02  0.00000000000E+00 0.  1.
</event>
<event>
 7    1  0.3142248E-009  0.9880071E+02  0.7561462E-02  0.1282838E+00
         -2   -1    0    0    0  501 -0.00000000000E+00  0.00000000000E+00  0.12001065622E+02  0.12001065622E+02  0.00000000000E+00 0. -1.
          2   -1    0    0  501    0  0.00000000000E+00 -0.00000000000E+00 -0.10286368019E+04  0.10286368019E+04  0.00000000000E+00 0.  1.
         25    2    1    2    0    0 -0.13672168708E+02 -0.16838073241E+02 -0.62199229128E+03  0.63481788253E+03  0.12509550214E+03 0.  0.
          5    1    3    3  502    0  0.19771175711E+02 -0.52590651581E+02 -0.14925982226E+03  0.15953884468E+03  0.41800000000E+01 0.  1.
         -5    1    3    3    0  502 -0.33443344419E+02  0.35752578341E+02 -0.47273246902E+03  0.47527903784E+03  0.41800000000E+01 0.  1.
        -11    1    1    2    0    0  0.49723230267E+02 -0.50065921152E+01 -0.16741588623E+03  0.17471561051E+03  0.00000000000E+00 0.  1.
         11    1    1    2    0    0 -0.36051061559E+02  0.21844665356E+02 -0.22722755881E+03  0.23110437453E+03  0.00000000000E+00 0. -1.
</event>
<event>
 7    1  0.2855090E-009  0.9824148E+02  0.7561462E-02  0.1284038E+00
         -1   -1    0    0    0  501 -0.00000000000E+00  0.00000000000E+00  0.15613393726E+03  0.15613393726E+03  0.00000000000E+00 0. -1.
          1   -1    0    0  501    0  0.00000000000E+00 -0.00000000000E+00 -0.89328614647E+02  0.89328614647E+02  0.00000000000E+00 0.  1.
         25    2    1    2    0    0  0.46661188643E+02  0.29546830109E+00  0.36638217685E+02  0.13844573947E+03  0.12509000742E+03 0.  0.
          5    1    3    3  502    0 -0.39060409133E+02  0.72073481796E+01 -0.90815715894E+01  0.40958622681E+02  0.41800000000E+01 0.  1.
         -5    1    3    3    0  502  0.85721597776E+02 -0.69118798785E+01  0.45719789274E+02  0.97487116790E+02  0.41800000000E+01 0.  1.
        -11    1    1    2    0    0  0.91412352588E+01  0.10162154134E+02 -0.24593830430E+02  0.28136951753E+02  0.00000000000E+00 0.  1.
         11    1    1    2    0    0 -0.55802423902E+02 -0.10457622435E+02  0.54760935360E+02  0.78879860686E+02  0.00000000000E+00 0. -1.
</event>
<event>
 7    1  0.2855090E-009  0.1014767E+03  0.7561462E-02  0.1277221E+00
         -1   -1    0    0    0  501 -0.00000000000E+00  0.00000000000E+00  0.60077274854E+03  0.60077274854E+03  0.00000000000E+00 0.  1.
          1   -1    0    0  501    0  0.00000000000E+00 -0.00000000000E+00 -0.26498232825E+02  0.26498232825E+02  0.00000000000E+00 0. -1.
         25    2    1    2    0    0 -0.64339962917E+02 -0.16310157271E+01  0.31725618153E+03  0.34704636322E+03  0.12508957775E+03 0.  0.
          5    1    3    3  502    0 -0.18396901339E+02  0.42445888444E+02  0.36341798911E+02  0.58977098714E+02  0.41800000000E+01 0.  1.
         -5    1    3    3    0  502 -0.45943061578E+02 -0.44076904171E+02  0.28091438262E+03  0.28806926450E+03  0.41800000000E+01 0.  1.
        -11    1    1    2    0    0 -0.88218146031E+01 -0.15247619579E+02  0.66318073089E+01  0.18822730511E+02  0.00000000000E+00 0. -1.
         11    1    1    2    0    0  0.73161777520E+02  0.16878635306E+02  0.25038652688E+03  0.26140188764E+03  0.00000000000E+00 0.  1.
</event>
<event>
 7    1  0.2855090E-009  0.3669426E+03  0.7561462E-02  0.1055868E+00
          2   -1    0    0  501    0  0.00000000000E+00  0.00000000000E+00  0.19390856711E+04  0.19390856711E+04  0.00000000000E+00 0. -1.
         -2   -1    0    0    0  501 -0.00000000000E+00 -0.00000000000E+00 -0.79563238633E+02  0.79563238633E+02  0.00000000000E+00 0.  1.
         25    2    1    2    0    0 -0.24845193742E+03 -0.24903809520E+03  0.59113059914E+03  0.69916574265E+03  0.12509601266E+03 0.  0.
          5    1    3    3  502    0 -0.13885252177E+03 -0.21407762643E+03  0.44685039029E+03  0.51458915325E+03  0.41800000000E+01 0. -1.
         -5    1    3    3    0  502 -0.10959941565E+03 -0.34960468767E+02  0.14428020885E+03  0.18457658940E+03  0.41800000000E+01 0. -1.
        -11    1    1    2    0    0  0.47929558007E+02  0.10875512673E+03  0.40460249508E+03  0.42169669094E+03  0.00000000000E+00 0.  1.
         11    1    1    2    0    0  0.20052237941E+03  0.14028296847E+03  0.86378933828E+03  0.89778647618E+03  0.00000000000E+00 0. -1.
</event>
<event>
 7    1  0.2855090E-009  0.2401935E+03  0.7561462E-02  0.1119664E+00
         -4   -1    0    0    0  501 -0.00000000000E+00  0.00000000000E+00  0.18601220245E+04  0.18601220245E+04  0.00000000000E+00 0.  1.
          4   -1    0    0  501    0  0.00000000000E+00 -0.00000000000E+00 -0.34219560174E+02  0.34219560174E+02  0.00000000000E+00 0. -1.
         25    2    1    2    0    0 -0.21009002318E+03 -0.45206392695E+02  0.12051806094E+04  0.12305646751E+04  0.12509069720E+03 0.  0.
          5    1    3    3  502    0 -0.84070111187E+02 -0.80446773282E+02  0.50496056806E+03  0.51821049258E+03  0.41800000000E+01 0. -1.
         -5    1    3    3    0  502 -0.12601991200E+03  0.35240380587E+02  0.70022004139E+03  0.71235418256E+03  0.41800000000E+01 0. -1.
        -11    1    1    2    0    0  0.54267394062E+02 -0.27777626276E+02  0.12572001344E+03  0.13972139550E+03  0.00000000000E+00 0.  1.
         11    1    1    2    0    0  0.15582262912E+03  0.72984018971E+02  0.49500184146E+03  0.52405551407E+03  0.00000000000E+00 0. -1.
</event>
<event>
 7    1  0.2855090E-009  0.2224691E+03  0.7561462E-02  0.1132056E+00
         -1   -1    0    0    0  501 -0.00000000000E+00  0.00000000000E+00  0.91576979070E+02  0.91576979070E+02  0.00000000000E+00 0.  1.
          1   -1    0    0  501    0  0.00000000000E+00 -0.00000000000E+00 -0.78968174999E+03  0.78968174999E+03  0.00000000000E+00 0. -1.
         25    2    1    2    0    0  0.16103716851E+03 -0.12103151725E+03 -0.12713557517E+03  0.26905963318E+03  0.12509210176E+03 0.  0.
          5    1    3    3  502    0  0.25862159007E+02 -0.78889580976E+02 -0.90216793882E+02  0.12267420085E+03  0.41800000000E+01 0. -1.
         -5    1    3    3    0  502  0.13517500950E+03 -0.42141936279E+02 -0.36918781287E+02  0.14638543233E+03  0.41800000000E+01 0. -1.
        -11    1    1    2    0    0  0.19030445680E+01  0.36587754584E+02 -0.77955131568E+02  0.86135288366E+02  0.00000000000E+00 0. -1.
         11    1    1    2    0    0 -0.16294021308E+03  0.84443762671E+02 -0.49301406418E+03  0.52606380751E+03  0.00000000000E+00 0.  1.
</event>
<event>
 7    1  0.2855090E-009  0.1268337E+03  0.7561462E-02  0.1232231E+00
          1   -1    0    0  501    0  0.00000000000E+00  0.00000000000E+00  0.96319664245E+02  0.96319664245E+02  0.00000000000E+00 0. -1.
         -1   -1    0    0    0  501 -0.00000000000E+00 -0.00000000000E+00 -0.58251882720E+03  0.58251882720E+03  0.00000000000E+00 0.  1.
         25    2    1    2    0    0  0.32959151476E+02 -0.57738538649E+02  0.30966076841E+02  0.14501337451E+03  0.12509970568E+03 0.  0.
          5    1    3    3  502    0 -0.38745688957E+02 -0.18719974340E+02 -0.21091188614E+02  0.48103809508E+02  0.41800000000E+01 0.  1.
         -5    1    3    3    0  502  0.71704840433E+02 -0.39018564309E+02  0.52057265456E+02  0.96909565003E+02  0.41800000000E+01 0.  1.
        -11    1    1    2    0    0 -0.30896584379E+02 -0.28735998697E+02 -0.23288057753E+03  0.23667217821E+03  0.00000000000E+00 0.  1.
         11    1    1    2    0    0 -0.20625670974E+01  0.86474537347E+02 -0.28428466227E+03  0.29715293872E+03  0.00000000000E+00 0. -1.
</event>
<event>
 7    1  0.2855090E-009  0.2221804E+03  0.7561462E-02  0.1132268E+00
          1   -1    0    0  501    0  0.00000000000E+00  0.00000000000E+00  0.18296574463E+04  0.18296574463E+04  0.00000000000E+00 0.  1.
         -1   -1    0    0    0  501 -0.00000000000E+00 -0.00000000000E+00 -0.36041348822E+02  0.36041348822E+02  0.00000000000E+00 0. -1.
         25    2    1    2    0    0 -0.16569884251E+03 -0.12869897203E+03  0.12799375356E+04  0.13030376264E+04  0.12508968283E+03 0.  0.
          5    1    3    3  502    0 -0.10807030267E+03 -0.21580955352E+02  0.40781166477E+03  0.42246035823E+03  0.41800000000E+01 0. -1.
         -5    1    3    3    0  502 -0.57628539836E+02 -0.10711801667E+03  0.87212587086E+03  0.88057726812E+03  0.41800000000E+01 0. -1.
        -11    1    1    2    0    0  0.75146334016E+02  0.79177168375E+02  0.36992178625E+03  0.38569174668E+03  0.00000000000E+00 0.  1.
         11    1    1    2    0    0  0.90552508490E+02  0.49521803651E+02  0.14375677561E+03  0.17696942212E+03  0.00000000000E+00 0. -1.
</event>
<event>
 7    1  0.2855090E-009  0.1075712E+03  0.7561462E-02  0.1265135E+00
          4   -1    0    0  501    0  0.00000000000E+00  0.00000000000E+00  0.45509817110E+03  0.45509817110E+03  0.00000000000E+00 0. -1.
         -4   -1    0    0    0  501 -0.00000000000E+00 -0.00000000000E+00 -0.39256789098E+02  0.39256789098E+02  0.00000000000E+00 0.  1.
         25    2    1    2    0    0  0.39383403098E+02 -0.46802840063E+02  0.14303041286E+03  0.19961668203E+03  0.12509021730E+03 0.  0.
          5    1    3    3  502    0  0.13272927760E+01  0.26725929334E+02 -0.72067463383E+01  0.28025820196E+02  0.41800000000E+01 0.  1.
         -5    1    3    3    0  502  0.38056110322E+02 -0.73528769397E+02  0.15023715920E+03  0.17159086184E+03  0.41800000000E+01 0.  1.
        -11    1    1    2    0    0 -0.39721567418E+02 -0.15659517019E+02  0.65216537625E+02  0.77950113349E+02  0.00000000000E+00 0.  1.
         11    1    1    2    0    0  0.33816432051E+00  0.62462357082E+02  0.20759443152E+03  0.21678816482E+03  0.00000000000E+00 0. -1.
</event>
<event>
 7    1  0.2855090E-009  0.1689033E+03  0.7561462E-02  0.1178996E+00
         -1   -1    0    0    0  501 -0.00000000000E+00  0.00000000000E+00  0.63454619439E+03  0.63454619439E+03  0.00000000000E+00 0.  1.
          1   -1    0    0  501    0  0.00000000000E+00 -0.00000000000E+00 -0.53220110971E+02  0.53220110971E+02  0.00000000000E+00 0. -1.
         25    2    1    2    0    0 -0.13377689500E+03 -0.11614412602E+02  0.18987069042E+03  0.26406454427E+03  0.12509217500E+03 0.  0.
          5    1    3    3  502    0 -0.41994675487E+02 -0.63175433175E+02  0.59853306159E+02  0.96719071461E+02  0.41800000000E+01 0. -1.
         -5    1    3    3    0  502 -0.91782219509E+02  0.51561020573E+02  0.13001738426E+03  0.16734547281E+03  0.41800000000E+01 0. -1.
        -11    1    1    2    0    0  0.59336736866E+02  0.45413754101E+02  0.24293957337E+03  0.25417099306E+03  0.00000000000E+00 0.  1.
         11    1    1    2    0    0  0.74440158130E+02 -0.33799341499E+02  0.14851581962E+03  0.16953076802E+03  0.00000000000E+00 0. -1.
</event>
<event>
 7    1  0.3779171E-009  0.1270794E+03  0.7561462E-02  0.1231855E+00
         -1   -1    0    0    0  501 -0.00000000000E+00  0.00000000000E+00  0.15377996078E+03  0.15377996078E+03  0.00000000000E+00 0.  1.
          1   -1    0    0  501    0  0.00000000000E+00 -0.00000000000E+00 -0.29466129086E+03  0.29466129086E+03  0.00000000000E+00 0. -1.
         25    2    1    2    0    0  0.77571443954E+02  0.14171022227E+02  0.10027751691E+03  0.17866408804E+03  0.12508848536E+03 0.  0.
          5    1    3    3  502    0  0.10163815969E+03 -0.12388174322E+02  0.99107834988E+02  0.14256092636E+03  0.41800000000E+01 0.  1.
         -5    1    3    3    0  502 -0.24066715736E+02  0.26559196549E+02  0.11696819223E+01  0.36103161682E+02  0.41800000000E+01 0.  1.
        -11    1    1    2    0    0 -0.58182217518E+02  0.31371460573E+02 -0.97200930388E+02  0.11754726642E+03  0.00000000000E+00 0.  1.
         11    1    1    2    0    0 -0.19389226436E+02 -0.45542482800E+02 -0.14395791661E+03  0.15222989718E+03  0.00000000000E+00 0. -1.
</event>
<event>
 7    1  0.2855090E-009  0.9620610E+02  0.7561462E-02  0.1288483E+00
          2   -1    0    0  501    0  0.00000000000E+00  0.00000000000E+00  0.11688018199E+04  0.11688018199E+04  0.00000000000E+00 0. -1.
         -2   -1    0    0    0  501 -0.00000000000E+00 -0.00000000000E+00 -0.12675765428E+02  0.12675765428E+02  0.00000000000E+00 0.  1.
         25    2    1    2    0    0  0.27458031529E+02  0.34555572508E+02  0.80882322858E+03  0.81962869177E+03  0.12509255051E+03 0.  0.
          5    1    3    3  502    0  0.19260764373E+02  0.60336424586E+02  0.76713555952E+03  0.76975703976E+03  0.41800000000E+01 0. -1.
         -5    1    3    3    0  502  0.81972671555E+01 -0.25780852078E+02  0.41687669063E+02  0.49871652014E+02  0.41800000000E+01 0. -1.
        -11    1    1    2    0    0 -0.56631109335E+02 -0.38197658880E+00  0.19362921861E+03  0.20174117763E+03  0.00000000000E+00 0.  1.
         11    1    1    2    0    0  0.29173077806E+02 -0.34173595920E+02  0.15367360732E+03  0.16010771597E+03  0.00000000000E+00 0. -1.
</event>
<event>
 7    1  0.2855090E-009  0.1214178E+03  0.7561462E-02  0.1240776E+00
          1   -1    0    0  501    0  0.00000000000E+00  0.00000000000E+00  0.43516602554E+03  0.43516602554E+03  0.00000000000E+00 0. -1.
         -1   -1    0    0    0  501 -0.00000000000E+00 -0.00000000000E+00 -0.41438227038E+02  0.41438227038E+02  0.00000000000E+00 0.  1.
         25    2    1    2    0    0  0.76308412938E+02  0.13474719184E+02  0.18609237224E+03  0.23724930960E+03  0.12510924009E+03 0.  0.
          5    1    3    3  502    0 -0.31950036453E+02  0.22153569739E+01  0.18067941685E+02  0.37008587552E+02  0.41800000000E+01 0. -1.
         -5    1    3    3    0  502  0.10825844939E+03  0.11259362210E+02  0.16802443056E+03  0.20024072205E+03  0.41800000000E+01 0. -1.
        -11    1    1    2    0    0 -0.89312587606E+01 -0.30780742130E+02  0.13511469051E+03  0.13886396602E+03  0.00000000000E+00 0.  1.
         11    1    1    2    0    0 -0.67377154178E+02  0.17306022947E+02  0.72520735757E+02  0.10049097696E+03  0.00000000000E+00 0. -1.
</event>
<event>
 7    1  0.2855090E-009  0.7896395E+02  0.7561462E-02  0.1332018E+00
         -1   -1    0    0    0  501 -0.00000000000E+00  0.00000000000E+00  0.61531840342E+02  0.61531840342E+02  0.00000000000E+00 0.  1.
          1   -1    0    0  501    0  0.00000000000E+00 -0.00000000000E+00 -0.22652030813E+03  0.22652030813E+03  0.00000000000E+00 0. -1.
         25    2    1    2    0    0 -0.68980192903E+01 -0.45433705089E+02 -0.12088655507E+03  0.17992447847E+03  0.12508978586E+03 0.  0.
          5    1    3    3  502    0  0.26543033537E+02 -0.41678321654E+02  0.47273577422E+01  0.49814008436E+02  0.41800000000E+01 0. -1.
         -5    1    3    3    0  502 -0.33441052827E+02 -0.37553834354E+01 -0.12561391282E+03  0.13011047003E+03  0.41800000000E+01 0. -1.
        -11    1    1    2    0    0  0.27342393724E+02  0.46514864477E+02 -0.61103223900E+02  0.81515906931E+02  0.00000000000E+00 0. -1.
         11    1    1    2    0    0 -0.20444374433E+02 -0.10811593880E+01  0.17001311188E+02  0.26611763070E+02  0.00000000000E+00 0.  1.
</event>
<event>
 7    1  0.4341430E-009  0.1245716E+03  0.7561462E-02  0.1235740E+00
         -1   -1    0    0    0  501 -0.00000000000E+00  0.00000000000E+00  0.49237411055E+02  0.49237411055E+02  0.00000000000E+00 0.  1.
          1   -1    0    0  501    0  0.00000000000E+00 -0.00000000000E+00 -0.43890725827E+03  0.43890725827E+03  0.00000000000E+00 0. -1.
         25    2    1    2    0    0  0.90985064482E+02 -0.47021547962E+01 -0.14636021723E+03  0.21300228004E+03  0.12509302897E+03 0.  0.
          5    1    3    3  502    0  0.30668491043E+02  0.38931706881E+02 -0.11290282649E+01  0.49749183394E+02  0.41800000000E+01 0. -1.
         -5    1    3    3    0  502  0.60316573439E+02 -0.43633861678E+02 -0.14523118896E+03  0.16325309664E+03  0.41800000000E+01 0. -1.
        -11    1    1    2    0    0 -0.37036290879E+02 -0.40196009467E+02 -0.75163234956E+02  0.92935019816E+02  0.00000000000E+00 0.  1.
         11    1    1    2    0    0 -0.53948773603E+02  0.44898164264E+02 -0.16814639503E+03  0.18220736947E+03  0.00000000000E+00 0. -1.
</event>
<event>
 7    1  0.2855090E-009  0.9156240E+02  0.7561462E-02  0.1299112E+00
          2   -1    0    0  501    0  0.00000000000E+00  0.00000000000E+00  0.24503498196E+03  0.24503498196E+03  0.00000000000E+00 0.  1.
         -2   -1    0    0    0  501 -0.00000000000E+00 -0.00000000000E+00 -0.59147553336E+02  0.59147553336E+02  0.00000000000E+00 0. -1.
         25    2    1    2    0    0 -0.27124854917E+02 -0.43663679706E+02  0.89712182714E+02  0.16229039751E+03  0.12509045814E+03 0.  0.
          5    1    3    3  502    0  0.13746470563E+02 -0.74009975669E+02  0.80677236690E+02  0.11042069947E+03  0.41800000000E+01 0. -1.
         -5    1    3    3    0  502 -0.40871325480E+02  0.30346295963E+02  0.90349460245E+01  0.51869698041E+02  0.41800000000E+01 0. -1.
        -11    1    1    2    0    0  0.16506856138E+02  0.42951773653E+02  0.11298575538E+03  0.12199636092E+03  0.00000000000E+00 0.  1.
         11    1    1    2    0    0  0.10617998779E+02  0.71190605280E+00 -0.16810509471E+02  0.19895776863E+02  0.00000000000E+00 0. -1.
</event>
<event>
 7    1  0.2855090E-009  0.1116200E+03  0.7561462E-02  0.1257599E+00
          2   -1    0    0  501    0  0.00000000000E+00  0.00000000000E+00  0.16228395250E+03  0.16228395250E+03  0.00000000000E+00 0. -1.
         -2   -1    0    0    0  501 -0.00000000000E+00 -0.00000000000E+00 -0.95027839944E+02  0.95027839944E+02  0.00000000000E+00 0.  1.
         25    2    1    2    0    0 -0.48613318327E+02 -0.16772137762E+02  0.46245070217E+01  0.13531875456E+03  0.12508085363E+03 0.  0.
          5    1    3    3  502    0 -0.30106374219E+02 -0.71159964423E+02  0.67810746332E+01  0.77676184757E+02  0.41800000000E+01 0. -1.
         -5    1    3    3    0  502 -0.18506944109E+02  0.54387826661E+02 -0.21565676115E+01  0.57642569798E+02  0.41800000000E+01 0. -1.
        -11    1    1    2    0    0 -0.68665322076E+00 -0.24166627666E+02 -0.90762964209E+01  0.25823952875E+02  0.00000000000E+00 0.  1.
         11    1    1    2    0    0  0.49299971548E+02  0.40938765428E+02  0.71707901958E+02  0.96169085015E+02  0.00000000000E+00 0. -1.
</event>
<event>
 7    1  0.3225246E-009  0.6491360E+02  0.7561462E-02  0.1378297E+00
         -1   -1    0    0    0  501 -0.00000000000E+00  0.00000000000E+00  0.31758736221E+02  0.31758736221E+02  0.00000000000E+00 0.  1.
          1   -1    0    0  501    0  0.00000000000E+00 -0.00000000000E+00 -0.44506751962E+03  0.44506751962E+03  0.00000000000E+00 0. -1.
         25    2    1    2    0    0  0.12100773994E+02  0.25007950330E+02 -0.31487518087E+03  0.33995050563E+03  0.12509252752E+03 0.  0.
          5    1    3    3  502    0  0.81089174713E+01  0.41988635569E+02 -0.31872192298E+03  0.32160524972E+03  0.41800000000E+01 0.  1.
         -5    1    3    3    0  502  0.39918565232E+01 -0.16980685239E+02  0.38467421088E+01  0.18345255914E+02  0.41800000000E+01 0.  1.
        -11    1    1    2    0    0  0.25550540005E+02 -0.16200800902E+02  0.91473484165E+00  0.30267685479E+02  0.00000000000E+00 0.  1.
         11    1    1    2    0    0 -0.37651314000E+02 -0.88071494278E+01 -0.99348337364E+02  0.10660806472E+03  0.00000000000E+00 0. -1.
</event>
<event>
 7    1  0.2855090E-009  0.1046535E+03  0.7561462E-02  0.1270804E+00
          2   -1    0    0  501    0  0.00000000000E+00  0.00000000000E+00  0.43205999702E+03  0.43205999702E+03  0.00000000000E+00 0. -1.
         -2   -1    0    0    0  501 -0.00000000000E+00 -0.00000000000E+00 -0.50945764197E+02  0.50945764197E+02  0.00000000000E+00 0.  1.
         25    2    1    2    0    0 -0.64327836144E+02  0.63196488772E+02  0.27706834138E+03  0.31708990049E+03  0.12508905828E+03 0.  0.
          5    1    3    3  502    0 -0.12069070566E+02 -0.22589016504E+01  0.20811831227E+03  0.20852210771E+03  0.41800000000E+01 0.  1.
         -5    1    3    3    0  502 -0.52258765578E+02  0.65455390423E+02  0.68950029109E+02  0.10856779278E+03  0.41800000000E+01 0.  1.
        -11    1    1    2    0    0 -0.18040197580E+01  0.12114837479E+02 -0.87288858814E+01  0.15040519378E+02  0.00000000000E+00 0.  1.
         11    1    1    2    0    0  0.66131855902E+02 -0.75311326251E+02  0.11277477733E+03  0.15087534135E+03  0.00000000000E+00 0. -1.
</event>
<event>
 7    1  0.2855090E-009  0.1286410E+03  0.7561462E-02  0.1229486E+00
          2   -1    0    0  501    0  0.00000000000E+00  0.00000000000E+00  0.55011513918E+03  0.55011513918E+03  0.00000000000E+00 0. -1.
         -2   -1    0    0    0  501 -0.00000000000E+00 -0.00000000000E+00 -0.43016377095E+02  0.43016377095E+02  0.00000000000E+00 0.  1.
         25    2    1    2    0    0 -0.64744034726E+02  0.81847822447E+02  0.20639729004E+03  0.26294083989E+03  0.12508872000E+03 0.  0.
          5    1    3    3  502    0  0.44549730827E+01 -0.96648255010E+01 -0.11770451693E+02  0.16409496342E+02  0.41800000000E+01 0.  1.
         -5    1    3    3    0  502 -0.69199007809E+02  0.91512647948E+02  0.21816774173E+03  0.24653134354E+03  0.41800000000E+01 0.  1.
        -11    1    1    2    0    0  0.37762616432E+02 -0.94110821003E+02  0.18739447388E+03  0.21307170312E+03  0.00000000000E+00 0.  1.
         11    1    1    2    0    0  0.26981418294E+02  0.12262998555E+02  0.11330699816E+03  0.11711897326E+03  0.00000000000E+00 0. -1.
</event>
<event>
 7    1  0.2855090E-009  0.2694395E+03  0.7561462E-02  0.1101601E+00
         -2   -1    0    0    0  501 -0.00000000000E+00  0.00000000000E+00  0.37870747462E+02  0.37870747462E+02  0.00000000000E+00 0. -1.
          2   -1    0    0  501    0  0.00000000000E+00 -0.00000000000E+00 -0.20567218063E+04  0.20567218063E+04  0.00000000000E+00 0.  1.
         25    2    1    2    0    0 -0.20370163222E+03 -0.15217822398E+03 -0.11725904891E+04  0.12063450785E+04  0.12508967317E+03 0.  0.
          5    1    3    3  502    0 -0.14939986960E+03 -0.15941846175E+03 -0.78380411248E+03  0.81369584375E+03  0.41800000000E+01 0.  1.
         -5    1    3    3    0  502 -0.54301762617E+02  0.72402377641E+01 -0.38878637662E+03  0.39264923470E+03  0.41800000000E+01 0.  1.
        -11    1    1    2    0    0  0.81146290148E+02  0.16918915683E+02 -0.34412723571E+03  0.35396966603E+03  0.00000000000E+00 0.  1.
         11    1    1    2    0    0  0.12255534207E+03  0.13525930830E+03 -0.50213333399E+03  0.53427780925E+03  0.00000000000E+00 0. -1.
</event>
<event>
 7    1  0.2855090E-009  0.9994989E+02  0.7561462E-02  0.1280401E+00
          1   -1    0    0  501    0  0.00000000000E+00  0.00000000000E+00  0.15682223550E+03  0.15682223550E+03  0.00000000000E+00 0. -1.
         -1   -1    0    0    0  501 -0.00000000000E+00 -0.00000000000E+00 -0.13475523478E+03  0.13475523478E+03  0.00000000000E+00 0.  1.
         25    2    1    2    0    0  0.59244430407E+02 -0.36133838873E+02 -0.55082537425E+02  0.15328650348E+03  0.12508840623E+03 0.  0.
          5    1    3    3  502    0 -0.49504190042E+01 -0.16721878836E+02  0.35929433381E+02  0.40156250612E+02  0.41800000000E+01 0. -1.
         -5    1    3    3    0  502  0.64194849411E+02 -0.19411960037E+02 -0.91011970806E+02  0.11313025287E+03  0.41800000000E+01 0. -1.
        -11    1    1    2    0    0 -0.30868321532E+02 -0.29852309053E+02  0.28806551689E+02  0.51709100265E+02  0.00000000000E+00 0.  1.
         11    1    1    2    0    0 -0.28376108875E+02  0.65986147927E+02  0.48342986454E+02  0.86581866533E+02  0.00000000000E+00 0. -1.
</event>
<event>
 7    1  0.2855090E-009  0.7218809E+02  0.7561462E-02  0.1352807E+00
         -4   -1    0    0    0  501 -0.00000000000E+00  0.00000000000E+00  0.12084705973E+02  0.12084705973E+02  0.00000000000E+00 0.  1.
          4   -1    0    0  501    0  0.00000000000E+00 -0.00000000000E+00 -0.10350767343E+04  0.10350767343E+04  0.00000000000E+00 0. -1.
         25    2    1    2    0    0 -0.25318945184E+02  0.18699423275E+02 -0.59186493029E+03  0.60575741841E+03  0.12508891571E+03 0.  0.
          5    1    3    3  502    0 -0.23575843526E+01 -0.11462335666E+02 -0.54585625159E+03  0.54599767686E+03  0.41800000000E+01 0.  1.
         -5    1    3    3    0  502 -0.22961360831E+02  0.30161758941E+02 -0.46008678703E+02  0.59759741546E+02  0.41800000000E+01 0.  1.
        -11    1    1    2    0    0  0.32667766130E+02  0.30125500123E+02 -0.17443291941E+03  0.18000436682E+03  0.00000000000E+00 0. -1.
         11    1    1    2    0    0 -0.73488209466E+01 -0.48824923398E+02 -0.25669417865E+03  0.26139965507E+03  0.00000000000E+00 0.  1.
</event>
<event>
 7    1  0.2855090E-009  0.1039806E+03  0.7561462E-02  0.1272141E+00
         -2   -1    0    0    0  501 -0.00000000000E+00  0.00000000000E+00  0.43650278913E+02  0.43650278913E+02  0.00000000000E+00 0.  1.
          2   -1    0    0  501    0  0.00000000000E+00 -0.00000000000E+00 -0.40736583950E+03  0.40736583950E+03  0.00000000000E+00 0. -1.
         25    2    1    2    0    0 -0.43787380293E+02 -0.59820266464E+02 -0.17550526539E+03  0.22791378063E+03  0.12508714669E+03 0.  0.
          5    1    3    3  502    0 -0.33539916927E+02 -0.55128691850E+01 -0.16862193735E+03  0.17206437141E+03  0.41800000000E+01 0.  1.
         -5    1    3    3    0  502 -0.10247463366E+02 -0.54307397279E+02 -0.68833280400E+01  0.55849409214E+02  0.41800000000E+01 0.  1.
        -11    1    1    2    0    0 -0.28873349215E+02  0.22512925786E+02 -0.75488130283E+02  0.83898509736E+02  0.00000000000E+00 0.  1.
         11    1    1    2    0    0  0.72660729507E+02  0.37307340678E+02 -0.11272216492E+03  0.13920382805E+03  0.00000000000E+00 0. -1.
</event>
<event>
 7    1  0.2855090E-009  0.1061764E+03  0.7561462E-02  0.1267819E+00
          2   -1    0    0  501    0  0.00000000000E+00  0.00000000000E+00  0.63331857426E+02  0.63331857426E+02  0.00000000000E+00 0. -1.
         -2   -1    0    0    0  501 -0.00000000000E+00 -0.00000000000E+00 -0.20965510293E+03  0.20965510293E+03  0.00000000000E+00 0.  1.
         25    2    1    2    0    0  0.99146635110E+01  0.27113170202E+02 -0.11153301174E+03  0.17006120201E+03  0.12509106752E+03 0.  0.
          5    1    3    3  502    0  0.65426332308E+02  0.54122642004E+01 -0.40539959912E+02  0.77271329177E+02  0.41800000000E+01 0.  1.
         -5    1    3    3    0  502 -0.55511668797E+02  0.21700906002E+02 -0.70993051823E+02  0.92789872837E+02  0.41800000000E+01 0.  1.
        -11    1    1    2    0    0 -0.16526665310E+02 -0.55378832048E+02 -0.43818050803E+02  0.72525631893E+02  0.00000000000E+00 0.  1.
         11    1    1    2    0    0  0.66120017992E+01  0.28265661846E+02  0.90278170386E+01  0.30400126445E+02  0.00000000000E+00 0. -1.
</event>
<event>
 7    1  0.2855090E-009  0.1143252E+03  0.7561462E-02  0.1252764E+00
         -2   -1    0    0    0  501 -0.00000000000E+00  0.00000000000E+00  0.89091521038E+02  0.89091521038E+02  0.00000000000E+00 0.  1.
          2   -1    0    0  501    0  0.00000000000E+00 -0.00000000000E+00 -0.42596063175E+03  0.42596063175E+03  0.00000000000E+00 0. -1.
         25    2    1    2    0    0  0.75637619425E+01  0.46870673988E+02  0.27437365780E+02  0.13658108078E+03  0.12509001564E+03 0.  0.
          5    1    3    3  502    0  0.59690803958E+02  0.49146895824E+01  0.34367484897E+02  0.69179062360E+02  0.41800000000E+01 0. -1.
         -5    1    3    3    0  502 -0.52127042016E+02  0.41955984405E+02 -0.69301191164E+01  0.67402018425E+02  0.41800000000E+01 0. -1.
        -11    1    1    2    0    0 -0.47894601381E+02 -0.15077872735E+02 -0.15371264055E+03  0.16170593976E+03  0.00000000000E+00 0.  1.
         11    1    1    2    0    0  0.40330839438E+02 -0.31792801253E+02 -0.21059383594E+03  0.21676513225E+03  0.00000000000E+00 0. -1.
</event>
<event>
 7    1  0.2855092E-009  0.5913921E+02  0.7561462E-02  0.1401480E+00
          2   -1    0    0  501    0  0.00000000000E+00  0.00000000000E+00  0.16344947580E+03  0.16344947580E+03  0.00000000000E+00 0. -1.
         -2   -1    0    0    0  501 -0.00000000000E+00 -0.00000000000E+00 -0.10751287809E+03  0.10751287809E+03  0.00000000000E+00 0.  1.
         25    2    1    2    0    0  0.25359496908E+01  0.52308322623E+02 -0.25433041459E+02  0.13797424603E+03  0.12508981298E+03 0.  0.
          5    1    3    3  502    0 -0.17136705602E+01  0.37928296704E+01 -0.70942943676E+02  0.71187750920E+02  0.41800000000E+01 0.  1.
         -5    1    3    3    0  502  0.42496202510E+01  0.48515492953E+02  0.45509902217E+02  0.66786495106E+02  0.41800000000E+01 0.  1.
        -11    1    1    2    0    0 -0.18852312881E+02 -0.21186295387E+02 -0.13799484232E+02  0.31538778959E+02  0.00000000000E+00 0.  1.
         11    1    1    2    0    0  0.16316363191E+02 -0.31122027236E+02  0.95169123401E+02  0.10144932891E+03  0.00000000000E+00 0. -1.
</event>
<event>
 7    1  0.2855090E-009  0.6979101E+02  0.7561462E-02  0.1360805E+00
          2   -1    0    0  501    0  0.00000000000E+00  0.00000000000E+00  0.99464610912E+03  0.99464610912E+03  0.00000000000E+00 0. -1.
         -2   -1    0    0    0  501 -0.00000000000E+00 -0.00000000000E+00 -0.23246553668E+02  0.23246553668E+02  0.00000000000E+00 0.  1.
         25    2    1    2    0    0  0.36607956658E+01  0.20951414306E+02  0.86886623425E+03  0.87808342423E+03  0.12509837610E+03 0.  0.
          5    1    3    3  502    0 -0.17539271158E+02 -0.32848948291E+02  0.96129777059E+02  0.10317502544E+03  0.41800000000E+01 0. -1.
         -5    1    3    3    0  502  0.21200066823E+02  0.53800362596E+02  0.77273645719E+03  0.77490839879E+03  0.41800000000E+01 0. -1.
        -11    1    1    2    0    0 -0.21225834142E+02 -0.10333259623E+02  0.11391790728E+03  0.11633830791E+03  0.00000000000E+00 0. -1.
         11    1    1    2    0    0  0.17565038476E+02 -0.10618154682E+02 -0.11384586072E+02  0.23470930649E+02  0.00000000000E+00 0.  1.
</event>
<event>
 7    1  0.2855090E-009  0.1296084E+03  0.7561462E-02  0.1228038E+00
         -1   -1    0    0    0  501 -0.00000000000E+00  0.00000000000E+00  0.44295881840E+02  0.44295881840E+02  0.00000000000E+00 0.  1.
          1   -1    0    0  501    0  0.00000000000E+00 -0.00000000000E+00 -0.86451717458E+03  0.86451717458E+03  0.00000000000E+00 0. -1.
         25    2    1    2    0    0  0.37107652321E+02  0.90226221728E+02 -0.73603277257E+03  0.75293465050E+03  0.12509435113E+03 0.  0.
          5    1    3    3  502    0  0.59711860774E+02  0.16095532062E+02 -0.15814756093E+03  0.16986081330E+03  0.41800000000E+01 0.  1.
         -5    1    3    3    0  502 -0.22604208453E+02  0.74130689665E+02 -0.57788521164E+03  0.58307383720E+03  0.41800000000E+01 0.  1.
        -11    1    1    2    0    0 -0.55890982514E+02 -0.81707895001E+02 -0.90687306419E+02  0.13425412313E+03  0.00000000000E+00 0. -1.
         11    1    1    2    0    0  0.18783330192E+02 -0.85183267268E+01  0.64987862480E+01  0.21624282787E+02  0.00000000000E+00 0.  1.
</event>
<event>
 7    1  0.2855090E-009  0.1114739E+03  0.7561462E-02  0.1257864E+00
         -4   -1    0    0    0  501 -0.00000000000E+00  0.00000000000E+00  0.97608084704E+02  0.97608084704E+02  0.00000000000E+00 0.  1.
          4   -1    0    0  501    0  0.00000000000E+00 -0.00000000000E+00 -0.18171859011E+03  0.18171859011E+03  0.00000000000E+00 0. -1.
         25    2    1    2    0    0 -0.49611898171E+02 -0.60110935451E+02 -0.42035157211E+02  0.15326183790E+03  0.12509025347E+03 0.  0.
          5    1    3    3  502    0 -0.82538185238E+01  0.19442911594E+02 -0.58202684750E+02  0.62057854004E+02  0.41800000000E+01 0.  1.
         -5    1    3    3    0  502 -0.41358079647E+02 -0.79553847045E+02  0.16167527538E+02  0.91203983896E+02  0.41800000000E+01 0.  1.
        -11    1    1    2    0    0  0.63375285746E+02  0.15881432175E+02 -0.45499599409E+02  0.79616959737E+02  0.00000000000E+00 0. -1.
         11    1    1    2    0    0 -0.13763387576E+02  0.44229503276E+02  0.34242512175E+01  0.46447877174E+02  0.00000000000E+00 0.  1.
</event>
<event>
 7    1  0.2855090E-009  0.1459521E+03  0.7561462E-02  0.1205537E+00
          1   -1    0    0  501    0  0.00000000000E+00  0.00000000000E+00  0.18292769155E+03  0.18292769155E+03  0.00000000000E+00 0. -1.
         -1   -1    0    0    0  501 -0.00000000000E+00 -0.00000000000E+00 -0.15371248519E+03  0.15371248519E+03  0.00000000000E+00 0.  1.
         25    2    1    2    0    0 -0.13114023056E+03  0.27798390108E+02  0.41428401606E+02  0.18797491206E+03  0.12509094507E+03 0.  0.
          5    1    3    3  502    0 -0.24426926859E+02  0.42077977673E+02  0.61340230261E+02  0.78404892764E+02  0.41800000000E+01 0.  1.
         -5    1    3    3    0  502 -0.10671330370E+03 -0.14279587565E+02 -0.19911828655E+02  0.10957001929E+03  0.41800000000E+01 0.  1.
        -11    1    1    2    0    0  0.28649520431E+02  0.16224189926E+01 -0.28913000515E+02  0.40735597002E+02  0.00000000000E+00 0.  1.
         11    1    1    2    0    0  0.10249071013E+03 -0.29420809101E+02  0.16699805272E+02  0.10792966768E+03  0.00000000000E+00 0. -1.
</event>
<event>
 7    1  0.2855090E-009  0.1045959E+03  0.7561462E-02  0.1270918E+00
          2   -1    0    0  501    0  0.00000000000E+00  0.00000000000E+00  0.51920710509E+03  0.51920710509E+03  0.00000000000E+00 0. -1.
         -2   -1    0    0    0  501 -0.00000000000E+00 -0.00000000000E+00 -0.47524282832E+02  0.47524282832E+02  0.00000000000E+00 0.  1.
         25    2    1    2    0    0  0.76063799275E+02 -0.31302639471E+02  0.11371026441E+03  0.18799551726E+03  0.12508690370E+03 0.  0.
          5    1    3    3  502    0  0.59077777353E+01 -0.22169758361E+02 -0.23784424575E+02  0.33310227798E+02  0.41800000000E+01 0. -1.
         -5    1    3    3    0  502  0.70156021540E+02 -0.91328811092E+01  0.13749468899E+03  0.15468528946E+03  0.41800000000E+01 0. -1.
        -11    1    1    2    0    0 -0.56130782757E+02  0.58634802935E+02  0.17830918418E+03  0.19591546659E+03  0.00000000000E+00 0.  1.
         11    1    1    2    0    0 -0.19933016518E+02 -0.27332163464E+02  0.17966337367E+03  0.18282040407E+03  0.00000000000E+00 0. -1.
</event>
<event>
 7    1  0.2855090E-009  0.2259144E+03  0.7561462E-02  0.1129549E+00
         -1   -1    0    0    0  501 -0.00000000000E+00  0.00000000000E+00  0.22307846401E+03  0.22307846401E+03  0.00000000000E+00 0.  1.
          1   -1    0    0  501    0  0.00000000000E+00 -0.00000000000E+00 -0.31875057265E+03  0.31875057265E+03  0.00000000000E+00 0. -1.
         25    2    1    2    0    0  0.15840235626E+03 -0.15402529810E+03  0.55411057597E+02  0.25986480556E+03  0.12507690810E+03 0.  0.
          5    1    3    3  502    0  0.15874932926E+03 -0.13259847018E+03  0.84515080141E+02  0.22348148695E+03  0.41800000000E+01 0.  1.
         -5    1    3    3    0  502 -0.34697300140E+00 -0.21426827923E+02 -0.29104022545E+02  0.36383318614E+02  0.41800000000E+01 0.  1.
        -11    1    1    2    0    0 -0.72066773287E+02  0.48965022460E+02 -0.12872335225E+02  0.88073209609E+02  0.00000000000E+00 0. -1.
         11    1    1    2    0    0 -0.86335582976E+02  0.10506027564E+03 -0.13821083101E+03  0.19389102149E+03  0.00000000000E+00 0.  1.
</event>
<event>
 7    1  0.2855090E-009  0.1385981E+03  0.7561462E-02  0.1215228E+00
          1   -1    0    0  501    0  0.00000000000E+00  0.00000000000E+00  0.46512998230E+03  0.46512998230E+03  0.00000000000E+00 0. -1.
         -1   -1    0    0    0  501 -0.00000000000E+00 -0.00000000000E+00 -0.54040372883E+02  0.54040372883E+02  0.00000000000E+00 0.  1.
         25    2    1    2    0    0  0.10373984418E+03 -0.11035723066E+02  0.13901116616E+03  0.21413811818E+03  0.12508911578E+03 0.  0.
          5    1    3    3  502    0  0.17582966893E+02 -0.60200688920E+02  0.44076999174E+02  0.76769381444E+02  0.41800000000E+01 0.  1.
         -5    1    3    3    0  502  0.86156877285E+02  0.49164965854E+02  0.94934166986E+02  0.13736873674E+03  0.41800000000E+01 0.  1.
        -11    1    1    2    0    0 -0.54705255722E+02  0.30106839733E+02  0.60260589774E+02  0.86778024189E+02  0.00000000000E+00 0.  1.
         11    1    1    2    0    0 -0.49034588456E+02 -0.19071116668E+02  0.21181785348E+03  0.21825421281E+03  0.00000000000E+00 0. -1.
</event>
<event>
 7    1  0.2855090E-009  0.3011528E+03  0.7561462E-02  0.1084666E+00
          2   -1    0    0  501    0  0.00000000000E+00  0.00000000000E+00  0.20108841671E+03  0.20108841671E+03  0.00000000000E+00 0. -1.
         -2   -1    0    0    0  501 -0.00000000000E+00 -0.00000000000E+00 -0.49615265877E+03  0.49615265877E+03  0.00000000000E+00 0.  1.
         25    2    1    2    0    0  0.22236058341E+03 -0.18884679469E+03 -0.92269324244E+02  0.33055861156E+03  0.12509207231E+03 0.  0.
          5    1    3    3  502    0  0.22429551233E+03 -0.17893178518E+03 -0.55595496215E+02  0.29228991121E+03  0.41800000000E+01 0. -1.
         -5    1    3    3    0  502 -0.19349289126E+01 -0.99150095134E+01 -0.36673828029E+02  0.38268700342E+02  0.41800000000E+01 0. -1.
        -11    1    1    2    0    0 -0.23853031932E+02 -0.77049528683E+01 -0.87566564763E+01  0.26552070798E+02  0.00000000000E+00 0.  1.
         11    1    1    2    0    0 -0.19850755148E+03  0.19655174756E+03 -0.19403826134E+03  0.34013039313E+03  0.00000000000E+00 0. -1.
</event>
<event>
 7    1  0.2855090E-009  0.1379625E+03  0.7561462E-02  0.1216097E+00
          3   -1    0    0  501    0  0.00000000000E+00  0.00000000000E+00  0.36580052713E+03  0.36580052713E+03  0.00000000000E+00 0. -1.
         -3   -1    0    0    0  501 -0.00000000000E+00 -0.00000000000E+00 -0.63022281126E+02  0.63022281126E+02  0.00000000000E+00 0.  1.
         25    2    1    2    0    0  0.44988512274E+02  0.87104313853E+02  0.21781697790E+03  0.26963349595E+03  0.12508740363E+03 0.  0.
          5    1    3    3  502    0  0.60340432335E+02  0.11064289260E+03  0.14908278912E+03  0.19525872035E+03  0.41800000000E+01 0.  1.
         -5    1    3    3    0  502 -0.15351920061E+02 -0.23538578749E+02  0.68734188777E+02  0.74374775602E+02  0.41800000000E+01 0.  1.
        -11    1    1    2    0    0  0.19539669604E+02 -0.26216515853E+02  0.57795673961E+02  0.66403646890E+02  0.00000000000E+00 0. -1.
         11    1    1    2    0    0 -0.64528181878E+02 -0.60887798000E+02  0.27165594140E+02  0.92785665417E+02  0.00000000000E+00 0.  1.
</event>
<event>
 7    1  0.2855090E-009  0.2714825E+03  0.7561462E-02  0.1100434E+00
         -2   -1    0    0    0  501 -0.00000000000E+00  0.00000000000E+00  0.30103969040E+02  0.30103969040E+02  0.00000000000E+00 0.  1.
          2   -1    0    0  501    0  0.00000000000E+00 -0.00000000000E+00 -0.26837612224E+04  0.26837612224E+04  0.00000000000E+00 0. -1.
         25    2    1    2    0    0  0.21483364433E+03 -0.13949807956E+03 -0.16280055412E+04  0.16527737283E+04  0.12508295600E+03 0.  0.
          5    1    3    3  502    0  0.54723041494E+02  0.19178933580E+02 -0.40639827817E+03  0.41053559610E+03  0.41800000000E+01 0. -1.
         -5    1    3    3    0  502  0.16011060284E+03 -0.15867701314E+03 -0.12216072631E+04  0.12422381322E+04  0.41800000000E+01 0. -1.
        -11    1    1    2    0    0 -0.16398468368E+03  0.12588146671E+03 -0.92136083762E+03  0.94426845401E+03  0.00000000000E+00 0. -1.
         11    1    1    2    0    0 -0.50848960651E+02  0.13616612844E+02 -0.10429087447E+03  0.11682300904E+03  0.00000000000E+00 0.  1.
</event>
<event>
 7    1  0.2855090E-009  0.1711850E+03  0.7561462E-02  0.1176618E+00
         -1   -1    0    0    0  501 -0.00000000000E+00  0.00000000000E+00  0.73848609771E+02  0.73848609771E+02  0.00000000000E+00 0.  1.
          1   -1    0    0  501    0  0.00000000000E+00 -0.00000000000E+00 -0.42506960578E+03  0.42506960578E+03  0.00000000000E+00 0. -1.
         25    2    1    2    0    0  0.93655806397E+02  0.93398779560E+02 -0.24829973338E+03  0.30788776733E+03  0.12508947830E+03 0.  0.
          5    1    3    3  502    0  0.91706760107E+02  0.36040892748E+01 -0.11719685717E+03  0.14891505981E+03  0.41800000000E+01 0. -1.
         -5    1    3    3    0  502  0.19490462895E+01  0.89794690285E+02 -0.13110287621E+03  0.15897270752E+03  0.41800000000E+01 0. -1.
        -11    1    1    2    0    0 -0.11147107136E+03 -0.87841629044E+02 -0.86740466113E+02  0.16633057447E+03  0.00000000000E+00 0. -1.
         11    1    1    2    0    0  0.17815264959E+02 -0.55571505159E+01 -0.16180796523E+02  0.24699873755E+02  0.00000000000E+00 0.  1.
</event>
<event>
 7    1  0.2855090E-009  0.1161185E+03  0.7561462E-02  0.1249641E+00
         -1   -1    0    0    0  501 -0.00000000000E+00  0.00000000000E+00  0.13653071585E+03  0.13653071585E+03  0.00000000000E+00 0.  1.
          1   -1    0    0  501    0  0.00000000000E+00 -0.00000000000E+00 -0.12394216689E+03  0.12394216689E+03  0.00000000000E+00 0. -1.
         25    2    1    2    0    0 -0.14431480762E+02 -0.69803098066E+02  0.10735192010E+02  0.14437506375E+03  0.12509266385E+03 0.  0.
          5    1    3    3  502    0 -0.48627957041E+02 -0.68137672864E+02  0.45529317287E+02  0.95382450177E+02  0.41800000000E+01 0.  1.
         -5    1    3    3    0  502  0.34196476278E+02 -0.16654252018E+01 -0.34794125277E+02  0.48992613574E+02  0.41800000000E+01 0.  1.
        -11    1    1    2    0    0  0.33178728378E+02 -0.78103887464E+01 -0.96561757306E+01  0.35426994212E+02  0.00000000000E+00 0. -1.
         11    1    1    2    0    0 -0.18747247615E+02  0.77613486812E+02  0.11509532679E+02  0.80670824781E+02  0.00000000000E+00 0.  1.
</event>
<event>
 7    1  0.2855090E-009  0.1791249E+03  0.7561462E-02  0.1168653E+00
         -1   -1    0    0    0  501 -0.00000000000E+00  0.00000000000E+00  0.17550097532E+03  0.17550097532E+03  0.00000000000E+00 0.  1.
          1   -1    0    0  501    0  0.00000000000E+00 -0.00000000000E+00 -0.33200507871E+03  0.33200507871E+03  0.00000000000E+00 0. -1.
         25    2    1    2    0    0 -0.14854417917E+03 -0.49082385349E+02 -0.23056719260E+03  0.30542260639E+03  0.12508910613E+03 0.  0.
          5    1    3    3  502    0  0.14183644700E+02 -0.19190612069E+02 -0.35563755033E+01  0.24486232362E+02  0.41800000000E+01 0.  1.
         -5    1    3    3    0  502 -0.16272782387E+03 -0.29891773279E+02 -0.22701081709E+03  0.28093637402E+03  0.41800000000E+01 0.  1.
        -11    1    1    2    0    0  0.68437541916E+02 -0.97522901853E+01 -0.12537758834E+02  0.70256670174E+02  0.00000000000E+00 0. -1.
         11    1    1    2    0    0  0.80106637255E+02  0.58834675534E+02  0.86600848041E+02  0.13182677747E+03  0.00000000000E+00 0.  1.
</event>
<event>
 7    1  0.2855090E-009  0.1089912E+03  0.7561462E-02  0.1262450E+00
         -1   -1    0    0    0  501 -0.00000000000E+00  0.00000000000E+00  0.63044528187E+02  0.63044528187E+02  0.00000000000E+00 0.  1.
          1   -1    0    0  501    0  0.00000000000E+00 -0.00000000000E+00 -0.33489471849E+03  0.33489471849E+03  0.00000000000E+00 0. -1.
         25    2    1    2    0    0 -0.63836479959E+02 -0.59951382512E+02 -0.19428627478E+03  0.24711195570E+03  0.12509155703E+03 0.  0.
          5    1    3    3  502    0 -0.15024547288E+01 -0.49360521517E+02 -0.78198109557E+01  0.50173103333E+02  0.41800000000E+01 0.  1.
         -5    1    3    3    0  502 -0.62334025230E+02 -0.10590860995E+02 -0.18646646383E+03  0.19693885236E+03  0.41800000000E+01 0.  1.
        -11    1    1    2    0    0  0.32345773278E+01 -0.11163713582E+02 -0.52942723943E+02  0.54203533187E+02  0.00000000000E+00 0. -1.
         11    1    1    2    0    0  0.60601902631E+02  0.71115096094E+02 -0.24621191574E+02  0.96623757790E+02  0.00000000000E+00 0.  1.
</event>
<event>
 7    1  0.2855090E-009  0.9541233E+02  0.7561462E-02  0.1290250E+00
          1   -1    0    0  501    0  0.00000000000E+00  0.00000000000E+00  0.40955831465E+02  0.40955831465E+02  0.00000000000E+00 0. -1.
         -1   -1    0    0    0  501 -0.00000000000E+00 -0.00000000000E+00 -0.35330302805E+03  0.35330302805E+03  0.00000000000E+00 0.  1.
         25    2    1    2    0    0  0.35526498198E+02  0.75656124847E+01 -0.24059453993E+03  0.27359121293E+03  0.12508816323E+03 0.  0.
          5    1    3    3  502    0 -0.26169597809E+02  0.18080420537E+02 -0.19087081160E+03  0.19354815570E+03  0.41800000000E+01 0. -1.
         -5    1    3    3    0  502  0.61696096007E+02 -0.10514808052E+02 -0.49723728338E+02  0.80043057230E+02  0.41800000000E+01 0. -1.
        -11    1    1    2    0    0  0.89351803488E+01 -0.39998340700E+02 -0.39277837882E+02  0.56766656193E+02  0.00000000000E+00 0.  1.
         11    1    1    2    0    0 -0.44461678547E+02  0.32432728215E+02 -0.32474818768E+02  0.63900990389E+02  0.00000000000E+00 0. -1.
</event>
<event>
 7    1  0.2855090E-009  0.1072564E+03  0.7561462E-02  0.1265737E+00
         -1   -1    0    0    0  501 -0.00000000000E+00  0.00000000000E+00  0.42496038335E+02  0.42496038335E+02  0.00000000000E+00 0.  1.
          1   -1    0    0  501    0  0.00000000000E+00 -0.00000000000E+00 -0.31353243432E+03  0.31353243432E+03  0.00000000000E+00 0. -1.
         25    2    1    2    0    0 -0.13268330135E+02 -0.14651895236E+02 -0.12175416098E+03  0.17568032210E+03  0.12509505682E+03 0.  0.
          5    1    3    3  502    0  0.17637654539E+02  0.43747198945E+02 -0.91208325792E+02  0.10276835781E+03  0.41800000000E+01 0.  1.
         -5    1    3    3    0  502 -0.30905984674E+02 -0.58399094181E+02 -0.30545835183E+02  0.72911964292E+02  0.41800000000E+01 0.  1.
        -11    1    1    2    0    0  0.55885785806E+02 -0.74599024390E-02 -0.88775213337E+02  0.10490118976E+03  0.00000000000E+00 0. -1.
         11    1    1    2    0    0 -0.42617455671E+02  0.14659355138E+02 -0.60507021677E+02  0.75446960795E+02  0.00000000000E+00 0.  1.
</event>
<event>
 7    1  0.2855090E-009  0.7799741E+02  0.7561462E-02  0.1334833E+00
         -2   -1    0    0    0  501 -0.00000000000E+00  0.00000000000E+00  0.15606074494E+02  0.15606074494E+02  0.00000000000E+00 0.  1.
          2   -1    0    0  501    0  0.00000000000E+00 -0.00000000000E+00 -0.10173698691E+04  0.10173698691E+04  0.00000000000E+00 0. -1.
         25    2    1    2    0    0  0.17532907688E+02  0.84140226711E+01 -0.81024629491E+03  0.82007633267E+03  0.12509170376E+03 0.  0.
          5    1    3    3  502    0  0.26780310770E+02  0.33042694641E+02 -0.77355829430E+03  0.77473796331E+03  0.41800000000E+01 0.  1.
         -5    1    3    3    0  502 -0.92474030827E+01 -0.24628671970E+02 -0.36688000609E+02  0.45338369352E+02  0.41800000000E+01 0.  1.
        -11    1    1    2    0    0  0.22322225579E+02 -0.32963662638E+02 -0.50432230389E+02  0.64251806755E+02  0.00000000000E+00 0.  1.
         11    1    1    2    0    0 -0.39855133266E+02  0.24549639967E+02 -0.14108526926E+03  0.14864780413E+03  0.00000000000E+00 0. -1.
</event>
<event>
 7    1  0.2855090E-009  0.1235263E+03  0.7561462E-02  0.1237391E+00
         -2   -1    0    0    0  501 -0.00000000000E+00  0.00000000000E+00  0.30803562152E+02  0.30803562152E+02  0.00000000000E+00 0.  1.
          2   -1    0    0  501    0  0.00000000000E+00 -0.00000000000E+00 -0.51755155356E+03  0.51755155356E+03  0.00000000000E+00 0. -1.
         25    2    1    2    0    0  0.57133797709E+02 -0.35377205025E+02 -0.28950481103E+03  0.32245208935E+03  0.12508595782E+03 0.  0.
          5    1    3    3  502    0  0.95852448415E+02 -0.36460925350E+02 -0.19871421314E+03  0.22365576641E+03  0.41800000000E+01 0. -1.
         -5    1    3    3    0  502 -0.38718650706E+02  0.10837203249E+01 -0.90790597882E+02  0.98796322937E+02  0.41800000000E+01 0. -1.
        -11    1    1    2    0    0 -0.66365320887E+01 -0.25506642822E+02 -0.81951647403E+02  0.86085451142E+02  0.00000000000E+00 0. -1.
         11    1    1    2    0    0 -0.50497265621E+02  0.60883847847E+02 -0.11529153298E+03  0.13981757522E+03  0.00000000000E+00 0.  1.
</event>
<event>
 7    1  0.2855090E-009  0.1032463E+03  0.7561462E-02  0.1273614E+00
         -1   -1    0    0    0  501 -0.00000000000E+00  0.00000000000E+00  0.69758276427E+03  0.69758276427E+03  0.00000000000E+00 0.  1.
          1   -1    0    0  501    0  0.00000000000E+00 -0.00000000000E+00 -0.20838320873E+02  0.20838320873E+02  0.00000000000E+00 0. -1.
         25    2    1    2    0    0 -0.20850249886E+02  0.20671401346E+02  0.49665647412E+03  0.51301006009E+03  0.12509847607E+03 0.  0.
          5    1    3    3  502    0 -0.67414623233E+02 -0.46227226027E+01  0.36133732221E+03  0.36762512674E+03  0.41800000000E+01 0. -1.
         -5    1    3    3    0  502  0.46564373347E+02  0.25294123949E+02  0.13531915191E+03  0.14538493335E+03  0.41800000000E+01 0. -1.
        -11    1    1    2    0    0  0.51534360253E+02 -0.18931458983E+02  0.15880592884E+03  0.16802831149E+03  0.00000000000E+00 0.  1.
         11    1    1    2    0    0 -0.30684110367E+02 -0.17399423631E+01  0.21282040439E+02  0.37382713567E+02  0.00000000000E+00 0. -1.
</event>
<event>
 7    1  0.2855090E-009  0.1913090E+03  0.7561462E-02  0.1157286E+00
          2   -1    0    0  501    0  0.00000000000E+00  0.00000000000E+00  0.16532989526E+04  0.16532989526E+04  0.00000000000E+00 0.  1.
         -2   -1    0    0    0  501 -0.00000000000E+00 -0.00000000000E+00 -0.42842441108E+02  0.42842441108E+02  0.00000000000E+00 0. -1.
         25    2    1    2    0    0  0.16486222992E+03 -0.10750879518E+02  0.13940647585E+04  0.14093822272E+04  0.12508627053E+03 0.  0.
          5    1    3    3  502    0  0.14389258926E+03 -0.47805798244E+02  0.12479084787E+04  0.12570932803E+04  0.41800000000E+01 0. -1.
         -5    1    3    3    0  502  0.20969640659E+02  0.37054918726E+02  0.14615627977E+03  0.15228894690E+03  0.41800000000E+01 0. -1.
        -11    1    1    2    0    0 -0.48816997291E+02 -0.38417456685E+02  0.72881599700E+02  0.95763916887E+02  0.00000000000E+00 0. -1.
         11    1    1    2    0    0 -0.11604523263E+03  0.49168336203E+02  0.14351015333E+03  0.19099524970E+03  0.00000000000E+00 0.  1.
</event>
<event>
 7    1  0.2855090E-009  0.2321124E+03  0.7561462E-02  0.1125162E+00
          2   -1    0    0  501    0  0.00000000000E+00  0.00000000000E+00  0.10876669454E+04  0.10876669454E+04  0.00000000000E+00 0.  1.
         -2   -1    0    0    0  501 -0.00000000000E+00 -0.00000000000E+00 -0.79498051420E+02  0.79498051420E+02  0.00000000000E+00 0. -1.
         25    2    1    2    0    0  0.60231443796E+02  0.21714640101E+03  0.82301930228E+03  0.86243357746E+03  0.12510202764E+03 0.  0.
          5    1    3    3  502    0  0.51548259173E+02  0.20833271298E+03  0.57002421697E+03  0.60910165215E+03  0.41800000000E+01 0.  1.
         -5    1    3    3    0  502  0.86831846229E+01  0.88136880260E+01  0.25299508530E+03  0.25333192531E+03  0.41800000000E+01 0.  1.
        -11    1    1    2    0    0 -0.75928685898E+02 -0.15772714591E+03  0.16361559451E+03  0.23961026829E+03  0.00000000000E+00 0.  1.
         11    1    1    2    0    0  0.15697242103E+02 -0.59419255092E+02  0.21533997226E+02  0.65121151110E+02  0.00000000000E+00 0. -1.
</event>
<event>
 7    1  0.2855090E-009  0.1392777E+03  0.7561462E-02  0.1214304E+00
         -3   -1    0    0    0  501 -0.00000000000E+00  0.00000000000E+00  0.35002442417E+02  0.35002442417E+02  0.00000000000E+00 0.  1.
          3   -1    0    0  501    0  0.00000000000E+00 -0.00000000000E+00 -0.75321180856E+03  0.75321180856E+03  0.00000000000E+00 0. -1.
         25    2    1    2    0    0  0.69130582457E+02  0.94832241696E+02 -0.45413938258E+03  0.48545077279E+03  0.12509069709E+03 0.  0.
          5    1    3    3  502    0  0.51238976125E+01 -0.81435895815E+01 -0.23285887346E+03  0.23309504441E+03  0.41800000000E+01 0.  1.
         -5    1    3    3    0  502  0.64006684844E+02  0.10297583128E+03 -0.22128050912E+03  0.25235572839E+03  0.41800000000E+01 0.  1.
        -11    1    1    2    0    0  0.17215207943E+02 -0.42315952625E+02 -0.10203619512E+03  0.11179619111E+03  0.00000000000E+00 0. -1.
         11    1    1    2    0    0 -0.86345790400E+02 -0.52516289072E+02 -0.16203378844E+03  0.19096728708E+03  0.00000000000E+00 0.  1.
</event>
<event>
 7    1  0.2855090E-009  0.1124906E+03  0.7561462E-02  0.1256026E+00
          2   -1    0    0  501    0  0.00000000000E+00  0.00000000000E+00  0.29665467785E+04  0.29665467785E+04  0.00000000000E+00 0. -1.
         -2   -1    0    0    0  501 -0.00000000000E+00 -0.00000000000E+00 -0.16134682365E+02  0.16134682365E+02  0.00000000000E+00 0.  1.
         25    2    1    2    0    0 -0.81675638720E+02  0.58758704189E+02  0.26282608158E+04  0.26331587288E+04  0.12508588842E+03 0.  0.
          5    1    3    3  502    0 -0.19604828001E+02 -0.75609811087E+01  0.68252228651E+02  0.71535703198E+02  0.41800000000E+01 0.  1.
         -5    1    3    3    0  502 -0.62070810719E+02  0.66319685298E+02  0.25600085872E+04  0.25616230256E+04  0.41800000000E+01 0.  1.
        -11    1    1    2    0    0  0.44933393993E+02 -0.19567488725E+01  0.23464322879E+03  0.23891480402E+03  0.00000000000E+00 0. -1.
         11    1    1    2    0    0  0.36742244727E+02 -0.56801955316E+02  0.87508051457E+02  0.11060792804E+03  0.00000000000E+00 0.  1.
</event>
<event>
 7    1  0.2855090E-009  0.1188479E+03  0.7561462E-02  0.1245010E+00
         -2   -1    0    0    0  501 -0.00000000000E+00  0.00000000000E+00  0.27951137374E+03  0.27951137374E+03  0.00000000000E+00 0.  1.
          2   -1    0    0  501    0  0.00000000000E+00 -0.00000000000E+00 -0.64483557307E+02  0.64483557307E+02  0.00000000000E+00 0. -1.
         25    2    1    2    0    0 -0.35918569011E+02 -0.52208774265E+02  0.17974092551E+03  0.22796997922E+03  0.12509041295E+03 0.  0.
          5    1    3    3  502    0 -0.66131425440E+02 -0.72721330233E+02  0.15526104622E+03  0.18380756832E+03  0.41800000000E+01 0.  1.
         -5    1    3    3    0  502  0.30212856429E+02  0.20512555968E+02  0.24479879300E+02  0.44162410900E+02  0.41800000000E+01 0.  1.
        -11    1    1    2    0    0 -0.22091819749E+02 -0.32158089872E+01 -0.93601456245E+01  0.24207483417E+02  0.00000000000E+00 0. -1.
         11    1    1    2    0    0  0.58010388761E+02  0.55424583252E+02  0.44647036546E+02  0.91817468410E+02  0.00000000000E+00 0.  1.
</event>
<event>
 7    1  0.2855090E-009  0.8303371E+02  0.7561462E-02  0.1320656E+00
         -2   -1    0    0    0  501 -0.00000000000E+00  0.00000000000E+00  0.36959867763E+02  0.36959867763E+02  0.00000000000E+00 0.  1.
          2   -1    0    0  501    0  0.00000000000E+00 -0.00000000000E+00 -0.45592389645E+03  0.45592389645E+03  0.00000000000E+00 0. -1.
         25    2    1    2    0    0  0.11256130028E+02  0.55417243949E+02 -0.15510747759E+03  0.20713757585E+03  0.12509945777E+03 0.  0.
          5    1    3    3  502    0 -0.70832905057E+01  0.57800008674E+02 -0.81339531192E+01  0.58946141523E+02  0.41800000000E+01 0. -1.
         -5    1    3    3    0  502  0.18339420534E+02 -0.23827647247E+01 -0.14697352447E+03  0.14819143433E+03  0.41800000000E+01 0. -1.
        -11    1    1    2    0    0 -0.31507766890E+02 -0.19695023515E+01 -0.25352117382E+02  0.40488864761E+02  0.00000000000E+00 0.  1.
         11    1    1    2    0    0  0.20251636861E+02 -0.53447741597E+02 -0.23850443372E+03  0.24525732361E+03  0.00000000000E+00 0. -1.
</event>
<event>
 7    1  0.2855090E-009  0.1137211E+03  0.7561462E-02  0.1253830E+00
         -1   -1    0    0    0  501 -0.00000000000E+00  0.00000000000E+00  0.42661037932E+02  0.42661037932E+02  0.00000000000E+00 0.  1.
          1   -1    0    0  501    0  0.00000000000E+00 -0.00000000000E+00 -0.33431560306E+03  0.33431560306E+03  0.00000000000E+00 0. -1.
         25    2    1    2    0    0  0.15759050649E+02  0.45730924668E+02 -0.13729668679E+03  0.19192761576E+03  0.12508462871E+03 0.  0.
          5    1    3    3  502    0 -0.47013166802E+02 -0.66302696756E+01 -0.75839265094E+02  0.89572679198E+02  0.41800000000E+01 0.  1.
         -5    1    3    3    0  502  0.62772217451E+02  0.52361194344E+02 -0.61457421698E+02  0.10235493656E+03  0.41800000000E+01 0.  1.
        -11    1    1    2    0    0 -0.79681664458E+01 -0.71021047733E+02 -0.86439328959E+02  0.11215720435E+03  0.00000000000E+00 0.  1.
         11    1    1    2    0    0 -0.77908842031E+01  0.25290123065E+02 -0.67918549377E+02  0.72891820877E+02  0.00000000000E+00 0. -1.
</event>
<event>
 7    1  0.2855090E-009  0.1591503E+03  0.7561462E-02  0.1189659E+00
         -1   -1    0    0    0  501 -0.00000000000E+00  0.00000000000E+00  0.76053170584E+02  0.76053170584E+02  0.00000000000E+00 0. -1.
          1   -1    0    0  501    0  0.00000000000E+00 -0.00000000000E+00 -0.74783999705E+03  0.74783999705E+03  0.00000000000E+00 0.  1.
         25    2    1    2    0    0 -0.12773975330E+03 -0.25060032184E+01 -0.54338182465E+02  0.18688867047E+03  0.12510400654E+03 0.  0.
          5    1    3    3  502    0 -0.53831427169E+02 -0.60570587666E+02 -0.43825329656E+02  0.92221204507E+02  0.41800000000E+01 0. -1.
         -5    1    3    3    0  502 -0.73908326130E+02  0.58064584448E+02 -0.10512852809E+02  0.94667465967E+02  0.41800000000E+01 0. -1.
        -11    1    1    2    0    0  0.96526994883E+02  0.30415341834E+02 -0.53548981334E+03  0.54496962663E+03  0.00000000000E+00 0.  1.
         11    1    1    2    0    0  0.31212758416E+02 -0.27909338616E+02 -0.81958830661E+02  0.92034870528E+02  0.00000000000E+00 0. -1.
</event>
<event>
 7    1  0.2855090E-009  0.1225460E+03  0.7561462E-02  0.1238955E+00
         -2   -1    0    0    0  501 -0.00000000000E+00  0.00000000000E+00  0.59091458110E+03  0.59091458110E+03  0.00000000000E+00 0.  1.
          2   -1    0    0  501    0  0.00000000000E+00 -0.00000000000E+00 -0.28754493970E+02  0.28754493970E+02  0.00000000000E+00 0. -1.
         25    2    1    2    0    0 -0.72210481075E+02 -0.13297839860E+02  0.29734450118E+03  0.33083554197E+03  0.12508883774E+03 0.  0.
          5    1    3    3  502    0  0.10460004102E+02 -0.41705362839E+02  0.39470682823E+02  0.58516289850E+02  0.41800000000E+01 0. -1.
         -5    1    3    3    0  502 -0.82670485177E+02  0.28407522979E+02  0.25787381836E+03  0.27231925212E+03  0.41800000000E+01 0. -1.
        -11    1    1    2    0    0  0.78546165222E+02 -0.19534753200E+02  0.20325324826E+03  0.21877611749E+03  0.00000000000E+00 0.  1.
         11    1    1    2    0    0 -0.63356841469E+01  0.32832593060E+02  0.61562337688E+02  0.70057415612E+02  0.00000000000E+00 0. -1.
</event>
<event>
 7    1  0.2855090E-009  0.1021321E+03  0.7561462E-02  0.1275875E+00
          3   -1    0    0  501    0  0.00000000000E+00  0.00000000000E+00  0.72696084980E+02  0.72696084980E+02  0.00000000000E+00 0. -1.
         -3   -1    0    0    0  501 -0.00000000000E+00 -0.00000000000E+00 -0.18586381774E+03  0.18586381774E+03  0.00000000000E+00 0.  1.
         25    2    1    2    0    0  0.92585040997E+01 -0.89889478445E+01 -0.10733051238E+03  0.16533037177E+03  0.12509105427E+03 0.  0.
          5    1    3    3  502    0 -0.55542552226E+02  0.10638041390E+02 -0.60362696305E+02  0.82820713216E+02  0.41800000000E+01 0.  1.
         -5    1    3    3    0  502  0.64801056326E+02 -0.19626989234E+02 -0.46967816079E+02  0.82509658554E+02  0.41800000000E+01 0.  1.
        -11    1    1    2    0    0  0.67504045705E+01  0.42261498452E+02 -0.27066685568E+02  0.50638006289E+02  0.00000000000E+00 0.  1.
         11    1    1    2    0    0 -0.16008908670E+02 -0.33272550607E+02  0.21229465192E+02  0.42591524662E+02  0.00000000000E+00 0. -1.
</event>
<event>
 7    1  0.3009165E-009  0.1929551E+03  0.7561462E-02  0.1155823E+00
         -2   -1    0    0    0  501 -0.00000000000E+00  0.00000000000E+00  0.27181845678E+02  0.27181845678E+02  0.00000000000E+00 0.  1.
          2   -1    0    0  501    0  0.00000000000E+00 -0.00000000000E+00 -0.16572320779E+04  0.16572320779E+04  0.00000000000E+00 0. -1.
         25    2    1    2    0    0 -0.15167260869E+03  0.73848239787E+02 -0.11176327624E+04  0.11371936445E+04  0.12509296863E+03 0.  0.
          5    1    3    3  502    0 -0.16863267410E+03  0.74291380006E+02 -0.88970335134E+03  0.90859546208E+03  0.41800000000E+01 0. -1.
         -5    1    3    3    0  502  0.16960065401E+02 -0.44314021916E+00 -0.22792941107E+03  0.22859818245E+03  0.41800000000E+01 0. -1.
        -11    1    1    2    0    0  0.84931188557E+02 -0.80532902810E+02 -0.24503533709E+03  0.27155325748E+03  0.00000000000E+00 0.  1.
         11    1    1    2    0    0  0.66741420138E+02  0.66846630231E+01 -0.26738213275E+03  0.27566702160E+03  0.00000000000E+00 0. -1.
</event>
<event>
 7    1  0.2855090E-009  0.7484721E+02  0.7561462E-02  0.1344345E+00
         -2   -1    0    0    0  501 -0.00000000000E+00  0.00000000000E+00  0.13220812499E+03  0.13220812499E+03  0.00000000000E+00 0.  1.
          2   -1    0    0  501    0  0.00000000000E+00 -0.00000000000E+00 -0.97444146325E+02  0.97444146325E+02  0.00000000000E+00 0. -1.
         25    2    1    2    0    0  0.20818973713E+01  0.32039558821E+02  0.34824522853E+02  0.13373438898E+03  0.12506507017E+03 0.  0.
          5    1    3    3  502    0  0.15771280201E+02  0.57531302704E+02  0.67305700977E+02  0.90033959449E+02  0.41800000000E+01 0. -1.
         -5    1    3    3    0  502 -0.13689382830E+02 -0.25491743884E+02 -0.32481178124E+02  0.43700429527E+02  0.41800000000E+01 0. -1.
        -11    1    1    2    0    0 -0.70985577427E+01  0.13282396609E+02 -0.35241727394E+02  0.38324808302E+02  0.00000000000E+00 0. -1.
         11    1    1    2    0    0  0.50166603714E+01 -0.45321955429E+02  0.35181183202E+02  0.57593074034E+02  0.00000000000E+00 0.  1.
</event>
<event>
 7    1  0.2855090E-009  0.9620256E+02  0.7561462E-02  0.1288490E+00
          1   -1    0    0  501    0  0.00000000000E+00  0.00000000000E+00  0.69299064084E+02  0.69299064084E+02  0.00000000000E+00 0. -1.
         -1   -1    0    0    0  501 -0.00000000000E+00 -0.00000000000E+00 -0.19893434077E+03  0.19893434077E+03  0.00000000000E+00 0.  1.
         25    2    1    2    0    0  0.17806703984E+02  0.12204954560E+02 -0.12921750480E+03  0.18113983450E+03  0.12509371077E+03 0.  0.
          5    1    3    3  502    0 -0.52625528588E+02  0.18137646974E+02 -0.63357797688E+02  0.84439939749E+02  0.41800000000E+01 0. -1.
         -5    1    3    3    0  502  0.70432232573E+02 -0.59326924135E+01 -0.65859707115E+02  0.96699894756E+02  0.41800000000E+01 0. -1.
        -11    1    1    2    0    0  0.39849162748E+01 -0.34426456816E+02 -0.28732164506E+02  0.45017749431E+02  0.00000000000E+00 0.  1.
         11    1    1    2    0    0 -0.21791620259E+02  0.22221502256E+02  0.28314392626E+02  0.42075820917E+02  0.00000000000E+00 0. -1.
</event>
<event>
 7    1  0.2855090E-009  0.8683718E+02  0.7561462E-02  0.1310697E+00
          2   -1    0    0  501    0  0.00000000000E+00  0.00000000000E+00  0.20293560776E+03  0.20293560776E+03  0.00000000000E+00 0. -1.
         -2   -1    0    0    0  501 -0.00000000000E+00 -0.00000000000E+00 -0.88258980019E+02  0.88258980019E+02  0.00000000000E+00 0.  1.
         25    2    1    2    0    0  0.12809962770E+02 -0.65580214652E+02  0.98250533919E+02  0.17252775107E+03  0.12509115786E+03 0.  0.
          5    1    3    3  502    0 -0.13945639590E+02 -0.18444894019E+02 -0.27117090591E+02  0.35881805711E+02  0.41800000000E+01 0. -1.
         -5    1    3    3    0  502  0.26755602360E+02 -0.47135320632E+02  0.12536762451E+03  0.13664594536E+03  0.41800000000E+01 0. -1.
        -11    1    1    2    0    0 -0.36791880263E+02  0.61242785110E+02 -0.20586332155E+02  0.74351316417E+02  0.00000000000E+00 0.  1.
         11    1    1    2    0    0  0.23981917493E+02  0.43374295419E+01  0.37012425978E+02  0.44315520289E+02  0.00000000000E+00 0. -1.
</event>
<event>
 7    1  0.2855090E-009  0.9034439E+02  0.7561462E-02  0.1302020E+00
         -1   -1    0    0    0  501 -0.00000000000E+00  0.00000000000E+00  0.82246311769E+02  0.82246311769E+02  0.00000000000E+00 0.  1.
          1   -1    0    0  501    0  0.00000000000E+00 -0.00000000000E+00 -0.22865977384E+03  0.22865977384E+03  0.00000000000E+00 0. -1.
         25    2    1    2    0    0 -0.73529505659E+01 -0.77420523555E+02 -0.11032138937E+03  0.18402822838E+03  0.12509027356E+03 0.  0.
          5    1    3    3  502    0 -0.61994750208E+01 -0.41872282475E+02  0.21336927561E+02  0.47586325851E+02  0.41800000000E+01 0.  1.
         -5    1    3    3    0  502 -0.11534755452E+01 -0.35548241080E+02 -0.13165831693E+03  0.13644190253E+03  0.41800000000E+01 0.  1.
        -11    1    1    2    0    0 -0.27801509866E+02  0.51981405122E+02 -0.53991323848E+02  0.79937810079E+02  0.00000000000E+00 0.  1.
         11    1    1    2    0    0  0.35154460432E+02  0.25439118433E+02  0.17899251143E+02  0.46940047149E+02  0.00000000000E+00 0. -1.
</event>
<event>
 7    1  0.2855090E-009  0.1093560E+03  0.7561462E-02  0.1261767E+00
         -2   -1    0    0    0  501 -0.00000000000E+00  0.00000000000E+00  0.41658654059E+02  0.41658654059E+02  0.00000000000E+00 0.  1.
          2   -1    0    0  501    0  0.00000000000E+00 -0.00000000000E+00 -0.32734677355E+03  0.32734677355E+03  0.00000000000E+00 0. -1.
         25    2    1    2    0    0 -0.30941862588E+02  0.21326955390E+02 -0.13970743880E+03  0.19125463543E+03  0.12509168331E+03 0.  0.
          5    1    3    3  502    0  0.45943448886E+01  0.63877403519E+02 -0.36001799705E+02  0.73586905542E+02  0.41800000000E+01 0. -1.
         -5    1    3    3    0  502 -0.35536207477E+02 -0.42550448129E+02 -0.10370563909E+03  0.11766772989E+03  0.41800000000E+01 0. -1.
        -11    1    1    2    0    0 -0.15287143773E+02 -0.44624513892E+02 -0.50260392453E+02  0.68928593881E+02  0.00000000000E+00 0.  1.
         11    1    1    2    0    0  0.46229006362E+02  0.23297558502E+02 -0.95720288244E+02  0.10882219830E+03  0.00000000000E+00 0. -1.
</event>
<event>
 7    1  0.2855090E-009  0.1238985E+03  0.7561462E-02  0.1236801E+00
         -2   -1    0    0    0  501 -0.00000000000E+00  0.00000000000E+00  0.14473617573E+02  0.14473617573E+02  0.00000000000E+00 0.  1.
          2   -1    0    0  501    0  0.00000000000E+00 -0.00000000000E+00 -0.13620575318E+04  0.13620575318E+04  0.00000000000E+00 0. -1.
         25    2    1    2    0    0  0.53327677758E+02  0.48184333069E+02 -0.97921794571E+03  0.98978821493E+03  0.12508938420E+03 0.  0.
          5    1    3    3  502    0 -0.34934113828E+02  0.58677980322E+01 -0.12560447407E+03  0.13057097560E+03  0.41800000000E+01 0.  1.
         -5    1    3    3    0  502  0.88261791587E+02  0.42316535037E+02 -0.85361347164E+03  0.85921723933E+03  0.41800000000E+01 0.  1.
        -11    1    1    2    0    0 -0.38190431079E+02  0.20830079727E+02 -0.96611928465E+02  0.10595407481E+03  0.00000000000E+00 0.  1.
         11    1    1    2    0    0 -0.15137246680E+02 -0.69014412796E+02 -0.27175404006E+03  0.28078885964E+03  0.00000000000E+00 0. -1.
</event>
<event>
 7    1  0.2855090E-009  0.1377002E+03  0.7561462E-02  0.1216457E+00
          1   -1    0    0  501    0  0.00000000000E+00  0.00000000000E+00  0.27081419758E+03  0.27081419758E+03  0.00000000000E+00 0. -1.
         -1   -1    0    0    0  501 -0.00000000000E+00 -0.00000000000E+00 -0.91496213566E+02  0.91496213566E+02  0.00000000000E+00 0.  1.
         25    2    1    2    0    0 -0.35742312462E+02 -0.10484533574E+03  0.12475710944E+03  0.20852384028E+03  0.12509115988E+03 0.  0.
          5    1    3    3  502    0  0.10655553453E+02 -0.76612021309E+02  0.57900330709E+01  0.77678436592E+02  0.41800000000E+01 0.  1.
         -5    1    3    3    0  502 -0.46397865915E+02 -0.28233314435E+02  0.11896707637E+03  0.13084540369E+03  0.41800000000E+01 0.  1.
        -11    1    1    2    0    0  0.66693708342E+02  0.76557839743E+02  0.33912941405E+02  0.10704784516E+03  0.00000000000E+00 0. -1.
         11    1    1    2    0    0 -0.30951395880E+02  0.28287496001E+02  0.20647933170E+02  0.46738725712E+02  0.00000000000E+00 0.  1.
</event>
<event>
 7    1  0.2855090E-009  0.1071064E+03  0.7561462E-02  0.1266024E+00
         -1   -1    0    0    0  501 -0.00000000000E+00  0.00000000000E+00  0.20072366295E+02  0.20072366295E+02  0.00000000000E+00 0.  1.
          1   -1    0    0  501    0  0.00000000000E+00 -0.00000000000E+00 -0.62840171807E+03  0.62840171807E+03  0.00000000000E+00 0. -1.
         25    2    1    2    0    0  0.60783566412E+01 -0.20874699241E+02 -0.29068859245E+03  0.31720732675E+03  0.12509168986E+03 0.  0.
          5    1    3    3  502    0 -0.57269712583E+02 -0.26481156727E+02 -0.14457236394E+03  0.15779642726E+03  0.41800000000E+01 0. -1.
         -5    1    3    3    0  502  0.63348069224E+02  0.56064574857E+01 -0.14611622852E+03  0.15941089949E+03  0.41800000000E+01 0. -1.
        -11    1    1    2    0    0 -0.36974375109E+02  0.37074345418E+02 -0.12550061682E+03  0.13598535335E+03  0.00000000000E+00 0.  1.
         11    1    1    2    0    0  0.30896018468E+02 -0.16199646177E+02 -0.19214014250E+03  0.19528140427E+03  0.00000000000E+00 0. -1.
</event>
<event>
 7    1  0.2855090E-009  0.1172334E+03  0.7561462E-02  0.1247732E+00
         -1   -1    0    0    0  501 -0.00000000000E+00  0.00000000000E+00  0.24684001733E+02  0.24684001733E+02  0.00000000000E+00 0.  1.
          1   -1    0    0  501    0  0.00000000000E+00 -0.00000000000E+00 -0.15986190693E+04  0.15986190693E+04  0.00000000000E+00 0. -1.
         25    2    1    2    0    0  0.84551542010E+02  0.57552852517E+02 -0.13523883962E+04  0.13620068228E+04  0.12508763790E+03 0.  0.
          5    1    3    3  502    0 -0.10621687050E+02  0.15956272786E+02 -0.32016403127E+02  0.37549238956E+02  0.41800000000E+01 0. -1.
         -5    1    3    3    0  502  0.95173229060E+02  0.41596579731E+02 -0.13203719930E+04  0.13244575838E+04  0.41800000000E+01 0. -1.
        -11    1    1    2    0    0 -0.52328309433E+02 -0.58720483948E+02 -0.66697823344E+02  0.10312587862E+03  0.00000000000E+00 0.  1.
         11    1    1    2    0    0 -0.32223232577E+02  0.11676314309E+01 -0.15484884806E+03  0.15817036962E+03  0.00000000000E+00 0. -1.
</event>
<event>
 7    1  0.2855090E-009  0.3999411E+02  0.7561462E-02  0.1508255E+00
         -1   -1    0    0    0  501 -0.00000000000E+00  0.00000000000E+00  0.30504612869E+03  0.30504612869E+03  0.00000000000E+00 0.  1.
          1   -1    0    0  501    0  0.00000000000E+00 -0.00000000000E+00 -0.39462319164E+02  0.39462319164E+02  0.00000000000E+00 0. -1.
         25    2    1    2    0    0 -0.16607264447E+01 -0.17392790052E+02  0.15055694324E+03  0.19651947300E+03  0.12508894016E+03 0.  0.
          5    1    3    3  502    0  0.17523395456E+01  0.15071533012E+01 -0.22169544180E+02  0.22678255976E+02  0.41800000000E+01 0.  1.
         -5    1    3    3    0  502 -0.34130659903E+01 -0.18899943353E+02  0.17272648742E+03  0.17384121702E+03  0.41800000000E+01 0.  1.
        -11    1    1    2    0    0 -0.23298118023E+02 -0.27817116162E+01  0.11345688520E+03  0.11585769298E+03  0.00000000000E+00 0.  1.
         11    1    1    2    0    0  0.24958844467E+02  0.20174501668E+02  0.15699810862E+01  0.32131281881E+02  0.00000000000E+00 0. -1.
</event>
<event>
 7    1  0.2855090E-009  0.9760190E+02  0.7561462E-02  0.1285421E+00
         -2   -1    0    0    0  501 -0.00000000000E+00  0.00000000000E+00  0.16633115618E+03  0.16633115618E+03  0.00000000000E+00 0.  1.
          2   -1    0    0  501    0  0.00000000000E+00 -0.00000000000E+00 -0.10539516846E+03  0.10539516846E+03  0.00000000000E+00 0. -1.
         25    2    1    2    0    0 -0.14424196584E+02 -0.54685614214E+02 -0.31396840580E+02  0.14082722336E+03  0.12509185182E+03 0.  0.
          5    1    3    3  502    0 -0.62315984606E+02 -0.44964269625E+02  0.87374455560E+01  0.77452455321E+02  0.41800000000E+01 0. -1.
         -5    1    3    3    0  502  0.47891788023E+02 -0.97213445885E+01 -0.40134286136E+02  0.63374768041E+02  0.41800000000E+01 0. -1.
        -11    1    1    2    0    0 -0.96003393685E+01  0.39788759951E+02  0.94058385661E+02  0.10257822307E+03  0.00000000000E+00 0.  1.
         11    1    1    2    0    0  0.24024535952E+02  0.14896854263E+02 -0.17255573627E+01  0.28320878215E+02  0.00000000000E+00 0. -1.
</event>
<event>
 7    1  0.2855090E-009  0.1373805E+03  0.7561462E-02  0.1216898E+00
         -1   -1    0    0    0  501 -0.00000000000E+00  0.00000000000E+00  0.13929115774E+03  0.13929115774E+03  0.00000000000E+00 0.  1.
          1   -1    0    0  501    0  0.00000000000E+00 -0.00000000000E+00 -0.16780268807E+03  0.16780268807E+03  0.00000000000E+00 0. -1.
         25    2    1    2    0    0  0.94452988555E+02 -0.18663336314E+02 -0.51706757448E+02  0.16610607588E+03  0.12509177634E+03 0.  0.
          5    1    3    3  502    0  0.73871390615E+01  0.34241726806E+02  0.20833392967E+02  0.40970334886E+02  0.41800000000E+01 0. -1.
         -5    1    3    3    0  502  0.87065849493E+02 -0.52905063120E+02 -0.72540150415E+02  0.12513574099E+03  0.41800000000E+01 0. -1.
        -11    1    1    2    0    0 -0.11518703548E+03  0.12367542210E+02  0.27083661024E+02  0.11897282856E+03  0.00000000000E+00 0. -1.
         11    1    1    2    0    0  0.20734046922E+02  0.62957941041E+01 -0.38884339035E+01  0.22014941366E+02  0.00000000000E+00 0.  1.
</event>
<event>
 7    1  0.2855090E-009  0.9126066E+02  0.7561462E-02  0.1299827E+00
          2   -1    0    0  501    0  0.00000000000E+00  0.00000000000E+00  0.17974961638E+02  0.17974961638E+02  0.00000000000E+00 0. -1.
         -2   -1    0    0    0  501 -0.00000000000E+00 -0.00000000000E+00 -0.69522600055E+03  0.69522600055E+03  0.00000000000E+00 0.  1.
         25    2    1    2    0    0 -0.13841248010E+02  0.11121983086E+02 -0.36424211754E+03  0.38553322991E+03  0.12509305545E+03 0.  0.
          5    1    3    3  502    0  0.28468305065E+02  0.40000710125E+02 -0.29615145359E+03  0.30022267913E+03  0.41800000000E+01 0. -1.
         -5    1    3    3    0  502 -0.42309553075E+02 -0.28878727039E+02 -0.68090663954E+02  0.85310550780E+02  0.41800000000E+01 0. -1.
        -11    1    1    2    0    0  0.21578845729E+02  0.31693265222E+02 -0.61867002915E+02  0.72784858955E+02  0.00000000000E+00 0. -1.
         11    1    1    2    0    0 -0.77375977186E+01 -0.42815248308E+02 -0.25114191846E+03  0.25488287332E+03  0.00000000000E+00 0.  1.
</event>
<event>
 7    1  0.2855090E-009  0.1050227E+03  0.7561462E-02  0.1270075E+00
         -2   -1    0    0    0  501 -0.00000000000E+00  0.00000000000E+00  0.15645984593E+03  0.15645984593E+03  0.00000000000E+00 0.  1.
          2   -1    0    0  501    0  0.00000000000E+00 -0.00000000000E+00 -0.82771035138E+02  0.82771035138E+02  0.00000000000E+00 0. -1.
         25    2    1    2    0    0  0.48542942696E+01 -0.25786417012E+02  0.76707098635E+02  0.14906212178E+03  0.12508810372E+03 0.  0.
          5    1    3    3  502    0  0.63592641662E+02 -0.74816104714E+01  0.52147434927E+02  0.82685101066E+02  0.41800000000E+01 0. -1.
         -5    1    3    3    0  502 -0.58738347393E+02 -0.18304806541E+02  0.24559663708E+02  0.66377020710E+02  0.41800000000E+01 0. -1.
        -11    1    1    2    0    0 -0.11880602055E+02  0.53920275157E+02 -0.17278576891E+02  0.57854075030E+02  0.00000000000E+00 0. -1.
         11    1    1    2    0    0  0.70263077857E+01 -0.28133858145E+02  0.14260289050E+02  0.32314684263E+02  0.00000000000E+00 0.  1.
</event>
<event>
 7    1  0.2855090E-009  0.1538572E+03  0.7561462E-02  0.1195812E+00
          3   -1    0    0  501    0  0.00000000000E+00  0.00000000000E+00  0.87091830140E+02  0.87091830140E+02  0.00000000000E+00 0.  1.
         -3   -1    0    0    0  501 -0.00000000000E+00 -0.00000000000E+00 -0.32011881137E+03  0.32011881137E+03  0.00000000000E+00 0. -1.
         25    2    1    2    0    0  0.88979552218E+00 -0.12615679425E+03 -0.11588327145E+03  0.21211697597E+03  0.12509336682E+03 0.  0.
          5    1    3    3  502    0  0.93626247203E+01  0.10965721779E+02  0.15781748589E+02  0.21781684607E+02  0.41800000000E+01 0.  1.
         -5    1    3    3    0  502 -0.84728291981E+01 -0.13712251603E+03 -0.13166502004E+03  0.19033529136E+03  0.41800000000E+01 0.  1.
        -11    1    1    2    0    0  0.40456723321E+02  0.29332973756E+02 -0.28943123029E+02  0.57748369517E+02  0.00000000000E+00 0.  1.
         11    1    1    2    0    0 -0.41346518843E+02  0.96823820495E+02 -0.88200586752E+02  0.13734529602E+03  0.00000000000E+00 0. -1.
</event>
<event>
 7    1  0.2855090E-009  0.9650622E+02  0.7561462E-02  0.1287819E+00
         -3   -1    0    0    0  501 -0.00000000000E+00  0.00000000000E+00  0.14473413490E+03  0.14473413490E+03  0.00000000000E+00 0.  1.
          3   -1    0    0  501    0  0.00000000000E+00 -0.00000000000E+00 -0.11443182529E+03  0.11443182529E+03  0.00000000000E+00 0. -1.
         25    2    1    2    0    0  0.33586271272E+02 -0.54576501783E+02  0.21645865801E+02  0.14220697891E+03  0.12509056392E+03 0.  0.
          5    1    3    3  502    0 -0.11639304377E+02 -0.17283334550E+02  0.65512168967E+02  0.68873098829E+02  0.41800000000E+01 0. -1.
         -5    1    3    3    0  502  0.45225575649E+02 -0.37293167233E+02 -0.43866303166E+02  0.73333880086E+02  0.41800000000E+01 0. -1.
        -11    1    1    2    0    0 -0.22360702514E+02 -0.24473058619E+02 -0.10643378661E+02  0.34816851156E+02  0.00000000000E+00 0.  1.
         11    1    1    2    0    0 -0.11225568758E+02  0.79049560403E+02  0.19299822475E+02  0.82142130124E+02  0.00000000000E+00 0. -1.
</event>
<event>
 7    1  0.2855090E-009  0.1538396E+03  0.7561462E-02  0.1195833E+00
         -3   -1    0    0    0  501 -0.00000000000E+00  0.00000000000E+00  0.12707456868E+03  0.12707456868E+03  0.00000000000E+00 0.  1.
          3   -1    0    0  501    0  0.00000000000E+00 -0.00000000000E+00 -0.28328254732E+03  0.28328254732E+03  0.00000000000E+00 0. -1.
         25    2    1    2    0    0  0.19808147982E+02  0.11283308749E+03  0.29729542579E+02  0.17220491022E+03  0.12508803716E+03 0.  0.
          5    1    3    3  502    0 -0.33246122489E+02 -0.10483342215E+01 -0.17628923093E+02  0.37876839818E+02  0.41800000000E+01 0.  1.
         -5    1    3    3    0  502  0.53054270471E+02  0.11388142171E+03  0.47358465672E+02  0.13432807040E+03  0.41800000000E+01 0.  1.
        -11    1    1    2    0    0 -0.18690470955E+02  0.12902628837E+02 -0.34689327216E+02  0.41462765925E+02  0.00000000000E+00 0.  1.
         11    1    1    2    0    0 -0.11176770268E+01 -0.12573571633E+03 -0.15124819401E+03  0.19668943986E+03  0.00000000000E+00 0. -1.
</event>
<event>
 7    1  0.2855090E-009  0.1307887E+03  0.7561462E-02  0.1226290E+00
         -1   -1    0    0    0  501 -0.00000000000E+00  0.00000000000E+00  0.73817000304E+03  0.73817000304E+03  0.00000000000E+00 0.  1.
          1   -1    0    0  501    0  0.00000000000E+00 -0.00000000000E+00 -0.27611839646E+02  0.27611839646E+02  0.00000000000E+00 0. -1.
         25    2    1    2    0    0 -0.60369167539E+02  0.60133952950E+02  0.49244316018E+03  0.51517987884E+03  0.12509801303E+03 0.  0.
          5    1    3    3  502    0 -0.19868696411E+01 -0.33600737054E+02  0.60860853772E+02  0.69674048995E+02  0.41800000000E+01 0. -1.
         -5    1    3    3    0  502 -0.58382297898E+02  0.93734690004E+02  0.43158230641E+03  0.44550582984E+03  0.41800000000E+01 0. -1.
        -11    1    1    2    0    0 -0.19847163225E+02 -0.75459969438E+01  0.77731391991E+02  0.80579285544E+02  0.00000000000E+00 0.  1.
         11    1    1    2    0    0  0.80216330765E+02 -0.52587956006E+02  0.14038361122E+03  0.17002267831E+03  0.00000000000E+00 0. -1.
</event>
<event>
 7    1  0.2855090E-009  0.1087547E+03  0.7561462E-02  0.1262893E+00
         -1   -1    0    0    0  501 -0.00000000000E+00  0.00000000000E+00  0.37292793632E+02  0.37292793632E+02  0.00000000000E+00 0.  1.
          1   -1    0    0  501    0  0.00000000000E+00 -0.00000000000E+00 -0.38038707760E+03  0.38038707760E+03  0.00000000000E+00 0. -1.
         25    2    1    2    0    0 -0.29443295399E+02  0.32653301028E+02 -0.14917490555E+03  0.19958111308E+03  0.12508526108E+03 0.  0.
          5    1    3    3  502    0 -0.77361232785E+02  0.22480795978E+02 -0.72289425957E+02  0.10832072762E+03  0.41800000000E+01 0. -1.
         -5    1    3    3    0  502  0.47917937387E+02  0.10172505051E+02 -0.76885479592E+02  0.91260385461E+02  0.41800000000E+01 0. -1.
        -11    1    1    2    0    0  0.58541130396E+01 -0.54923675204E+02 -0.16714768899E+03  0.17603758312E+03  0.00000000000E+00 0. -1.
         11    1    1    2    0    0  0.23589182359E+02  0.22270374176E+02 -0.26771689434E+02  0.42061175036E+02  0.00000000000E+00 0.  1.
</event>
<event>
 7    1  0.2855090E-009  0.1457440E+03  0.7561462E-02  0.1205802E+00
          1   -1    0    0  501    0  0.00000000000E+00  0.00000000000E+00  0.12572260279E+04  0.12572260279E+04  0.00000000000E+00 0. -1.
         -1   -1    0    0    0  501 -0.00000000000E+00 -0.00000000000E+00 -0.21383412766E+02  0.21383412766E+02  0.00000000000E+00 0.  1.
         25    2    1    2    0    0 -0.22060894931E+02  0.10469846354E+03  0.90363188206E+03  0.91850192386E+03  0.12508698773E+03 0.  0.
          5    1    3    3  502    0 -0.53411707992E+02  0.10861314473E+03  0.53698238191E+03  0.55046995980E+03  0.41800000000E+01 0. -1.
         -5    1    3    3    0  502  0.31350813061E+02 -0.39146811846E+01  0.36664950015E+03  0.36803196406E+03  0.41800000000E+01 0. -1.
        -11    1    1    2    0    0 -0.37925434612E+01  0.15297753926E+02  0.48018856025E+02  0.50539244109E+02  0.00000000000E+00 0. -1.
         11    1    1    2    0    0  0.25853438392E+02 -0.11999621747E+03  0.28419187708E+03  0.30956827274E+03  0.00000000000E+00 0.  1.
</event>
<event>
 7    1  0.2855090E-009  0.1044255E+03  0.7561462E-02  0.1271256E+00
          1   -1    0    0  501    0  0.00000000000E+00  0.00000000000E+00  0.12589726294E+04  0.12589726294E+04  0.00000000000E+00 0. -1.
         -1   -1    0    0    0  501 -0.00000000000E+00 -0.00000000000E+00 -0.10428630968E+02  0.10428630968E+02  0.00000000000E+00 0.  1.
         25    2    1    2    0    0  0.20650103384E+02 -0.24833531927E+01  0.88470413273E+03  0.89374471391E+03  0.12508244228E+03 0.  0.
          5    1    3    3  502    0  0.24891613834E+02 -0.60068988500E+02  0.57465139018E+03  0.57833344054E+03  0.41800000000E+01 0. -1.
         -5    1    3    3    0  502 -0.42415104502E+01  0.57585635308E+02  0.31005274255E+03  0.31541127337E+03  0.41800000000E+01 0. -1.
        -11    1    1    2    0    0 -0.51796958711E+02  0.12124273161E+02  0.29141768308E+03  0.29623333530E+03  0.00000000000E+00 0.  1.
         11    1    1    2    0    0  0.31146855328E+02 -0.96409199680E+01  0.72422182661E+02  0.79423211191E+02  0.00000000000E+00 0. -1.
</event>
<event>
 7    1  0.2855090E-009  0.1673955E+03  0.7561462E-02  0.1180591E+00
         -4   -1    0    0    0  501 -0.00000000000E+00  0.00000000000E+00  0.63166974717E+02  0.63166974717E+02  0.00000000000E+00 0.  1.
          4   -1    0    0  501    0  0.00000000000E+00 -0.00000000000E+00 -0.52926321341E+03  0.52926321341E+03  0.00000000000E+00 0. -1.
         25    2    1    2    0    0  0.13444819678E+03 -0.13525839109E+02 -0.33832218564E+03  0.38517737326E+03  0.12506175129E+03 0.  0.
          5    1    3    3  502    0  0.36619129820E+02  0.45006800602E+02 -0.56295858662E+02  0.80952262919E+02  0.41800000000E+01 0.  1.
         -5    1    3    3    0  502  0.97829066959E+02 -0.58532639711E+02 -0.28202632698E+03  0.30422511034E+03  0.41800000000E+01 0.  1.
        -11    1    1    2    0    0 -0.32309400370E+02  0.45237557653E+02 -0.52563021040E+02  0.76506242592E+02  0.00000000000E+00 0.  1.
         11    1    1    2    0    0 -0.10213879641E+03 -0.31711718544E+02 -0.75211032012E+02  0.13074657227E+03  0.00000000000E+00 0. -1.
</event>
<event>
 7    1  0.2855090E-009  0.7837755E+02  0.7561462E-02  0.1333720E+00
         -1   -1    0    0    0  501 -0.00000000000E+00  0.00000000000E+00  0.39286576045E+02  0.39286576045E+02  0.00000000000E+00 0.  1.
          1   -1    0    0  501    0  0.00000000000E+00 -0.00000000000E+00 -0.32054134346E+03  0.32054134346E+03  0.00000000000E+00 0. -1.
         25    2    1    2    0    0  0.29757411729E+02 -0.28461646839E+02 -0.21379483127E+03  0.25110046481E+03  0.12509054583E+03 0.  0.
          5    1    3    3  502    0  0.47606039891E+01 -0.65170657848E+02 -0.53021269597E+02  0.84253222041E+02  0.41800000000E+01 0.  1.
         -5    1    3    3    0  502  0.24996807740E+02  0.36709011009E+02 -0.16077356167E+03  0.16684724277E+03  0.41800000000E+01 0.  1.
        -11    1    1    2    0    0 -0.19490324979E+02  0.30506035655E+02 -0.82678204784E+02  0.90256171675E+02  0.00000000000E+00 0. -1.
         11    1    1    2    0    0 -0.10267086750E+02 -0.20443888163E+01  0.15218268639E+02  0.18471283018E+02  0.00000000000E+00 0.  1.
</event>
<event>
 7    1  0.2855090E-009  0.1092069E+03  0.7561462E-02  0.1262046E+00
         -1   -1    0    0    0  501 -0.00000000000E+00  0.00000000000E+00  0.22063622142E+03  0.22063622142E+03  0.00000000000E+00 0.  1.
          1   -1    0    0  501    0  0.00000000000E+00 -0.00000000000E+00 -0.82122880102E+02  0.82122880102E+02  0.00000000000E+00 0. -1.
         25    2    1    2    0    0  0.22170728489E+02 -0.61601839552E+01 -0.69146074600E+01  0.12737568941E+03  0.12508902985E+03 0.  0.
          5    1    3    3  502    0  0.45231315504E+02 -0.53151733798E+02 -0.21008618093E+02  0.73005569254E+02  0.41800000000E+01 0. -1.
         -5    1    3    3    0  502 -0.23060587014E+02  0.46991549843E+02  0.14094010633E+02  0.54370120157E+02  0.41800000000E+01 0. -1.
        -11    1    1    2    0    0 -0.58756545149E+02 -0.70291584116E+00  0.70967686047E+02  0.92137061769E+02  0.00000000000E+00 0. -1.
         11    1    1    2    0    0  0.36585816659E+02  0.68630997964E+01  0.74460262733E+02  0.83246350344E+02  0.00000000000E+00 0.  1.
</event>
<event>
 7    1  0.3799666E-009  0.9077945E+02  0.7561462E-02  0.1300975E+00
         -2   -1    0    0    0  501 -0.00000000000E+00  0.00000000000E+00  0.13495252993E+02  0.13495252993E+02  0.00000000000E+00 0.  1.
          2   -1    0    0  501    0  0.00000000000E+00 -0.00000000000E+00 -0.10143443138E+04  0.10143443138E+04  0.00000000000E+00 0. -1.
         25    2    1    2    0    0 -0.24281990946E+01  0.11297299613E+02 -0.75710591500E+03  0.76745686176E+03  0.12508854065E+03 0.  0.
          5    1    3    3  502    0  0.41846056239E+02  0.25565846950E+02 -0.63206827727E+03  0.63398145437E+03  0.41800000000E+01 0. -1.
         -5    1    3    3    0  502 -0.44274255333E+02 -0.14268547338E+02 -0.12503763773E+03  0.13347540739E+03  0.41800000000E+01 0. -1.
        -11    1    1    2    0    0 -0.37079473017E+02  0.12959777434E+02 -0.67042424606E+02  0.77701543404E+02  0.00000000000E+00 0.  1.
         11    1    1    2    0    0  0.39507672112E+02 -0.24257077047E+02 -0.17670072125E+03  0.18268116168E+03  0.00000000000E+00 0. -1.
</event>
<event>
 7    1  0.2855090E-009  0.9304162E+02  0.7561462E-02  0.1295649E+00
         -2   -1    0    0    0  501 -0.00000000000E+00  0.00000000000E+00  0.79923957479E+02  0.79923957479E+02  0.00000000000E+00 0.  1.
          2   -1    0    0  501    0  0.00000000000E+00 -0.00000000000E+00 -0.12956975766E+03  0.12956975766E+03  0.00000000000E+00 0. -1.
         25    2    1    2    0    0 -0.24663592583E+02 -0.17881985545E+02 -0.47994968378E+02  0.13740157785E+03  0.12509044088E+03 0.  0.
          5    1    3    3  502    0  0.46624070135E+02 -0.25564901417E+02 -0.36585581297E+02  0.64678785234E+02  0.41800000000E+01 0.  1.
         -5    1    3    3    0  502 -0.71287662718E+02  0.76829158721E+01 -0.11409387080E+02  0.72722792614E+02  0.41800000000E+01 0.  1.
        -11    1    1    2    0    0  0.15898709321E+02 -0.17983141647E+02  0.18246552582E+02  0.30151269006E+02  0.00000000000E+00 0.  1.
         11    1    1    2    0    0  0.87648832619E+01  0.35865127192E+02 -0.19897384382E+02  0.41940868283E+02  0.00000000000E+00 0. -1.
</event>
<event>
 7    1  0.2855090E-009  0.2052659E+03  0.7561462E-02  0.1145371E+00
         -2   -1    0    0    0  501 -0.00000000000E+00  0.00000000000E+00  0.12075140598E+03  0.12075140598E+03  0.00000000000E+00 0.  1.
          2   -1    0    0  501    0  0.00000000000E+00 -0.00000000000E+00 -0.55059164605E+03  0.55059164605E+03  0.00000000000E+00 0. -1.
         25    2    1    2    0    0 -0.16488663314E+03 -0.86822246127E+02 -0.40409500644E+03  0.46224007212E+03  0.12508959122E+03 0.  0.
          5    1    3    3  502    0 -0.37367618531E+02 -0.85680427795E+02 -0.21077266958E+03  0.23060803383E+03  0.41800000000E+01 0. -1.
         -5    1    3    3    0  502 -0.12751901461E+03 -0.11418183316E+01 -0.19332233686E+03  0.23163203829E+03  0.41800000000E+01 0. -1.
        -11    1    1    2    0    0  0.42149477835E+02  0.39690636084E+02  0.31265986985E+02  0.65798837503E+02  0.00000000000E+00 0.  1.
         11    1    1    2    0    0  0.12273715530E+03  0.47131610042E+02 -0.57011220615E+02  0.14330414242E+03  0.00000000000E+00 0. -1.
</event>
<event>
 7    1  0.2855090E-009  0.1107465E+03  0.7561462E-02  0.1259194E+00
          1   -1    0    0  501    0  0.00000000000E+00  0.00000000000E+00  0.35620552299E+02  0.35620552299E+02  0.00000000000E+00 0. -1.
         -1   -1    0    0    0  501 -0.00000000000E+00 -0.00000000000E+00 -0.57401814843E+03  0.57401814843E+03  0.00000000000E+00 0.  1.
         25    2    1    2    0    0  0.43970879683E+02 -0.79505030518E+02 -0.25214891071E+03  0.29577045910E+03  0.12508638280E+03 0.  0.
          5    1    3    3  502    0  0.35793266078E+02 -0.47573189480E+02 -0.22580481103E+02  0.63810005334E+02  0.41800000000E+01 0.  1.
         -5    1    3    3    0  502  0.81776136053E+01 -0.31931841037E+02 -0.22956842961E+03  0.23196045376E+03  0.41800000000E+01 0.  1.
        -11    1    1    2    0    0 -0.72454784022E+02  0.54187354121E+02 -0.19416459261E+03  0.21420983661E+03  0.00000000000E+00 0.  1.
         11    1    1    2    0    0  0.28483904339E+02  0.25317676397E+02 -0.92084092802E+02  0.99658405023E+02  0.00000000000E+00 0. -1.
</event>
<event>
 7    1  0.2855090E-009  0.2193759E+03  0.7561462E-02  0.1134349E+00
          1   -1    0    0  501    0  0.00000000000E+00  0.00000000000E+00  0.53778580807E+03  0.53778580807E+03  0.00000000000E+00 0. -1.
         -1   -1    0    0    0  501 -0.00000000000E+00 -0.00000000000E+00 -0.91567454426E+02  0.91567454426E+02  0.00000000000E+00 0.  1.
         25    2    1    2    0    0  0.37602768624E+02  0.18876831595E+03  0.24419899555E+03  0.33515476452E+03  0.12509245157E+03 0.  0.
          5    1    3    3  502    0  0.65907200770E+02  0.38447527155E+02  0.76280391955E+02  0.10797287648E+03  0.41800000000E+01 0.  1.
         -5    1    3    3    0  502 -0.28304432145E+02  0.15032078879E+03  0.16791860359E+03  0.22718188805E+03  0.41800000000E+01 0.  1.
        -11    1    1    2    0    0  0.25324592627E+02 -0.35272528285E+02  0.19642879591E+02  0.47658461599E+02  0.00000000000E+00 0.  1.
         11    1    1    2    0    0 -0.62927361252E+02 -0.15349578766E+03  0.18237647851E+03  0.24654003638E+03  0.00000000000E+00 0. -1.
</event>
<event>
 7    1  0.2855090E-009  0.1442842E+03  0.7561462E-02  0.1207678E+00
         -1   -1    0    0    0  501 -0.00000000000E+00  0.00000000000E+00  0.88212289206E+02  0.88212289206E+02  0.00000000000E+00 0.  1.
          1   -1    0    0  501    0  0.00000000000E+00 -0.00000000000E+00 -0.57928735323E+03  0.57928735323E+03  0.00000000000E+00 0. -1.
         25    2    1    2    0    0  0.77301125435E+02 -0.81133015735E+02 -0.13350150103E+02  0.16847183202E+03  0.12508597620E+03 0.  0.
          5    1    3    3  502    0  0.98906382262E+02 -0.46863839946E+02  0.25205627385E+02  0.11238989278E+03  0.41800000000E+01 0. -1.
         -5    1    3    3    0  502 -0.21605256827E+02 -0.34269175788E+02 -0.38555777488E+02  0.56081939245E+02  0.41800000000E+01 0. -1.
        -11    1    1    2    0    0 -0.53431651685E+02 -0.32421837291E+00 -0.11980373256E+03  0.13117919368E+03  0.00000000000E+00 0. -1.
         11    1    1    2    0    0 -0.23869473749E+02  0.81457234108E+02 -0.35792118137E+03  0.36784861674E+03  0.00000000000E+00 0.  1.
</event>
<event>
 7    1  0.2855090E-009  0.1135105E+03  0.7561462E-02  0.1254204E+00
          2   -1    0    0  501    0  0.00000000000E+00  0.00000000000E+00  0.86194246946E+03  0.86194246946E+03  0.00000000000E+00 0. -1.
         -2   -1    0    0    0  501 -0.00000000000E+00 -0.00000000000E+00 -0.17961451224E+02  0.17961451224E+02  0.00000000000E+00 0.  1.
         25    2    1    2    0    0 -0.35397894750E+02 -0.18999124803E+02  0.30825836359E+03  0.33508900467E+03  0.12508974631E+03 0.  0.
          5    1    3    3  502    0 -0.80788450480E+02 -0.15260732647E+02  0.15999933703E+03  0.17993588842E+03  0.41800000000E+01 0. -1.
         -5    1    3    3    0  502  0.45390555730E+02 -0.37383921558E+01  0.14825902656E+03  0.15515311625E+03  0.41800000000E+01 0. -1.
        -11    1    1    2    0    0  0.17144510663E+02 -0.36614426719E+02  0.20396300431E+03  0.20793137719E+03  0.00000000000E+00 0.  1.
         11    1    1    2    0    0  0.18253384087E+02  0.55613551522E+02  0.33175965033E+03  0.33688353883E+03  0.00000000000E+00 0. -1.
</event>
<event>
 7    1  0.2855090E-009  0.1086138E+03  0.7561462E-02  0.1263159E+00
         -2   -1    0    0    0  501 -0.00000000000E+00  0.00000000000E+00  0.10620798064E+03  0.10620798064E+03  0.00000000000E+00 0. -1.
          2   -1    0    0  501    0  0.00000000000E+00 -0.00000000000E+00 -0.33387323124E+03  0.33387323124E+03  0.00000000000E+00 0.  1.
         25    2    1    2    0    0  0.60658449743E+02 -0.80384825004E+02 -0.25281842535E+03  0.29950936277E+03  0.12509010583E+03 0.  0.
          5    1    3    3  502    0  0.64895945515E+02 -0.43013300319E+02 -0.24964125216E+03  0.26153365926E+03  0.41800000000E+01 0. -1.
         -5    1    3    3    0  502 -0.42374957724E+01 -0.37371524685E+02 -0.31771731936E+01  0.37975703512E+02  0.41800000000E+01 0. -1.
        -11    1    1    2    0    0 -0.29679663158E+02  0.49206320943E+02  0.61037485658E+02  0.83831492181E+02  0.00000000000E+00 0.  1.
         11    1    1    2    0    0 -0.30978786585E+02  0.31178504060E+02 -0.35884310910E+02  0.56740356918E+02  0.00000000000E+00 0. -1.
</event>
<event>
 7    1  0.2855090E-009  0.1127704E+03  0.7561462E-02  0.1255524E+00
         -1   -1    0    0    0  501 -0.00000000000E+00  0.00000000000E+00  0.33368237362E+03  0.33368237362E+03  0.00000000000E+00 0.  1.
          1   -1    0    0  501    0  0.00000000000E+00 -0.00000000000E+00 -0.48178821453E+02  0.48178821453E+02  0.00000000000E+00 0. -1.
         25    2    1    2    0    0 -0.28157626127E+02 -0.56918010666E+02  0.16873371621E+03  0.21943297696E+03  0.12508897851E+03 0.  0.
          5    1    3    3  502    0 -0.49356824210E+02  0.21319481013E+02  0.97599805216E+02  0.11150699864E+03  0.41800000000E+01 0. -1.
         -5    1    3    3    0  502  0.21199198082E+02 -0.78237491679E+02  0.71133910995E+02  0.10792597832E+03  0.41800000000E+01 0. -1.
        -11    1    1    2    0    0  0.20862622675E+02  0.71317133933E+02  0.40815976997E+02  0.84778102099E+02  0.00000000000E+00 0. -1.
         11    1    1    2    0    0  0.72950034520E+01 -0.14399123267E+02  0.75953858960E+02  0.77650116015E+02  0.00000000000E+00 0.  1.
</event>
<event>
 7    1  0.2855090E-009  0.1098785E+03  0.7561462E-02  0.1260795E+00
          2   -1    0    0  501    0  0.00000000000E+00  0.00000000000E+00  0.44029063042E+03  0.44029063042E+03  0.00000000000E+00 0. -1.
         -2   -1    0    0    0  501 -0.00000000000E+00 -0.00000000000E+00 -0.28519923422E+02  0.28519923422E+02  0.00000000000E+00 0.  1.
         25    2    1    2    0    0  0.20690655059E+02 -0.12741877301E+02  0.26656411770E+03  0.29545828200E+03  0.12509479969E+03 0.  0.
          5    1    3    3  502    0  0.36071177297E+02 -0.64079096985E+02  0.15702197203E+03  0.17343769084E+03  0.41800000000E+01 0. -1.
         -5    1    3    3    0  502 -0.15380522237E+02  0.51337219684E+02  0.10954214567E+03  0.12202059116E+03  0.41800000000E+01 0. -1.
        -11    1    1    2    0    0  0.27611432465E+02  0.30264591597E+02  0.83846964300E+02  0.93320148573E+02  0.00000000000E+00 0. -1.
         11    1    1    2    0    0 -0.48302087524E+02 -0.17522714297E+02  0.61359624990E+02  0.80032123265E+02  0.00000000000E+00 0.  1.
</event>
<event>
 7    1  0.2855090E-009  0.1139698E+03  0.7561462E-02  0.1253390E+00
         -2   -1    0    0    0  501 -0.00000000000E+00  0.00000000000E+00  0.11097529359E+02  0.11097529359E+02  0.00000000000E+00 0.  1.
          2   -1    0    0  501    0  0.00000000000E+00 -0.00000000000E+00 -0.12773112636E+04  0.12773112636E+04  0.00000000000E+00 0. -1.
         25    2    1    2    0    0 -0.15999952251E+02 -0.42315489277E+02 -0.83037011890E+03  0.84095664444E+03  0.12508774670E+03 0.  0.
          5    1    3    3  502    0 -0.37919934216E+01 -0.86636659245E+02 -0.53282179971E+03  0.53984889792E+03  0.41800000000E+01 0. -1.
         -5    1    3    3    0  502 -0.12207958829E+02  0.44321169968E+02 -0.29754831919E+03  0.30110774653E+03  0.41800000000E+01 0. -1.
        -11    1    1    2    0    0  0.64168348364E+01  0.67607451675E+02 -0.37148334953E+03  0.37763980493E+03  0.00000000000E+00 0. -1.
         11    1    1    2    0    0  0.95831174143E+01 -0.25291962398E+02 -0.64360265858E+02  0.69812343627E+02  0.00000000000E+00 0.  1.
</event>
<event>
 7    1  0.2855090E-009  0.7291891E+02  0.7561462E-02  0.1350439E+00
         -2   -1    0    0    0  501 -0.00000000000E+00  0.00000000000E+00  0.49359870337E+02  0.49359870337E+02  0.00000000000E+00 0.  1.
          2   -1    0    0  501    0  0.00000000000E+00 -0.00000000000E+00 -0.28012550265E+03  0.28012550265E+03  0.00000000000E+00 0. -1.
         25    2    1    2    0    0  0.26090620965E+02  0.37759794218E+02 -0.13216825797E+03  0.18767914276E+03  0.12509392331E+03 0.  0.
          5    1    3    3  502    0  0.19824251521E+02  0.57282073123E+02 -0.74462976584E+01  0.61214022890E+02  0.41800000000E+01 0. -1.
         -5    1    3    3    0  502  0.62663694446E+01 -0.19522278905E+02 -0.12472196031E+03  0.12646511987E+03  0.41800000000E+01 0. -1.
        -11    1    1    2    0    0  0.12620979792E+02 -0.55221966910E+01  0.13264444978E+02  0.19124049984E+02  0.00000000000E+00 0.  1.
         11    1    1    2    0    0 -0.38711600757E+02 -0.32237597527E+02 -0.11186181932E+03  0.12268218025E+03  0.00000000000E+00 0. -1.
</event>
<event>
 7    1  0.2855090E-009  0.1296680E+03  0.7561462E-02  0.1227949E+00
          2   -1    0    0  501    0  0.00000000000E+00  0.00000000000E+00  0.42764372541E+03  0.42764372541E+03  0.00000000000E+00 0. -1.
         -2   -1    0    0    0  501 -0.00000000000E+00 -0.00000000000E+00 -0.53102826889E+02  0.53102826889E+02  0.00000000000E+00 0.  1.
         25    2    1    2    0    0  0.55681859421E+02 -0.63937552264E+02  0.29874881317E+03  0.33479442517E+03  0.12509186103E+03 0.  0.
          5    1    3    3  502    0 -0.24151724283E+02  0.11354550681E+02  0.13469842214E+03  0.13738038046E+03  0.41800000000E+01 0.  1.
         -5    1    3    3    0  502  0.79833583705E+02 -0.75292102945E+02  0.16405039103E+03  0.19741404471E+03  0.41800000000E+01 0.  1.
        -11    1    1    2    0    0 -0.37944976356E+02 -0.15591247186E+02  0.12844894323E+02  0.42987201929E+02  0.00000000000E+00 0. -1.
         11    1    1    2    0    0 -0.17736883065E+02  0.79528799450E+02  0.62947191021E+02  0.10296492519E+03  0.00000000000E+00 0.  1.
</event>
<event>
 7    1  0.2855090E-009  0.1117273E+03  0.7561462E-02  0.1257404E+00
          1   -1    0    0  501    0  0.00000000000E+00  0.00000000000E+00  0.25212565956E+02  0.25212565956E+02  0.00000000000E+00 0. -1.
         -1   -1    0    0    0  501 -0.00000000000E+00 -0.00000000000E+00 -0.78068328058E+03  0.78068328058E+03  0.00000000000E+00 0.  1.
         25    2    1    2    0    0 -0.36768205283E+02 -0.80046921174E+02 -0.45333225415E+03  0.47845276016E+03  0.12508996979E+03 0.  0.
          5    1    3    3  502    0 -0.32819158625E+01 -0.84645911573E+02 -0.42716429713E+03  0.43550259524E+03  0.41800000000E+01 0.  1.
         -5    1    3    3    0  502 -0.33486289420E+02  0.45989903990E+01 -0.26167957013E+02  0.42950164913E+02  0.41800000000E+01 0.  1.
        -11    1    1    2    0    0  0.40726223956E+02  0.21783145313E+02 -0.23018894221E+03  0.23477665951E+03  0.00000000000E+00 0.  1.
         11    1    1    2    0    0 -0.39580186731E+01  0.58263775861E+02 -0.71949518276E+02  0.92666426874E+02  0.00000000000E+00 0. -1.
</event>
<event>
 7    1  0.2855090E-009  0.1139333E+03  0.7561462E-02  0.1253455E+00
          3   -1    0    0  501    0  0.00000000000E+00  0.00000000000E+00  0.14261404502E+02  0.14261404502E+02  0.00000000000E+00 0. -1.
         -3   -1    0    0    0  501 -0.00000000000E+00 -0.00000000000E+00 -0.94478095766E+03  0.94478095766E+03  0.00000000000E+00 0.  1.
         25    2    1    2    0    0 -0.34185147594E+02  0.14271413773E+02 -0.44920700775E+03  0.46776833589E+03  0.12509189696E+03 0.  0.
          5    1    3    3  502    0  0.32249388090E+02  0.45927344220E+02 -0.17488107593E+03  0.18371229436E+03  0.41800000000E+01 0.  1.
         -5    1    3    3    0  502 -0.66434535683E+02 -0.31655930447E+02 -0.27432593181E+03  0.28405604153E+03  0.41800000000E+01 0.  1.
        -11    1    1    2    0    0 -0.31324509163E+02 -0.49336683327E+01 -0.13264033888E+03  0.13637824407E+03  0.00000000000E+00 0.  1.
         11    1    1    2    0    0  0.65509656756E+02 -0.93377454405E+01 -0.34867220653E+03  0.35489578220E+03  0.00000000000E+00 0. -1.
</event>
<event>
 7    1  0.2855090E-009  0.9587576E+02  0.7561462E-02  0.1289216E+00
         -1   -1    0    0    0  501 -0.00000000000E+00  0.00000000000E+00  0.28949412689E+02  0.28949412689E+02  0.00000000000E+00 0.  1.
          1   -1    0    0  501    0  0.00000000000E+00 -0.00000000000E+00 -0.78724921214E+03  0.78724921214E+03  0.00000000000E+00 0. -1.
         25    2    1    2    0    0  0.61972658764E+02  0.58495173564E+02 -0.57137956508E+03  0.59108686821E+03  0.12508710009E+03 0.  0.
          5    1    3    3  502    0  0.59222091400E+02  0.60800391594E+02 -0.57699555584E+03  0.58321975926E+03  0.41800000000E+01 0. -1.
         -5    1    3    3    0  502  0.27505673637E+01 -0.23052180308E+01  0.56159907605E+01  0.78671089489E+01  0.41800000000E+01 0. -1.
        -11    1    1    2    0    0 -0.31660040328E+02 -0.63105490794E+02 -0.54505958830E+02  0.89193949738E+02  0.00000000000E+00 0.  1.
         11    1    1    2    0    0 -0.30312618436E+02  0.46103172306E+01 -0.13241427554E+03  0.13591780688E+03  0.00000000000E+00 0. -1.
</event>
<event>
 7    1  0.2855090E-009  0.1101441E+03  0.7561462E-02  0.1260303E+00
          2   -1    0    0  501    0  0.00000000000E+00  0.00000000000E+00  0.24323105185E+04  0.24323105185E+04  0.00000000000E+00 0. -1.
         -2   -1    0    0    0  501 -0.00000000000E+00 -0.00000000000E+00 -0.10589024992E+02  0.10589024992E+02  0.00000000000E+00 0.  1.
         25    2    1    2    0    0 -0.73253001047E+02  0.60607517109E+02  0.18394138742E+04  0.18461121686E+04  0.12508982784E+03 0.  0.
          5    1    3    3  502    0 -0.56250869295E+02  0.39239127125E+02  0.17709844200E+04  0.17723168897E+04  0.41800000000E+01 0. -1.
         -5    1    3    3    0  502 -0.17002131752E+02  0.21368389984E+02  0.68429454277E+02  0.73795278895E+02  0.41800000000E+01 0. -1.
        -11    1    1    2    0    0 -0.17173898324E+02 -0.14346707027E+02  0.48657506680E+02  0.53556733866E+02  0.00000000000E+00 0.  1.
         11    1    1    2    0    0  0.90426899370E+02 -0.46260810082E+02  0.53365011257E+03  0.54323064100E+03  0.00000000000E+00 0. -1.
</event>
<event>
 7    1  0.2855090E-009  0.7592247E+02  0.7561462E-02  0.1341038E+00
         -2   -1    0    0    0  501 -0.00000000000E+00  0.00000000000E+00  0.31369267359E+02  0.31369267359E+02  0.00000000000E+00 0. -1.
          2   -1    0    0  501    0  0.00000000000E+00 -0.00000000000E+00 -0.63103558944E+03  0.63103558944E+03  0.00000000000E+00 0.  1.
         25    2    1    2    0    0  0.48335402034E+02 -0.44829733387E+02 -0.47849409750E+03  0.49894882153E+03  0.12508920449E+03 0.  0.
          5    1    3    3  502    0  0.36545430353E+02 -0.51390351115E+02 -0.48053860908E+03  0.48467655594E+03  0.41800000000E+01 0. -1.
         -5    1    3    3    0  502  0.11789971681E+02  0.65606177285E+01  0.20445115828E+01  0.14272265581E+02  0.41800000000E+01 0. -1.
        -11    1    1    2    0    0 -0.27126351879E+02  0.25817743789E+01  0.58958246302E+01  0.27879477637E+02  0.00000000000E+00 0. -1.
         11    1    1    2    0    0 -0.21209050154E+02  0.42247959008E+02 -0.12706804921E+03  0.13557655763E+03  0.00000000000E+00 0.  1.
</event>
<event>
 7    1  0.2855090E-009  0.1914858E+03  0.7561462E-02  0.1157128E+00
          1   -1    0    0  501    0  0.00000000000E+00  0.00000000000E+00  0.73090149672E+03  0.73090149672E+03  0.00000000000E+00 0. -1.
         -1   -1    0    0    0  501 -0.00000000000E+00 -0.00000000000E+00 -0.84652769777E+02  0.84652769777E+02  0.00000000000E+00 0.  1.
         25    2    1    2    0    0  0.33187488371E+02 -0.18465702922E+03  0.13363706995E+03  0.26211757555E+03  0.12508848517E+03 0.  0.
          5    1    3    3  502    0  0.27143974013E+02 -0.42431913519E+02 -0.18407602810E+02  0.53791958983E+02  0.41800000000E+01 0. -1.
         -5    1    3    3    0  502  0.60435143582E+01 -0.14222511570E+03  0.15204467276E+03  0.20832561656E+03  0.41800000000E+01 0. -1.
        -11    1    1    2    0    0 -0.37897308229E+02  0.13770258308E+03  0.26179590339E+03  0.29822022465E+03  0.00000000000E+00 0. -1.
         11    1    1    2    0    0  0.47098198581E+01  0.46954446142E+02  0.25081575360E+03  0.25521646630E+03  0.00000000000E+00 0.  1.
</event>
<event>
 7    1  0.2855090E-009  0.8420615E+02  0.7561462E-02  0.1317522E+00
          1   -1    0    0  501    0  0.00000000000E+00  0.00000000000E+00  0.16250721651E+03  0.16250721651E+03  0.00000000000E+00 0. -1.
         -1   -1    0    0    0  501 -0.00000000000E+00 -0.00000000000E+00 -0.20198383629E+03  0.20198383629E+03  0.00000000000E+00 0.  1.
         25    2    1    2    0    0 -0.53844356828E+01  0.53003505091E+02  0.11479506713E+03  0.17794302153E+03  0.12508975887E+03 0.  0.
          5    1    3    3  502    0 -0.40678864235E+02  0.30946377312E+02 -0.45457925919E+01  0.51483831389E+02  0.41800000000E+01 0.  1.
         -5    1    3    3    0  502  0.35294428553E+02  0.22057127779E+02  0.11934085972E+03  0.12645919014E+03  0.41800000000E+01 0.  1.
        -11    1    1    2    0    0 -0.20755062128E+02 -0.61476813413E+01  0.15950953849E+01  0.21705089705E+02  0.00000000000E+00 0.  1.
         11    1    1    2    0    0  0.26139497811E+02 -0.46855823750E+02 -0.15586678229E+03  0.16484294157E+03  0.00000000000E+00 0. -1.
</event>
<event>
 7    1  0.2855090E-009  0.1317236E+03  0.7561462E-02  0.1224920E+00
          2   -1    0    0  501    0  0.00000000000E+00  0.00000000000E+00  0.15639178867E+03  0.15639178867E+03  0.00000000000E+00 0. -1.
         -2   -1    0    0    0  501 -0.00000000000E+00 -0.00000000000E+00 -0.15123626677E+03  0.15123626677E+03  0.00000000000E+00 0.  1.
         25    2    1    2    0    0 -0.14228089425E+02  0.95467431467E+02  0.51566865301E+02  0.16620116428E+03  0.12508883408E+03 0.  0.
          5    1    3    3  502    0  0.16245097518E+02 -0.25635306789E+02 -0.98544621688E+00  0.30651519567E+02  0.41800000000E+01 0.  1.
         -5    1    3    3    0  502 -0.30473186943E+02  0.12110273826E+03  0.52552311518E+02  0.13554964471E+03  0.41800000000E+01 0.  1.
        -11    1    1    2    0    0  0.32097697014E+02 -0.56169579030E+02 -0.67400986860E+02  0.93424711890E+02  0.00000000000E+00 0.  1.
         11    1    1    2    0    0 -0.17869607589E+02 -0.39297852437E+02  0.20989643463E+02  0.48002179266E+02  0.00000000000E+00 0. -1.
</event>
<event>
 7    1  0.2855090E-009  0.7381768E+02  0.7561462E-02  0.1347572E+00
          1   -1    0    0  501    0  0.00000000000E+00  0.00000000000E+00  0.47383132026E+03  0.47383132026E+03  0.00000000000E+00 0. -1.
         -1   -1    0    0    0  501 -0.00000000000E+00 -0.00000000000E+00 -0.29131536184E+02  0.29131536184E+02  0.00000000000E+00 0.  1.
         25    2    1    2    0    0  0.10679645260E+02  0.18488877712E+02  0.34410831314E+03  0.36676133427E+03  0.12508977465E+03 0.  0.
          5    1    3    3  502    0 -0.13426140091E+02  0.27702572382E+02  0.33862803152E+03  0.34005015789E+03  0.41800000000E+01 0. -1.
         -5    1    3    3    0  502  0.24105785351E+02 -0.92136946697E+01  0.54802816239E+01  0.26711176379E+02  0.41800000000E+01 0. -1.
        -11    1    1    2    0    0 -0.15887818731E+02  0.34078738404E+02  0.53773851261E+02  0.65615625233E+02  0.00000000000E+00 0.  1.
         11    1    1    2    0    0  0.52081734708E+01 -0.52567616116E+02  0.46817619678E+02  0.70585896943E+02  0.00000000000E+00 0. -1.
</event>
<event>
 7    1  0.2855090E-009  0.2803383E+03  0.7561462E-02  0.1095504E+00
         -1   -1    0    0    0  501 -0.00000000000E+00  0.00000000000E+00  0.21355842681E+03  0.21355842681E+03  0.00000000000E+00 0.  1.
          1   -1    0    0  501    0  0.00000000000E+00 -0.00000000000E+00 -0.45429609453E+03  0.45429609453E+03  0.00000000000E+00 0. -1.
         25    2    1    2    0    0 -0.23039434289E+03 -0.13629455831E+03 -0.67877134718E+00  0.29547494533E+03  0.12508885931E+03 0.  0.
          5    1    3    3  502    0 -0.18470217458E+03 -0.68456664962E+02 -0.45364254883E+02  0.20217961394E+03  0.41800000000E+01 0.  1.
         -5    1    3    3    0  502 -0.45692168307E+02 -0.67837893349E+02  0.44685483536E+02  0.93295331381E+02  0.41800000000E+01 0.  1.
        -11    1    1    2    0    0  0.18310434504E+02  0.49176479963E+02 -0.25405754306E+02  0.58301376872E+02  0.00000000000E+00 0.  1.
         11    1    1    2    0    0  0.21208390839E+03  0.87118078348E+02 -0.21465314207E+03  0.31407819913E+03  0.00000000000E+00 0. -1.
</event>
<event>
 7    1  0.2855090E-009  0.1500685E+03  0.7561462E-02  0.1200389E+00
         -1   -1    0    0    0  501 -0.00000000000E+00  0.00000000000E+00  0.67471052137E+02  0.67471052137E+02  0.00000000000E+00 0.  1.
          1   -1    0    0  501    0  0.00000000000E+00 -0.00000000000E+00 -0.34174490904E+03  0.34174490904E+03  0.00000000000E+00 0. -1.
         25    2    1    2    0    0 -0.31025301705E+02  0.10027627837E+03 -0.12037699470E+03  0.20287000718E+03  0.12509083744E+03 0.  0.
          5    1    3    3  502    0 -0.79237671666E+02  0.72487349132E+02 -0.77782967515E+02  0.13266758018E+03  0.41800000000E+01 0.  1.
         -5    1    3    3    0  502  0.48212369961E+02  0.27788929238E+02 -0.42594027186E+02  0.70202427004E+02  0.41800000000E+01 0.  1.
        -11    1    1    2    0    0  0.59623546772E+02 -0.86647791738E+02 -0.10979498907E+03  0.15204521291E+03  0.00000000000E+00 0.  1.
         11    1    1    2    0    0 -0.28598245067E+02 -0.13628486632E+02 -0.44101873130E+02  0.54300741085E+02  0.00000000000E+00 0. -1.
</event>
<event>
 7    1  0.2855090E-009  0.1179238E+03  0.7561462E-02  0.1246562E+00
         -1   -1    0    0    0  501 -0.00000000000E+00  0.00000000000E+00  0.14748085379E+03  0.14748085379E+03  0.00000000000E+00 0.  1.
          1   -1    0    0  501    0  0.00000000000E+00 -0.00000000000E+00 -0.11334131884E+03  0.11334131884E+03  0.00000000000E+00 0. -1.
         25    2    1    2    0    0 -0.42092317400E+02  0.50325666476E+02 -0.46490235238E+01  0.14132016601E+03  0.12508133359E+03 0.  0.
          5    1    3    3  502    0  0.22549614833E+02  0.67613908036E+02  0.11603156008E+02  0.72334164255E+02  0.41800000000E+01 0. -1.
         -5    1    3    3    0  502 -0.64641932232E+02 -0.17288241560E+02 -0.16252179532E+02  0.68986001758E+02  0.41800000000E+01 0. -1.
        -11    1    1    2    0    0  0.49045314473E+02 -0.25336443088E+01  0.49827072755E+02  0.69961413683E+02  0.00000000000E+00 0.  1.
         11    1    1    2    0    0 -0.69529970737E+01 -0.47792022167E+02 -0.11038514281E+02  0.49540592938E+02  0.00000000000E+00 0. -1.
</event>
<event>
 7    1  0.2855090E-009  0.2164595E+03  0.7561462E-02  0.1136551E+00
          2   -1    0    0  501    0  0.00000000000E+00  0.00000000000E+00  0.13401044188E+03  0.13401044188E+03  0.00000000000E+00 0. -1.
         -2   -1    0    0    0  501 -0.00000000000E+00 -0.00000000000E+00 -0.43665483338E+03  0.43665483338E+03  0.00000000000E+00 0.  1.
         25    2    1    2    0    0  0.23740851707E+02  0.20727883013E+03 -0.21685629760E+03  0.32588597591E+03  0.12508746549E+03 0.  0.
          5    1    3    3  502    0 -0.24405306396E+02  0.12998935227E+03 -0.18871584945E+03  0.23048643109E+03  0.41800000000E+01 0. -1.
         -5    1    3    3    0  502  0.48146158103E+02  0.77289477866E+02 -0.28140448145E+02  0.95399544814E+02  0.41800000000E+01 0. -1.
        -11    1    1    2    0    0 -0.23488545086E+02 -0.12672755596E+03 -0.24989252968E+01  0.12891016181E+03  0.00000000000E+00 0.  1.
         11    1    1    2    0    0 -0.25230662031E+00 -0.80551274176E+02 -0.83289168605E+02  0.11586913755E+03  0.00000000000E+00 0. -1.
</event>
<event>
 7    1  0.2855090E-009  0.1102358E+03  0.7561462E-02  0.1260134E+00
          3   -1    0    0  501    0  0.00000000000E+00  0.00000000000E+00  0.26447947106E+03  0.26447947106E+03  0.00000000000E+00 0. -1.
         -3   -1    0    0    0  501 -0.00000000000E+00 -0.00000000000E+00 -0.48071326342E+02  0.48071326342E+02  0.00000000000E+00 0.  1.
         25    2    1    2    0    0 -0.17646076108E+02 -0.19931983001E+02  0.97121818686E+02  0.16062756980E+03  0.12513952440E+03 0.  0.
          5    1    3    3  502    0 -0.56585210590E+01  0.52444447853E+02  0.28570320738E+02  0.60134637259E+02  0.41800000000E+01 0. -1.
         -5    1    3    3    0  502 -0.11987555049E+02 -0.72376430854E+02  0.68551497948E+02  0.10049293254E+03  0.41800000000E+01 0. -1.
        -11    1    1    2    0    0 -0.36572206810E+02  0.79907681290E+00  0.45547626127E+02  0.58418756239E+02  0.00000000000E+00 0.  1.
         11    1    1    2    0    0  0.54218282918E+02  0.19132906188E+02  0.73738699905E+02  0.93504471366E+02  0.00000000000E+00 0. -1.
</event>
<event>
 7    1  0.2855090E-009  0.1448927E+03  0.7561462E-02  0.1206893E+00
         -2   -1    0    0    0  501 -0.00000000000E+00  0.00000000000E+00  0.48901463479E+02  0.48901463479E+02  0.00000000000E+00 0. -1.
          2   -1    0    0  501    0  0.00000000000E+00 -0.00000000000E+00 -0.54858888765E+03  0.54858888765E+03  0.00000000000E+00 0.  1.
         25    2    1    2    0    0  0.10427201568E+03 -0.50805126447E+02 -0.20024035266E+03  0.26305507324E+03  0.12509180066E+03 0.  0.
          5    1    3    3  502    0  0.13094662754E+03 -0.36892884592E+02 -0.18320112936E+03  0.22822846097E+03  0.41800000000E+01 0. -1.
         -5    1    3    3    0  502 -0.26674611860E+02 -0.13912241855E+02 -0.17039223309E+02  0.34826612271E+02  0.41800000000E+01 0. -1.
        -11    1    1    2    0    0 -0.37385006037E+02 -0.29374725222E+01 -0.19822042509E+03  0.20173647251E+03  0.00000000000E+00 0.  1.
         11    1    1    2    0    0 -0.66887009644E+02  0.53742598969E+02 -0.10122664643E+03  0.13269880538E+03  0.00000000000E+00 0. -1.
</event>
<event>
 7    1  0.2855090E-009  0.9847762E+02  0.7561462E-02  0.1283530E+00
         -1   -1    0    0    0  501 -0.00000000000E+00  0.00000000000E+00  0.75641037639E+02  0.75641037639E+02  0.00000000000E+00 0. -1.
          1   -1    0    0  501    0  0.00000000000E+00 -0.00000000000E+00 -0.23748746079E+03  0.23748746079E+03  0.00000000000E+00 0.  1.
         25    2    1    2    0    0  0.63610271806E+02 -0.83156174792E+01 -0.14301554146E+03  0.20053984862E+03  0.12508944645E+03 0.  0.
          5    1    3    3  502    0  0.82792771583E+02  0.41663151374E+01 -0.15389910522E+03  0.17485539224E+03  0.41800000000E+01 0.  1.
         -5    1    3    3    0  502 -0.19182499777E+02 -0.12481932617E+02  0.10883563758E+02  0.25684456381E+02  0.41800000000E+01 0.  1.
        -11    1    1    2    0    0 -0.37050163227E+02 -0.27469925890E+02  0.22935827254E+02  0.51510810471E+02  0.00000000000E+00 0. -1.
         11    1    1    2    0    0 -0.26560108579E+02  0.35785543370E+02 -0.41766708939E+02  0.61077839333E+02  0.00000000000E+00 0.  1.
</event>
<event>
 7    1  0.2855090E-009  0.2656540E+03  0.7561462E-02  0.1103793E+00
          2   -1    0    0  501    0  0.00000000000E+00  0.00000000000E+00  0.13144064909E+04  0.13144064909E+04  0.00000000000E+00 0.  1.
         -2   -1    0    0    0  501 -0.00000000000E+00 -0.00000000000E+00 -0.90044991757E+02  0.90044991757E+02  0.00000000000E+00 0. -1.
         25    2    1    2    0    0 -0.23535521938E+03 -0.11280698896E+03  0.10218809163E+04  0.10620760560E+04  0.12508975020E+03 0.  0.
          5    1    3    3  502    0 -0.53699181314E+02 -0.44026470788E+02  0.50714657303E+03  0.51189554709E+03  0.41800000000E+01 0. -1.
         -5    1    3    3    0  502 -0.18165603807E+03 -0.68780518172E+02  0.51473434330E+03  0.55018050895E+03  0.41800000000E+01 0. -1.
        -11    1    1    2    0    0  0.22075863626E+03  0.85972783656E+02  0.14633944432E+03  0.27846171726E+03  0.00000000000E+00 0. -1.
         11    1    1    2    0    0  0.14596583123E+02  0.26834205305E+02  0.56141138473E+02  0.63913709345E+02  0.00000000000E+00 0.  1.
</event>
<event>
 7    1  0.2855090E-009  0.1243457E+03  0.7561462E-02  0.1236095E+00
          1   -1    0    0  501    0  0.00000000000E+00  0.00000000000E+00  0.10343213222E+03  0.10343213222E+03  0.00000000000E+00 0. -1.
         -1   -1    0    0    0  501 -0.00000000000E+00 -0.00000000000E+00 -0.16388442284E+03  0.16388442284E+03  0.00000000000E+00 0.  1.
         25    2    1    2    0    0  0.15292068767E+02  0.60112936163E+02 -0.56337816907E+02  0.15055914716E+03  0.12508674877E+03 0.  0.
          5    1    3    3  502    0  0.37452363484E+01 -0.38277331884E+02 -0.53217632390E+01  0.39050921826E+02  0.41800000000E+01 0. -1.
         -5    1    3    3    0  502  0.11546832419E+02  0.98390268047E+02 -0.51016053668E+02  0.11150822533E+03  0.41800000000E+01 0. -1.
        -11    1    1    2    0    0 -0.51227350528E+02 -0.53940477227E+02  0.14545632634E+02  0.75798363797E+02  0.00000000000E+00 0. -1.
         11    1    1    2    0    0  0.35935281761E+02 -0.61724589363E+01 -0.18660106353E+02  0.40959044101E+02  0.00000000000E+00 0.  1.
</event>
<event>
 7    1  0.2855090E-009  0.9146685E+02  0.7561462E-02  0.1299338E+00
          1   -1    0    0  501    0  0.00000000000E+00  0.00000000000E+00  0.39522379889E+02  0.39522379889E+02  0.00000000000E+00 0. -1.
         -1   -1    0    0    0  501 -0.00000000000E+00 -0.00000000000E+00 -0.50792381165E+03  0.50792381165E+03  0.00000000000E+00 0.  1.
         25    2    1    2    0    0  0.62345402493E+01 -0.97118697616E+01 -0.41853717421E+03  0.43698363616E+03  0.12509253441E+03 0.  0.
          5    1    3    3  502    0 -0.46758191156E+02 -0.37552971806E+02 -0.27338653483E+03  0.27991824513E+03  0.41800000000E+01 0.  1.
         -5    1    3    3    0  502  0.52992731405E+02  0.27841102044E+02 -0.14515063938E+03  0.15706539103E+03  0.41800000000E+01 0.  1.
        -11    1    1    2    0    0  0.23428988875E+02  0.20613875708E+02  0.17696830681E+02  0.35875161429E+02  0.00000000000E+00 0. -1.
         11    1    1    2    0    0 -0.29663529125E+02 -0.10902005946E+02 -0.67561088232E+02  0.74587393954E+02  0.00000000000E+00 0.  1.
</event>
<event>
 7    1  0.2855090E-009  0.3031753E+03  0.7561462E-02  0.1083664E+00
         -2   -1    0    0    0  501 -0.00000000000E+00  0.00000000000E+00  0.36736932920E+03  0.36736932920E+03  0.00000000000E+00 0.  1.
          2   -1    0    0  501    0  0.00000000000E+00 -0.00000000000E+00 -0.71917000021E+03  0.71917000021E+03  0.00000000000E+00 0. -1.
         25    2    1    2    0    0  0.20955222971E+03 -0.21061315480E+03 -0.60503380398E+03  0.68555390897E+03  0.12509284627E+03 0.  0.
          5    1    3    3  502    0  0.36528786757E+02 -0.35613278725E+01 -0.21746956373E+02  0.42865345323E+02  0.41800000000E+01 0.  1.
         -5    1    3    3    0  502  0.17302344296E+03 -0.20705182693E+03 -0.58328684761E+03  0.64268856365E+03  0.41800000000E+01 0.  1.
        -11    1    1    2    0    0 -0.69075545340E+02  0.95895357491E+02  0.15439513912E+03  0.19443561798E+03  0.00000000000E+00 0.  1.
         11    1    1    2    0    0 -0.14047668437E+03  0.11471779731E+03  0.98837993848E+02  0.20654980247E+03  0.00000000000E+00 0. -1.
</event>
<event>
 7    1  0.2855090E-009  0.2530101E+03  0.7561462E-02  0.1111417E+00
         -2   -1    0    0    0  501 -0.00000000000E+00  0.00000000000E+00  0.67538531688E+03  0.67538531688E+03  0.00000000000E+00 0. -1.
          2   -1    0    0  501    0  0.00000000000E+00 -0.00000000000E+00 -0.12537046921E+03  0.12537046921E+03  0.00000000000E+00 0.  1.
         25    2    1    2    0    0  0.17900945547E+03 -0.14859324647E+03  0.92643364744E+02  0.27992024772E+03  0.12509282157E+03 0.  0.
          5    1    3    3  502    0  0.61568135284E+02 -0.12902472332E+03  0.67550235819E+02  0.15817244156E+03  0.41800000000E+01 0.  1.
         -5    1    3    3    0  502  0.11744132019E+03 -0.19568523157E+02  0.25093128925E+02  0.12174780616E+03  0.41800000000E+01 0.  1.
        -11    1    1    2    0    0 -0.73324954639E+02  0.10823810284E+03  0.29778259096E+03  0.32521763076E+03  0.00000000000E+00 0.  1.
         11    1    1    2    0    0 -0.10568450083E+03  0.40355143634E+02  0.15958889197E+03  0.19561790760E+03  0.00000000000E+00 0. -1.
</event>
<event>
 7    1  0.2855090E-009  0.1747630E+03  0.7561462E-02  0.1172970E+00
          3   -1    0    0  501    0  0.00000000000E+00  0.00000000000E+00  0.13863129163E+03  0.13863129163E+03  0.00000000000E+00 0. -1.
         -3   -1    0    0    0  501 -0.00000000000E+00 -0.00000000000E+00 -0.22562488380E+03  0.22562488380E+03  0.00000000000E+00 0.  1.
         25    2    1    2    0    0  0.11512745896E+03  0.74975735627E+02 -0.19390863098E+02  0.18681456704E+03  0.12509190280E+03 0.  0.
          5    1    3    3  502    0  0.75183481575E+01  0.77479875068E+02 -0.11594009706E+02  0.78813387572E+02  0.41800000000E+01 0. -1.
         -5    1    3    3    0  502  0.10760911080E+03 -0.25041394410E+01 -0.77968533920E+01  0.10800117946E+03  0.41800000000E+01 0. -1.
        -11    1    1    2    0    0 -0.94595158302E+02 -0.93127931001E+01 -0.34790704101E+02  0.10121939133E+03  0.00000000000E+00 0. -1.
         11    1    1    2    0    0 -0.20532300660E+02 -0.65662942527E+02 -0.32812024974E+02  0.76222217067E+02  0.00000000000E+00 0.  1.
</event>
<event>
 7    1  0.2855090E-009  0.1077017E+03  0.7561462E-02  0.1264886E+00
         -2   -1    0    0    0  501 -0.00000000000E+00  0.00000000000E+00  0.72841892112E+02  0.72841892112E+02  0.00000000000E+00 0.  1.
          2   -1    0    0  501    0  0.00000000000E+00 -0.00000000000E+00 -0.21061963325E+03  0.21061963325E+03  0.00000000000E+00 0. -1.
         25    2    1    2    0    0  0.74456624396E+01 -0.18793464261E+02 -0.14259855053E+03  0.19076168488E+03  0.12508813539E+03 0.  0.
          5    1    3    3  502    0 -0.51487701942E+00 -0.70982194779E+02 -0.10049022631E+03  0.12310359482E+03  0.41800000000E+01 0.  1.
         -5    1    3    3    0  502  0.79605394590E+01  0.52188730518E+02 -0.42108324226E+02  0.67658090061E+02  0.41800000000E+01 0.  1.
        -11    1    1    2    0    0 -0.42868047828E+02  0.32042216384E+02  0.10251892743E+02  0.54492884491E+02  0.00000000000E+00 0.  1.
         11    1    1    2    0    0  0.35422385389E+02 -0.13248752122E+02 -0.54310833432E+01  0.38206955986E+02  0.00000000000E+00 0. -1.
</event>
<event>
 7    1  0.2855090E-009  0.1224919E+03  0.7561462E-02  0.1239042E+00
         -1   -1    0    0    0  501 -0.00000000000E+00  0.00000000000E+00  0.10504439798E+03  0.10504439798E+03  0.00000000000E+00 0.  1.
          1   -1    0    0  501    0  0.00000000000E+00 -0.00000000000E+00 -0.17284638295E+03  0.17284638295E+03  0.00000000000E+00 0. -1.
         25    2    1    2    0    0 -0.26740038672E+02  0.72280308902E+02 -0.13237835338E+02  0.14751649280E+03  0.12508558126E+03 0.  0.
          5    1    3    3  502    0 -0.75752047508E+02  0.58493224914E+02 -0.70446008719E+01  0.96056904302E+02  0.41800000000E+01 0.  1.
         -5    1    3    3    0  502  0.49012008836E+02  0.13787083988E+02 -0.61932344658E+01  0.51459588496E+02  0.41800000000E+01 0.  1.
        -11    1    1    2    0    0  0.41092065481E+02 -0.72955605483E+02 -0.70107968260E+02  0.10920716749E+03  0.00000000000E+00 0. -1.
         11    1    1    2    0    0 -0.14352026809E+02  0.67529658110E+00  0.15543818626E+02  0.21167120647E+02  0.00000000000E+00 0.  1.
</event>
<event>
 7    1  0.3106328E-009  0.8052002E+02  0.7561462E-02  0.1327582E+00
         -2   -1    0    0    0  501 -0.00000000000E+00  0.00000000000E+00  0.62870217113E+02  0.62870217113E+02  0.00000000000E+00 0.  1.
          2   -1    0    0  501    0  0.00000000000E+00 -0.00000000000E+00 -0.26930918630E+03  0.26930918630E+03  0.00000000000E+00 0. -1.
         25    2    1    2    0    0 -0.26727989929E+01  0.29637446418E+01 -0.20444264430E+03  0.23971120297E+03  0.12509491750E+03 0.  0.
          5    1    3    3  502    0  0.19343307956E+01 -0.60642560722E+02 -0.10964586175E+03  0.12538320942E+03  0.41800000000E+01 0.  1.
         -5    1    3    3    0  502 -0.46071297885E+01  0.63606305363E+02 -0.94796782544E+02  0.11432799354E+03  0.41800000000E+01 0.  1.
        -11    1    1    2    0    0 -0.50771337788E+01  0.15488475610E+02  0.41501246440E+02  0.44587258496E+02  0.00000000000E+00 0.  1.
         11    1    1    2    0    0  0.77499327716E+01 -0.18452220252E+02 -0.43497571336E+02  0.47880941953E+02  0.00000000000E+00 0. -1.
</event>
<event>
 7    1  0.2855090E-009  0.1081270E+03  0.7561462E-02  0.1264078E+00
         -1   -1    0    0    0  501 -0.00000000000E+00  0.00000000000E+00  0.51880958023E+03  0.51880958023E+03  0.00000000000E+00 0.  1.
          1   -1    0    0  501    0  0.00000000000E+00 -0.00000000000E+00 -0.31053502877E+02  0.31053502877E+02  0.00000000000E+00 0. -1.
         25    2    1    2    0    0  0.41651893826E+02  0.21601406336E+02  0.22016373730E+03  0.25753001476E+03  0.12509251082E+03 0.  0.
          5    1    3    3  502    0 -0.72541139730E+01  0.60604948670E+02  0.15715759458E+03  0.16864626858E+03  0.41800000000E+01 0.  1.
         -5    1    3    3    0  502  0.48906007799E+02 -0.39003542334E+02  0.63006142721E+02  0.88883746175E+02  0.41800000000E+01 0.  1.
        -11    1    1    2    0    0 -0.18011907816E+02  0.30355653836E+02  0.25352444029E+02  0.43458496997E+02  0.00000000000E+00 0. -1.
         11    1    1    2    0    0 -0.23639986010E+02 -0.51957060172E+02  0.24223989602E+03  0.24887457135E+03  0.00000000000E+00 0.  1.
</event>
<event>
 7    1  0.2855090E-009  0.1197537E+03  0.7561462E-02  0.1243504E+00
          1   -1    0    0  501    0  0.00000000000E+00  0.00000000000E+00  0.67606262343E+03  0.67606262343E+03  0.00000000000E+00 0. -1.
         -1   -1    0    0    0  501 -0.00000000000E+00 -0.00000000000E+00 -0.22340770577E+02  0.22340770577E+02  0.00000000000E+00 0.  1.
         25    2    1    2    0    0  0.72634724439E+02 -0.34787427271E+02  0.37568435793E+03  0.40407037103E+03  0.12509260434E+03 0.  0.
          5    1    3    3  502    0 -0.34715121314E+02 -0.20113157284E+02  0.10381987781E+03  0.11138095965E+03  0.41800000000E+01 0. -1.
         -5    1    3    3    0  502  0.10734984575E+03 -0.14674269987E+02  0.27186448013E+03  0.29268941139E+03  0.41800000000E+01 0. -1.
        -11    1    1    2    0    0 -0.19809142151E+02  0.32257907032E+02  0.68919947144E+02  0.78631633540E+02  0.00000000000E+00 0.  1.
         11    1    1    2    0    0 -0.52825582288E+02  0.25295202393E+01  0.20911754777E+03  0.21570138943E+03  0.00000000000E+00 0. -1.
</event>
<event>
 7    1  0.2855090E-009  0.2503216E+03  0.7561462E-02  0.1113102E+00
         -2   -1    0    0    0  501 -0.00000000000E+00  0.00000000000E+00  0.17233591412E+03  0.17233591412E+03  0.00000000000E+00 0. -1.
          2   -1    0    0  501    0  0.00000000000E+00 -0.00000000000E+00 -0.59457364536E+03  0.59457364536E+03  0.00000000000E+00 0.  1.
         25    2    1    2    0    0 -0.10970018232E+03  0.20166296193E+03  0.18725240492E+02  0.26210668776E+03  0.12508877215E+03 0.  0.
          5    1    3    3  502    0  0.19509749888E+02 -0.99603060678E+00  0.78960660415E+01  0.21481216832E+02  0.41800000000E+01 0.  1.
         -5    1    3    3    0  502 -0.12920993221E+03  0.20265899254E+03  0.10829174451E+02  0.24062547092E+03  0.41800000000E+01 0.  1.
        -11    1    1    2    0    0  0.48647364273E+02 -0.15774583452E+03 -0.25020488407E+03  0.29975456355E+03  0.00000000000E+00 0.  1.
         11    1    1    2    0    0  0.61052818048E+02 -0.43917127415E+02 -0.19075808767E+03  0.20504830817E+03  0.00000000000E+00 0. -1.
</event>
<event>
 7    1  0.2855090E-009  0.1175083E+03  0.7561462E-02  0.1247265E+00
         -1   -1    0    0    0  501 -0.00000000000E+00  0.00000000000E+00  0.39638235171E+03  0.39638235171E+03  0.00000000000E+00 0.  1.
          1   -1    0    0  501    0  0.00000000000E+00 -0.00000000000E+00 -0.53073376249E+02  0.53073376249E+02  0.00000000000E+00 0. -1.
         25    2    1    2    0    0  0.90513102605E+02  0.32069419100E+02  0.18570188556E+03  0.24362600181E+03  0.12508944428E+03 0.  0.
          5    1    3    3  502    0  0.10678698871E+03  0.19124626946E+02  0.19279471368E+03  0.22126112703E+03  0.41800000000E+01 0.  1.
         -5    1    3    3    0  502 -0.16273886106E+02  0.12944792154E+02 -0.70928281162E+01  0.22364874772E+02  0.41800000000E+01 0.  1.
        -11    1    1    2    0    0 -0.59007586658E+02 -0.41746185139E+02  0.37793682879E+02  0.81565934815E+02  0.00000000000E+00 0. -1.
         11    1    1    2    0    0 -0.31505515947E+02  0.96767660390E+01  0.11981340702E+03  0.12426379134E+03  0.00000000000E+00 0.  1.
</event>
<event>
 7    1  0.2855090E-009  0.9108714E+02  0.7561462E-02  0.1300240E+00
         -4   -1    0    0    0  501 -0.00000000000E+00  0.00000000000E+00  0.27978950426E+03  0.27978950426E+03  0.00000000000E+00 0.  1.
          4   -1    0    0  501    0  0.00000000000E+00 -0.00000000000E+00 -0.51583683305E+02  0.51583683305E+02  0.00000000000E+00 0. -1.
         25    2    1    2    0    0 -0.32513246005E+02 -0.39692532191E+00  0.72088631255E+02  0.14798824476E+03  0.12508589495E+03 0.  0.
          5    1    3    3  502    0  0.17925736375E+02 -0.26773164115E+02  0.83666269629E+02  0.89753280803E+02  0.41800000000E+01 0. -1.
         -5    1    3    3    0  502 -0.50438982381E+02  0.26376238793E+02 -0.11577638374E+02  0.58234963955E+02  0.41800000000E+01 0. -1.
        -11    1    1    2    0    0  0.61590745239E+02  0.91006939644E+01  0.79521051702E+02  0.10099425822E+03  0.00000000000E+00 0.  1.
         11    1    1    2    0    0 -0.29077499234E+02 -0.87037686425E+01  0.76596138000E+02  0.82390684588E+02  0.00000000000E+00 0. -1.
</event>
<event>
 7    1  0.2855090E-009  0.1282175E+03  0.7561462E-02  0.1230125E+00
         -2   -1    0    0    0  501 -0.00000000000E+00  0.00000000000E+00  0.11108062312E+03  0.11108062312E+03  0.00000000000E+00 0.  1.
          2   -1    0    0  501    0  0.00000000000E+00 -0.00000000000E+00 -0.22029263282E+03  0.22029263282E+03  0.00000000000E+00 0. -1.
         25    2    1    2    0    0  0.61692374929E+01 -0.11073214885E+03 -0.78461503982E+02  0.18467328132E+03  0.12509334493E+03 0.  0.
          5    1    3    3  502    0 -0.10641121976E+02 -0.78883958009E+02  0.17920891284E+02  0.81697876670E+02  0.41800000000E+01 0. -1.
         -5    1    3    3    0  502  0.16810359469E+02 -0.31848190846E+02 -0.96382395265E+02  0.10297540465E+03  0.41800000000E+01 0. -1.
        -11    1    1    2    0    0  0.47456821030E+01  0.12354777093E+03 -0.16677585268E+02  0.12475862716E+03  0.00000000000E+00 0.  1.
         11    1    1    2    0    0 -0.10914919596E+02 -0.12815622071E+02 -0.14072920443E+02  0.21941347466E+02  0.00000000000E+00 0. -1.
</event>
<event>
 6    1  0.2855090E-009  0.1008162E+03  0.7561462E-02  0.1278589E+00
         -2   -1    0    0    0  501 -0.00000000000E+00  0.00000000000E+00  0.47614108593E+02  0.47614108593E+02  0.00000000000E+00 0.  1.
          2   -1    0    0  501    0  0.00000000000E+00 -0.00000000000E+00 -0.40589778678E+03  0.40589778678E+03  0.00000000000E+00 0. -1.
          5    1    1    2  502    0 -0.17016692259E+02  0.57504619511E+02 -0.12241198531E+03  0.13637637489E+03  0.41800000000E+01 0. -1.
         -5    1    1    2    0  502  0.63569479759E+02 -0.37826536007E+02 -0.18665227031E+03  0.20081949108E+03  0.41800000000E+01 0. -1.
        -11    1    1    2    0    0 -0.32615334806E+02 -0.34227654840E+02 -0.71853874966E+02  0.86013206939E+02  0.00000000000E+00 0. -1.
         11    1    1    2    0    0 -0.13937452694E+02  0.14549571336E+02  0.22634452404E+02  0.30302822464E+02  0.00000000000E+00 0.  1.
</event>
<event>
 7    1  0.2855090E-009  0.1571631E+03  0.7561462E-02  0.1191937E+00
          2   -1    0    0  501    0  0.00000000000E+00  0.00000000000E+00  0.68660585113E+03  0.68660585113E+03  0.00000000000E+00 0. -1.
         -2   -1    0    0    0  501 -0.00000000000E+00 -0.00000000000E+00 -0.39275525977E+02  0.39275525977E+02  0.00000000000E+00 0.  1.
         25    2    1    2    0    0 -0.10848699390E+03 -0.55776066743E+02  0.38862772211E+03  0.42609817771E+03  0.12509097966E+03 0.  0.
          5    1    3    3  502    0 -0.46852369077E+02  0.37361336358E+02  0.10091637272E+03  0.11744190320E+03  0.41800000000E+01 0.  1.
         -5    1    3    3    0  502 -0.61634624828E+02 -0.93137403102E+02  0.28771134938E+03  0.30865627452E+03  0.41800000000E+01 0.  1.
        -11    1    1    2    0    0  0.31326618516E+02  0.57314681321E+02  0.69147139009E+02  0.95119170285E+02  0.00000000000E+00 0.  1.
         11    1    1    2    0    0  0.77160375389E+02 -0.15386145778E+01  0.18955546404E+03  0.20466402911E+03  0.00000000000E+00 0. -1.
</event>
<event>
 7    1  0.2855090E-009  0.1691799E+03  0.7561462E-02  0.1178706E+00
         -2   -1    0    0    0  501 -0.00000000000E+00  0.00000000000E+00  0.80435334682E+02  0.80435334682E+02  0.00000000000E+00 0.  1.
          2   -1    0    0  501    0  0.00000000000E+00 -0.00000000000E+00 -0.42551902192E+03  0.42551902192E+03  0.00000000000E+00 0. -1.
         25    2    1    2    0    0  0.64411340671E+01  0.13895696300E+03 -0.25462374074E+03  0.31596083249E+03  0.12508985789E+03 0.  0.
          5    1    3    3  502    0 -0.43760267271E+02  0.10095874103E+03 -0.99167458821E+02  0.14818665821E+03  0.41800000000E+01 0.  1.
         -5    1    3    3    0  502  0.50201401338E+02  0.37998221972E+02 -0.15545628192E+03  0.16777417429E+03  0.41800000000E+01 0.  1.
        -11    1    1    2    0    0  0.12889566021E+02 -0.14447096769E+03 -0.88221353130E+02  0.16976751328E+03  0.00000000000E+00 0.  1.
         11    1    1    2    0    0 -0.19330700088E+02  0.55140046917E+01 -0.22385933629E+01  0.20226010825E+02  0.00000000000E+00 0. -1.
</event>
<event>
 7    1  0.2855090E-009  0.7714009E+02  0.7561462E-02  0.1337369E+00
          2   -1    0    0  501    0  0.00000000000E+00  0.00000000000E+00  0.37440749694E+03  0.37440749694E+03  0.00000000000E+00 0. -1.
         -2   -1    0    0    0  501 -0.00000000000E+00 -0.00000000000E+00 -0.30654675981E+02  0.30654675981E+02  0.00000000000E+00 0.  1.
         25    2    1    2    0    0 -0.81489605967E+00 -0.10487773106E+02  0.21170051983E+03  0.24611919600E+03  0.12508753377E+03 0.  0.
          5    1    3    3  502    0 -0.42608766808E+02  0.30217585196E+01  0.16480245201E+02  0.45975090161E+02  0.41800000000E+01 0.  1.
         -5    1    3    3    0  502  0.41793870749E+02 -0.13509531626E+02  0.19522027463E+03  0.20014410584E+03  0.41800000000E+01 0.  1.
        -11    1    1    2    0    0  0.21872544357E+02 -0.20364623465E+02  0.11324470011E+03  0.11712168112E+03  0.00000000000E+00 0. -1.
         11    1    1    2    0    0 -0.21057648297E+02  0.30852396571E+02  0.18807601018E+02  0.41821295796E+02  0.00000000000E+00 0.  1.
</event>
<event>
 7    1  0.2855090E-009  0.1531090E+03  0.7561462E-02  0.1196704E+00
          2   -1    0    0  501    0  0.00000000000E+00  0.00000000000E+00  0.10421115643E+03  0.10421115643E+03  0.00000000000E+00 0. -1.
         -2   -1    0    0    0  501 -0.00000000000E+00 -0.00000000000E+00 -0.32658464218E+03  0.32658464218E+03  0.00000000000E+00 0.  1.
         25    2    1    2    0    0 -0.11549661125E+03  0.36108551460E+02 -0.21795803683E+03  0.27892937718E+03  0.12511033903E+03 0.  0.
          5    1    3    3  502    0 -0.12278762674E+03  0.35694837922E+00 -0.11004235568E+03  0.16493550599E+03  0.41800000000E+01 0. -1.
         -5    1    3    3    0  502  0.72910154849E+01  0.35751603081E+02 -0.10791568115E+03  0.11399387119E+03  0.41800000000E+01 0. -1.
        -11    1    1    2    0    0  0.92055336871E+02  0.12274423491E+02 -0.21741544742E+02  0.95381032109E+02  0.00000000000E+00 0. -1.
         11    1    1    2    0    0  0.23441274384E+02 -0.48382974951E+02  0.17326095825E+02  0.56485389318E+02  0.00000000000E+00 0.  1.
</event>
<event>
 7    1  0.2855090E-009  0.2698090E+03  0.7561462E-02  0.1101389E+00
         -1   -1    0    0    0  501 -0.00000000000E+00  0.00000000000E+00  0.18843173154E+03  0.18843173154E+03  0.00000000000E+00 0.  1.
          1   -1    0    0  501    0  0.00000000000E+00 -0.00000000000E+00 -0.43410869699E+03  0.43410869699E+03  0.00000000000E+00 0. -1.
         25    2    1    2    0    0  0.29684855060E+01  0.25408558645E+03 -0.47447206678E+02  0.28717200493E+03  0.12509286889E+03 0.  0.
          5    1    3    3  502    0  0.57501418683E+02  0.10668823170E+03 -0.46706487088E+02  0.12995291559E+03  0.41800000000E+01 0.  1.
         -5    1    3    3    0  502 -0.54532933177E+02  0.14739735475E+03 -0.74071959037E+00  0.15721908934E+03  0.41800000000E+01 0.  1.
        -11    1    1    2    0    0  0.25896151324E+02 -0.66970173590E+02 -0.96976272514E+02  0.12066487573E+03  0.00000000000E+00 0. -1.
         11    1    1    2    0    0 -0.28864636830E+02 -0.18711541286E+03 -0.10125348627E+03  0.21470354787E+03  0.00000000000E+00 0.  1.
</event>
<event>
 7    1  0.2855090E-009  0.1011766E+03  0.7561462E-02  0.1277841E+00
         -2   -1    0    0    0  501 -0.00000000000E+00  0.00000000000E+00  0.22151541017E+03  0.22151541017E+03  0.00000000000E+00 0. -1.
          2   -1    0    0  501    0  0.00000000000E+00 -0.00000000000E+00 -0.66130724753E+02  0.66130724753E+02  0.00000000000E+00 0.  1.
         25    2    1    2    0    0 -0.49962757747E+02  0.50190219194E+02  0.66442420636E+02  0.15836181672E+03  0.12509410246E+03 0.  0.
          5    1    3    3  502    0 -0.59557221957E+02  0.76716716930E+02  0.13387064989E+02  0.98128503773E+02  0.41800000000E+01 0. -1.
         -5    1    3    3    0  502  0.95944642095E+01 -0.26526497736E+02  0.53055355647E+02  0.60233312946E+02  0.41800000000E+01 0. -1.
        -11    1    1    2    0    0  0.34543864221E+02 -0.13972939368E+02  0.63614966407E+01  0.37801987109E+02  0.00000000000E+00 0.  1.
         11    1    1    2    0    0  0.15418893526E+02 -0.36217279827E+02  0.82580768140E+02  0.91482331093E+02  0.00000000000E+00 0. -1.
</event>
<event>
 7    1  0.2855090E-009  0.8909498E+02  0.7561462E-02  0.1305058E+00
         -2   -1    0    0    0  501 -0.00000000000E+00  0.00000000000E+00  0.63346331944E+02  0.63346331944E+02  0.00000000000E+00 0.  1.
          2   -1    0    0  501    0  0.00000000000E+00 -0.00000000000E+00 -0.19615527360E+03  0.19615527360E+03  0.00000000000E+00 0. -1.
         25    2    1    2    0    0  0.11616561768E+02  0.64685623344E+01 -0.97948496486E+02  0.15943308062E+03  0.12509281524E+03 0.  0.
          5    1    3    3  502    0  0.63842748663E+01 -0.49889157132E+02 -0.52514766028E+01  0.50741870003E+02  0.41800000000E+01 0.  1.
         -5    1    3    3    0  502  0.52322869017E+01  0.56357719466E+02 -0.92697019883E+02  0.10869121061E+03  0.41800000000E+01 0.  1.
        -11    1    1    2    0    0 -0.13454293323E+02 -0.37520624558E+02  0.13914393127E+02  0.42218782694E+02  0.00000000000E+00 0.  1.
         11    1    1    2    0    0  0.18377315555E+01  0.31052062224E+02 -0.48774838299E+02  0.57849742236E+02  0.00000000000E+00 0. -1.
</event>
<event>
 7    1  0.2855090E-009  0.1410344E+03  0.7561462E-02  0.1211944E+00
         -2   -1    0    0    0  501 -0.00000000000E+00  0.00000000000E+00  0.20775634344E+02  0.20775634344E+02  0.00000000000E+00 0. -1.
          2   -1    0    0  501    0  0.00000000000E+00 -0.00000000000E+00 -0.11093847163E+04  0.11093847163E+04  0.00000000000E+00 0.  1.
         25    2    1    2    0    0  0.59659518748E+02  0.72416333154E+02 -0.76860336553E+03  0.78434815344E+03  0.12509000284E+03 0.  0.
          5    1    3    3  502    0  0.96896174477E+02  0.60688646299E+02 -0.50221801175E+03  0.51508483199E+03  0.41800000000E+01 0.  1.
         -5    1    3    3    0  502 -0.37236655729E+02  0.11727686855E+02 -0.26638535379E+03  0.26926332145E+03  0.41800000000E+01 0.  1.
        -11    1    1    2    0    0 -0.26909795054E+02  0.17904370762E+02 -0.11419947656E+03  0.11868539931E+03  0.00000000000E+00 0. -1.
         11    1    1    2    0    0 -0.32749723694E+02 -0.90320703917E+02 -0.20580623990E+03  0.22712679794E+03  0.00000000000E+00 0.  1.
</event>
<event>
 7    1  0.2855090E-009  0.1205149E+03  0.7561462E-02  0.1242250E+00
         -2   -1    0    0    0  501 -0.00000000000E+00  0.00000000000E+00  0.25863715046E+03  0.25863715046E+03  0.00000000000E+00 0.  1.
          2   -1    0    0  501    0  0.00000000000E+00 -0.00000000000E+00 -0.10636410577E+03  0.10636410577E+03  0.00000000000E+00 0. -1.
         25    2    1    2    0    0 -0.52710929586E+02 -0.72757837745E+02  0.17581006701E+03  0.23372485017E+03  0.12508389533E+03 0.  0.
          5    1    3    3  502    0 -0.12254108585E+02  0.15940356398E+02 -0.10755373847E+02  0.23182075099E+02  0.41800000000E+01 0. -1.
         -5    1    3    3    0  502 -0.40456821001E+02 -0.88698194143E+02  0.18656544086E+03  0.21054277507E+03  0.41800000000E+01 0. -1.
        -11    1    1    2    0    0 -0.11873843889E+02  0.54529469241E+02  0.92809914474E+01  0.56573739373E+02  0.00000000000E+00 0. -1.
         11    1    1    2    0    0  0.64584773475E+02  0.18228368504E+02 -0.32818013768E+02  0.74702666691E+02  0.00000000000E+00 0.  1.
</event>
<event>
 7    1  0.2855090E-009  0.8332892E+02  0.7561462E-02  0.1319861E+00
         -1   -1    0    0    0  501 -0.00000000000E+00  0.00000000000E+00  0.76768324250E+02  0.76768324250E+02  0.00000000000E+00 0.  1.
          1   -1    0    0  501    0  0.00000000000E+00 -0.00000000000E+00 -0.20276067588E+03  0.20276067588E+03  0.00000000000E+00 0. -1.
         25    2    1    2    0    0 -0.59075094405E+01  0.58476490337E+02 -0.51456504850E+02  0.14747736194E+03  0.12508957512E+03 0.  0.
          5    1    3    3  502    0 -0.14760159427E+02 -0.95090837583E+01  0.33605524252E+02  0.38145624133E+02  0.41800000000E+01 0.  1.
         -5    1    3    3    0  502  0.88526499869E+01  0.67985574095E+02 -0.85062029103E+02  0.10933173781E+03  0.41800000000E+01 0.  1.
        -11    1    1    2    0    0  0.89301797016E+01 -0.68691439542E+02 -0.89815930791E+02  0.11342470366E+03  0.00000000000E+00 0. -1.
         11    1    1    2    0    0 -0.30226702611E+01  0.10214949206E+02  0.15280084010E+02  0.18626934534E+02  0.00000000000E+00 0.  1.
</event>
<event>
 7    1  0.2855090E-009  0.1031492E+03  0.7561462E-02  0.1273810E+00
          1   -1    0    0  501    0  0.00000000000E+00  0.00000000000E+00  0.10729056588E+04  0.10729056588E+04  0.00000000000E+00 0. -1.
         -1   -1    0    0    0  501 -0.00000000000E+00 -0.00000000000E+00 -0.17074465485E+02  0.17074465485E+02  0.00000000000E+00 0.  1.
         25    2    1    2    0    0 -0.34498411588E+01 -0.28140781498E+02  0.89581380623E+03  0.90494969964E+03  0.12509108061E+03 0.  0.
          5    1    3    3  502    0  0.10422384857E+02  0.48743519109E+02  0.35362140472E+03  0.35714160643E+03  0.41800000000E+01 0. -1.
         -5    1    3    3    0  502 -0.13872226016E+02 -0.76884300607E+02  0.54219240151E+03  0.54780809321E+03  0.41800000000E+01 0. -1.
        -11    1    1    2    0    0  0.94416634146E+01 -0.23878451833E+02  0.12625478398E+02  0.28613426477E+02  0.00000000000E+00 0.  1.
         11    1    1    2    0    0 -0.59918222558E+01  0.52019233331E+02  0.14739190865E+03  0.15641699813E+03  0.00000000000E+00 0. -1.
</event>
<event>
 7    1  0.2855090E-009  0.8633130E+02  0.7561462E-02  0.1311987E+00
          1   -1    0    0  501    0  0.00000000000E+00  0.00000000000E+00  0.63707932933E+02  0.63707932933E+02  0.00000000000E+00 0. -1.
         -1   -1    0    0    0  501 -0.00000000000E+00 -0.00000000000E+00 -0.19626712357E+03  0.19626712357E+03  0.00000000000E+00 0.  1.
         25    2    1    2    0    0  0.94969766559E+01  0.13367820638E+02 -0.85645736456E+02  0.15248607066E+03  0.12509163992E+03 0.  0.
          5    1    3    3  502    0  0.30074315917E+02  0.35177925934E+02 -0.10618046503E+03  0.11590390203E+03  0.41800000000E+01 0.  1.
         -5    1    3    3    0  502 -0.20577339261E+02 -0.21810105296E+02  0.20534728573E+02  0.36582168630E+02  0.41800000000E+01 0.  1.
        -11    1    1    2    0    0  0.42511818016E+02 -0.13219517047E+01 -0.27671100830E+02  0.50741423398E+02  0.00000000000E+00 0. -1.
         11    1    1    2    0    0 -0.52008794672E+02 -0.12045868933E+02 -0.19242353355E+02  0.56747562452E+02  0.00000000000E+00 0.  1.
</event>
<event>
 7    1  0.2855090E-009  0.1341618E+03  0.7561462E-02  0.1221408E+00
         -2   -1    0    0    0  501 -0.00000000000E+00  0.00000000000E+00  0.14447570516E+03  0.14447570516E+03  0.00000000000E+00 0.  1.
          2   -1    0    0  501    0  0.00000000000E+00 -0.00000000000E+00 -0.19863334976E+03  0.19863334976E+03  0.00000000000E+00 0. -1.
         25    2    1    2    0    0  0.37812569098E+02 -0.86770328380E+02  0.61468039032E+02  0.16847741497E+03  0.12508972485E+03 0.  0.
          5    1    3    3  502    0 -0.20891019559E+02 -0.79168365599E+02 -0.14396803913E+01  0.81997621243E+02  0.41800000000E+01 0.  1.
         -5    1    3    3    0  502  0.58703588657E+02 -0.76019627811E+01  0.62907719423E+02  0.86479793723E+02  0.41800000000E+01 0.  1.
        -11    1    1    2    0    0 -0.64385813809E+02  0.49453894623E+02 -0.93276410798E+02  0.12365965197E+03  0.00000000000E+00 0. -1.
         11    1    1    2    0    0  0.26573244711E+02  0.37316433757E+02 -0.22349272833E+02  0.50971987983E+02  0.00000000000E+00 0.  1.
</event>
<event>
 7    1  0.2855090E-009  0.1306724E+03  0.7561462E-02  0.1226461E+00
          1   -1    0    0  501    0  0.00000000000E+00  0.00000000000E+00  0.18421309111E+04  0.18421309111E+04  0.00000000000E+00 0. -1.
         -1   -1    0    0    0  501 -0.00000000000E+00 -0.00000000000E+00 -0.12025188124E+02  0.12025188124E+02  0.00000000000E+00 0.  1.
         25    2    1    2    0    0  0.31503732579E+02  0.83202438206E+02  0.12159038380E+04  0.12255548373E+04  0.12508950853E+03 0.  0.
          5    1    3    3  502    0  0.63570033116E+02  0.47768886874E+02  0.37885667699E+03  0.38713417540E+03  0.41800000000E+01 0.  1.
         -5    1    3    3    0  502 -0.32066300536E+02  0.35433551332E+02  0.83704716101E+03  0.83842066193E+03  0.41800000000E+01 0.  1.
        -11    1    1    2    0    0 -0.53465096048E+02 -0.94854787028E+02  0.49492956150E+03  0.50676544670E+03  0.00000000000E+00 0.  1.
         11    1    1    2    0    0  0.21961363469E+02  0.11652348822E+02  0.11927232345E+03  0.12183581518E+03  0.00000000000E+00 0. -1.
</event>
<event>
 7    1  0.2855090E-009  0.1011472E+03  0.7561462E-02  0.1277902E+00
          1   -1    0    0  501    0  0.00000000000E+00  0.00000000000E+00  0.29163643476E+03  0.29163643476E+03  0.00000000000E+00 0. -1.
         -1   -1    0    0    0  501 -0.00000000000E+00 -0.00000000000E+00 -0.49664121373E+02  0.49664121373E+02  0.00000000000E+00 0.  1.
         25    2    1    2    0    0 -0.36203084987E+02 -0.61954976105E+01  0.18569084198E+03  0.22688505675E+03  0.12508674042E+03 0.  0.
          5    1    3    3  502    0 -0.22556577799E+02  0.53483282575E+02  0.13599474551E+03  0.14792330419E+03  0.41800000000E+01 0. -1.
         -5    1    3    3    0  502 -0.13646507188E+02 -0.59678780185E+02  0.49696096467E+02  0.78961752557E+02  0.41800000000E+01 0. -1.
        -11    1    1    2    0    0 -0.76638169483E+01 -0.26782103786E+02 -0.88653620662E+01  0.29233710301E+02  0.00000000000E+00 0.  1.
         11    1    1    2    0    0  0.43866901935E+02  0.32977601396E+02  0.65146833479E+02  0.85181789084E+02  0.00000000000E+00 0. -1.
</event>
<event>
 7    1  0.2855090E-009  0.1221232E+03  0.7561462E-02  0.1239635E+00
          3   -1    0    0  501    0  0.00000000000E+00  0.00000000000E+00  0.23616132835E+03  0.23616132835E+03  0.00000000000E+00 0. -1.
         -3   -1    0    0    0  501 -0.00000000000E+00 -0.00000000000E+00 -0.66386420811E+02  0.66386420811E+02  0.00000000000E+00 0.  1.
         25    2    1    2    0    0 -0.71289850635E+01  0.66285350144E+02  0.86716023779E+02  0.16618857987E+03  0.12511756563E+03 0.  0.
          5    1    3    3  502    0 -0.71273690698E+01 -0.36198000879E+02  0.11077101885E+02  0.38746215863E+02  0.41800000000E+01 0. -1.
         -5    1    3    3    0  502 -0.16159937855E-02  0.10248335102E+03  0.75638921894E+02  0.12744236401E+03  0.41800000000E+01 0. -1.
        -11    1    1    2    0    0  0.27732834568E+02 -0.76629883325E+02  0.48556794079E+02  0.94863119192E+02  0.00000000000E+00 0.  1.
         11    1    1    2    0    0 -0.20603849504E+02  0.10344533181E+02  0.34502089680E+02  0.41496050094E+02  0.00000000000E+00 0. -1.
</event>
<event>
 7    1  0.2855090E-009  0.1070703E+03  0.7561462E-02  0.1266094E+00
          2   -1    0    0  501    0  0.00000000000E+00  0.00000000000E+00  0.77525553157E+03  0.77525553157E+03  0.00000000000E+00 0. -1.
         -2   -1    0    0    0  501 -0.00000000000E+00 -0.00000000000E+00 -0.47729547520E+02  0.47729547520E+02  0.00000000000E+00 0.  1.
         25    2    1    2    0    0  0.40373315101E+02 -0.84849140952E+02  0.65323107495E+03  0.67170537501E+03  0.12509153548E+03 0.  0.
          5    1    3    3  502    0  0.17148004887E+02 -0.93417145517E+02  0.24646489346E+03  0.26416516283E+03  0.41800000000E+01 0. -1.
         -5    1    3    3    0  502  0.23225310214E+02  0.85680045650E+01  0.40676618149E+03  0.40754021218E+03  0.41800000000E+01 0. -1.
        -11    1    1    2    0    0 -0.17953997195E+02  0.37605931897E+02  0.87872475579E+02  0.97252887328E+02  0.00000000000E+00 0. -1.
         11    1    1    2    0    0 -0.22419317906E+02  0.47243209055E+02 -0.13577566475E+02  0.54026816754E+02  0.00000000000E+00 0.  1.
</event>
<event>
 7    1  0.2855090E-009  0.1684569E+03  0.7561462E-02  0.1179467E+00
          3   -1    0    0  501    0  0.00000000000E+00  0.00000000000E+00  0.15121203344E+04  0.15121203344E+04  0.00000000000E+00 0. -1.
         -3   -1    0    0    0  501 -0.00000000000E+00 -0.00000000000E+00 -0.19960967692E+02  0.19960967692E+02  0.00000000000E+00 0.  1.
         25    2    1    2    0    0 -0.13253932394E+03  0.14486588399E+02  0.68425610540E+03  0.70825911229E+03  0.12509204102E+03 0.  0.
          5    1    3    3  502    0 -0.53842482214E+02  0.63448837826E+02  0.23004353744E+03  0.24466767140E+03  0.41800000000E+01 0. -1.
         -5    1    3    3    0  502 -0.78696841729E+02 -0.48962249428E+02  0.45421256796E+03  0.46359144089E+03  0.41800000000E+01 0. -1.
        -11    1    1    2    0    0  0.12785694561E+03 -0.40705889297E+02  0.65258589427E+03  0.66623773337E+03  0.00000000000E+00 0.  1.
         11    1    1    2    0    0  0.46823783322E+01  0.26219300898E+02  0.15531736709E+03  0.15758445649E+03  0.00000000000E+00 0. -1.
</event>
<event>
 7    1  0.2855090E-009  0.9139190E+02  0.7561462E-02  0.1299516E+00
          2   -1    0    0  501    0  0.00000000000E+00  0.00000000000E+00  0.82216543366E+02  0.82216543366E+02  0.00000000000E+00 0. -1.
         -2   -1    0    0    0  501 -0.00000000000E+00 -0.00000000000E+00 -0.19038395436E+03  0.19038395436E+03  0.00000000000E+00 0.  1.
         25    2    1    2    0    0 -0.36735862093E+02  0.52596784037E+02 -0.52908258589E+02  0.15020866742E+03  0.12508962661E+03 0.  0.
          5    1    3    3  502    0  0.32741656586E+01 -0.20782255317E+01 -0.77725748813E+02  0.77934611122E+02  0.41800000000E+01 0.  1.
         -5    1    3    3    0  502 -0.40010027752E+02  0.54675009569E+02  0.24817490224E+02  0.72274056293E+02  0.41800000000E+01 0.  1.
        -11    1    1    2    0    0  0.15677843256E+02  0.24607655100E+02 -0.14262527080E+02  0.32476932388E+02  0.00000000000E+00 0.  1.
         11    1    1    2    0    0  0.21058018838E+02 -0.77204439137E+02 -0.40996625321E+02  0.89914897917E+02  0.00000000000E+00 0. -1.
</event>
<event>
 7    1  0.2855090E-009  0.1251527E+03  0.7561462E-02  0.1234831E+00
          3   -1    0    0  501    0  0.00000000000E+00  0.00000000000E+00  0.18811612745E+03  0.18811612745E+03  0.00000000000E+00 0. -1.
         -3   -1    0    0    0  501 -0.00000000000E+00 -0.00000000000E+00 -0.90681362277E+02  0.90681362277E+02  0.00000000000E+00 0.  1.
         25    2    1    2    0    0  0.58148224048E+02 -0.51351495814E+02  0.37241851081E+02  0.15183256185E+03  0.12509188336E+03 0.  0.
          5    1    3    3  502    0  0.77573650285E+02  0.92645015034E+01  0.40227920355E+02  0.87973065098E+02  0.41800000000E+01 0.  1.
         -5    1    3    3    0  502 -0.19425426237E+02 -0.60615997317E+02 -0.29860692738E+01  0.63859496748E+02  0.41800000000E+01 0.  1.
        -11    1    1    2    0    0  0.18392262297E+02  0.61777353955E+01  0.24345216589E+02  0.31130841585E+02  0.00000000000E+00 0.  1.
         11    1    1    2    0    0 -0.76540486345E+02  0.45173760418E+02  0.35847697504E+02  0.95834086298E+02  0.00000000000E+00 0. -1.
</event>
<event>
 7    1  0.2855090E-009  0.1419505E+03  0.7561462E-02  0.1210728E+00
          2   -1    0    0  501    0  0.00000000000E+00  0.00000000000E+00  0.92486541352E+02  0.92486541352E+02  0.00000000000E+00 0. -1.
         -2   -1    0    0    0  501 -0.00000000000E+00 -0.00000000000E+00 -0.28233291454E+03  0.28233291454E+03  0.00000000000E+00 0.  1.
         25    2    1    2    0    0 -0.10567228808E+03  0.79142808981E+00 -0.16753733416E+03  0.23425354586E+03  0.12505481433E+03 0.  0.
          5    1    3    3  502    0 -0.13446714540E+03  0.25376516261E+01 -0.13628405387E+03  0.19151675803E+03  0.41800000000E+01 0. -1.
         -5    1    3    3    0  502  0.28794857325E+02 -0.17462235363E+01 -0.31253280289E+02  0.42736787828E+02  0.41800000000E+01 0. -1.
        -11    1    1    2    0    0  0.27881609465E+02  0.25798831646E+02 -0.41381458301E+02  0.56172848884E+02  0.00000000000E+00 0.  1.
         11    1    1    2    0    0  0.77790678614E+02 -0.26590259736E+02  0.19072419274E+02  0.84393061142E+02  0.00000000000E+00 0. -1.
</event>
<event>
 7    1  0.2855090E-009  0.8276455E+02  0.7561462E-02  0.1321384E+00
         -2   -1    0    0    0  501 -0.00000000000E+00  0.00000000000E+00  0.15092978249E+03  0.15092978249E+03  0.00000000000E+00 0. -1.
          2   -1    0    0  501    0  0.00000000000E+00 -0.00000000000E+00 -0.95728917091E+02  0.95728917091E+02  0.00000000000E+00 0.  1.
         25    2    1    2    0    0  0.30861295405E+01 -0.48599307154E+02  0.47871548381E+02  0.14251567483E+03  0.12509042959E+03 0.  0.
          5    1    3    3  502    0 -0.11033225273E+02  0.20149940292E+02  0.65915155543E+02  0.69928765784E+02  0.41800000000E+01 0. -1.
         -5    1    3    3    0  502  0.14119354813E+02 -0.68749247446E+02 -0.18043607163E+02  0.72586909042E+02  0.41800000000E+01 0. -1.
        -11    1    1    2    0    0  0.19084337185E+02  0.70918993861E+00  0.38411340172E+02  0.42896922151E+02  0.00000000000E+00 0. -1.
         11    1    1    2    0    0 -0.22170466725E+02  0.47890117215E+02 -0.31082023150E+02  0.61246102609E+02  0.00000000000E+00 0.  1.
</event>
<event>
 7    1  0.2855090E-009  0.1835098E+03  0.7561462E-02  0.1164449E+00
         -2   -1    0    0    0  501 -0.00000000000E+00  0.00000000000E+00  0.67719055972E+02  0.67719055972E+02  0.00000000000E+00 0.  1.
          2   -1    0    0  501    0  0.00000000000E+00 -0.00000000000E+00 -0.50592326413E+03  0.50592326413E+03  0.00000000000E+00 0. -1.
         25    2    1    2    0    0  0.28250234210E+02 -0.14750048893E+03 -0.22774553162E+03  0.30011494172E+03  0.12508589489E+03 0.  0.
          5    1    3    3  502    0 -0.49388860281E+02 -0.61841357720E+02 -0.82025359432E+02  0.11405807746E+03  0.41800000000E+01 0. -1.
         -5    1    3    3    0  502  0.77639094491E+02 -0.85659131213E+02 -0.14572017219E+03  0.18605686425E+03  0.41800000000E+01 0. -1.
        -11    1    1    2    0    0  0.30127807548E+02  0.45900537846E+02 -0.46199126315E+02  0.71755859931E+02  0.00000000000E+00 0. -1.
         11    1    1    2    0    0 -0.58378041757E+02  0.10159995109E+03 -0.16425955023E+03  0.20177151846E+03  0.00000000000E+00 0.  1.
</event>
<event>
 7    1  0.2855090E-009  0.1168161E+03  0.7561462E-02  0.1248444E+00
         -4   -1    0    0    0  501 -0.00000000000E+00  0.00000000000E+00  0.72601083530E+02  0.72601083530E+02  0.00000000000E+00 0.  1.
          4   -1    0    0  501    0  0.00000000000E+00 -0.00000000000E+00 -0.20739174463E+03  0.20739174463E+03  0.00000000000E+00 0. -1.
         25    2    1    2    0    0  0.11154802233E+02 -0.43818534844E+02 -0.99060587662E+02  0.16584794161E+03  0.12509215043E+03 0.  0.
          5    1    3    3  502    0 -0.32442220868E+02  0.27586522858E+02 -0.10731704197E+02  0.44115256014E+02  0.41800000000E+01 0. -1.
         -5    1    3    3    0  502  0.43597023100E+02 -0.71405057701E+02 -0.88328883465E+02  0.12173268560E+03  0.41800000000E+01 0. -1.
        -11    1    1    2    0    0  0.43080651575E+02  0.14713477233E+02 -0.64314742830E+01  0.45976002587E+02  0.00000000000E+00 0.  1.
         11    1    1    2    0    0 -0.54235453808E+02  0.29105057611E+02 -0.29298599158E+02  0.68168883964E+02  0.00000000000E+00 0. -1.
</event>
<event>
 7    1  0.2855090E-009  0.3025720E+03  0.7561462E-02  0.1083962E+00
          1   -1    0    0  501    0  0.00000000000E+00  0.00000000000E+00  0.12375486287E+03  0.12375486287E+03  0.00000000000E+00 0. -1.
         -1   -1    0    0    0  501 -0.00000000000E+00 -0.00000000000E+00 -0.81985956937E+03  0.81985956937E+03  0.00000000000E+00 0.  1.
         25    2    1    2    0    0  0.13453377374E+03 -0.26176523121E+03 -0.42851126582E+03  0.53468627817E+03  0.12508852299E+03 0.  0.
          5    1    3    3  502    0 -0.49900006486E+01 -0.70859281038E+02 -0.17014586295E+03  0.18442620447E+03  0.41800000000E+01 0. -1.
         -5    1    3    3    0  502  0.13952377439E+03 -0.19090595017E+03 -0.25836540287E+03  0.35026007370E+03  0.41800000000E+01 0. -1.
        -11    1    1    2    0    0 -0.23982830436E+02  0.18512219505E+02  0.66548316611E+00  0.30303816501E+02  0.00000000000E+00 0. -1.
         11    1    1    2    0    0 -0.11055094330E+03  0.24325301171E+03 -0.26825892385E+03  0.37862433756E+03  0.00000000000E+00 0.  1.
</event>
<event>
 7    1  0.2855090E-009  0.9799653E+02  0.7561462E-02  0.1284566E+00
          2   -1    0    0  501    0  0.00000000000E+00  0.00000000000E+00  0.29196726007E+04  0.29196726007E+04  0.00000000000E+00 0. -1.
         -2   -1    0    0    0  501 -0.00000000000E+00 -0.00000000000E+00 -0.14217040866E+02  0.14217040866E+02  0.00000000000E+00 0.  1.
         25    2    1    2    0    0  0.59658445387E+02 -0.24226865144E+02  0.26711496620E+04  0.26748521694E+04  0.12509012858E+03 0.  0.
          5    1    3    3  502    0 -0.13071355250E+02  0.28737894236E+01  0.18451927635E+04  0.18452460339E+04  0.41800000000E+01 0. -1.
         -5    1    3    3    0  502  0.72729800638E+02 -0.27100654568E+02  0.82595689852E+03  0.82960613546E+03  0.41800000000E+01 0. -1.
        -11    1    1    2    0    0 -0.52537313787E+02 -0.22373757359E+02  0.84468397325E+02  0.10195913154E+03  0.00000000000E+00 0.  1.
         11    1    1    2    0    0 -0.71211316005E+01  0.46600622503E+02  0.14983750053E+03  0.15707834064E+03  0.00000000000E+00 0. -1.
</event>
<event>
 7    1  0.2855090E-009  0.1864872E+03  0.7561462E-02  0.1161668E+00
         -1   -1    0    0    0  501 -0.00000000000E+00  0.00000000000E+00  0.23608099843E+03  0.23608099843E+03  0.00000000000E+00 0.  1.
          1   -1    0    0  501    0  0.00000000000E+00 -0.00000000000E+00 -0.17637854025E+03  0.17637854025E+03  0.00000000000E+00 0. -1.
         25    2    1    2    0    0 -0.13742945933E+03  0.10223236297E+03  0.11262900615E+02  0.21237292939E+03  0.12504837416E+03 0.  0.
          5    1    3    3  502    0 -0.16821870926E+02  0.39937215397E+02 -0.47466153292E+02  0.64408575698E+02  0.41800000000E+01 0. -1.
         -5    1    3    3    0  502 -0.12060758841E+03  0.62295147569E+02  0.58729053907E+02  0.14796435369E+03  0.41800000000E+01 0. -1.
        -11    1    1    2    0    0  0.14936326992E+03 -0.82677029992E+02  0.47295656696E+02  0.17714896791E+03  0.00000000000E+00 0.  1.
         11    1    1    2    0    0 -0.11933810586E+02 -0.19555332973E+02  0.11439008652E+01  0.22937641378E+02  0.00000000000E+00 0. -1.
</event>
<event>
 7    1  0.2855090E-009  0.1351284E+03  0.7561462E-02  0.1220038E+00
         -4   -1    0    0    0  501 -0.00000000000E+00  0.00000000000E+00  0.34995028130E+03  0.34995028130E+03  0.00000000000E+00 0.  1.
          4   -1    0    0  501    0  0.00000000000E+00 -0.00000000000E+00 -0.69387311832E+02  0.69387311832E+02  0.00000000000E+00 0. -1.
         25    2    1    2    0    0 -0.52726799436E+02 -0.97150984015E+02  0.17854279766E+03  0.24442234556E+03  0.12508526428E+03 0.  0.
          5    1    3    3  502    0 -0.12053182606E+02 -0.10526752353E+03  0.17223880063E+03  0.20226271916E+03  0.41800000000E+01 0.  1.
         -5    1    3    3    0  502 -0.40673616830E+02  0.81165395119E+01  0.63039970312E+01  0.42159626401E+02  0.41800000000E+01 0.  1.
        -11    1    1    2    0    0  0.38948419553E+02  0.19291481915E+02  0.82844496149E+02  0.93554001530E+02  0.00000000000E+00 0.  1.
         11    1    1    2    0    0  0.13778379882E+02  0.77859502100E+02  0.19175675654E+02  0.81361246034E+02  0.00000000000E+00 0. -1.
</event>
<event>
 7    1  0.2855090E-009  0.1479238E+03  0.7561462E-02  0.1203048E+00
         -2   -1    0    0    0  501 -0.00000000000E+00  0.00000000000E+00  0.24871695025E+03  0.24871695025E+03  0.00000000000E+00 0.  1.
          2   -1    0    0  501    0  0.00000000000E+00 -0.00000000000E+00 -0.14440061487E+03  0.14440061487E+03  0.00000000000E+00 0. -1.
         25    2    1    2    0    0  0.69725920850E+02 -0.11179318789E+03 -0.30123542301E+02  0.18415823517E+03  0.12508959542E+03 0.  0.
          5    1    3    3  502    0  0.34576726572E+02 -0.83814129296E+02 -0.77051864651E+02  0.11905805532E+03  0.41800000000E+01 0. -1.
         -5    1    3    3    0  502  0.35149194278E+02 -0.27979058594E+02  0.46928322349E+02  0.65100179852E+02  0.41800000000E+01 0. -1.
        -11    1    1    2    0    0 -0.38560789157E+02 -0.51843419707E+01  0.33239750659E+02  0.51173165682E+02  0.00000000000E+00 0.  1.
         11    1    1    2    0    0 -0.31165131693E+02  0.11697752986E+03  0.10120012702E+03  0.15778616427E+03  0.00000000000E+00 0. -1.
</event>
<event>
 7    1  0.2855090E-009  0.1049548E+03  0.7561462E-02  0.1270209E+00
         -4   -1    0    0    0  501 -0.00000000000E+00  0.00000000000E+00  0.48397688465E+03  0.48397688465E+03  0.00000000000E+00 0.  1.
          4   -1    0    0  501    0  0.00000000000E+00 -0.00000000000E+00 -0.31027026950E+02  0.31027026950E+02  0.00000000000E+00 0. -1.
         25    2    1    2    0    0  0.35258970749E+02 -0.13794848480E+02  0.16386792720E+03  0.20960418114E+03  0.12509085628E+03 0.  0.
          5    1    3    3  502    0  0.53919001331E+02 -0.54704748142E+02  0.13682863466E+03  0.15696947422E+03  0.41800000000E+01 0.  1.
         -5    1    3    3    0  502 -0.18660030583E+02  0.40909899663E+02  0.27039292532E+02  0.52634706919E+02  0.41800000000E+01 0.  1.
        -11    1    1    2    0    0 -0.40882925713E+02  0.42267361338E+02  0.24938973241E+03  0.25622876903E+03  0.00000000000E+00 0.  1.
         11    1    1    2    0    0  0.56239549643E+01 -0.28472512859E+02  0.39692198098E+02  0.49170961428E+02  0.00000000000E+00 0. -1.
</event>
<event>
 7    1  0.2855090E-009  0.9734229E+02  0.7561462E-02  0.1285986E+00
          2   -1    0    0  501    0  0.00000000000E+00  0.00000000000E+00  0.78735133273E+03  0.78735133273E+03  0.00000000000E+00 0. -1.
         -2   -1    0    0    0  501 -0.00000000000E+00 -0.00000000000E+00 -0.25777867059E+02  0.25777867059E+02  0.00000000000E+00 0.  1.
         25    2    1    2    0    0  0.62975567617E+02  0.30313037970E+01  0.62087601279E+03  0.63648215991E+03  0.12508959073E+03 0.  0.
          5    1    3    3  502    0  0.94581151676E+02  0.66935691682E+01  0.31663613936E+03  0.33055455718E+03  0.41800000000E+01 0.  1.
         -5    1    3    3    0  502 -0.31605584059E+02 -0.36622653712E+01  0.30423987342E+03  0.30592760273E+03  0.41800000000E+01 0.  1.
        -11    1    1    2    0    0 -0.35887235424E+02 -0.13916040059E+02  0.61624914590E+01  0.38981099757E+02  0.00000000000E+00 0.  1.
         11    1    1    2    0    0 -0.27088332194E+02  0.10884736262E+02  0.13453496143E+03  0.13766594013E+03  0.00000000000E+00 0. -1.
</event>
<event>
 7    1  0.2855090E-009  0.9594366E+02  0.7561462E-02  0.1289065E+00
          4   -1    0    0  501    0  0.00000000000E+00  0.00000000000E+00  0.70045763463E+02  0.70045763463E+02  0.00000000000E+00 0. -1.
         -4   -1    0    0    0  501 -0.00000000000E+00 -0.00000000000E+00 -0.29508105831E+03  0.29508105831E+03  0.00000000000E+00 0.  1.
         25    2    1    2    0    0  0.16859743867E+02 -0.24947018221E+02 -0.97577176068E+01  0.12903290025E+03  0.12509065358E+03 0.  0.
          5    1    3    3  502    0 -0.45199208311E+02 -0.36352881469E+02 -0.26062923523E+02  0.63727927988E+02  0.41800000000E+01 0.  1.
         -5    1    3    3    0  502  0.62058952178E+02  0.11405863247E+02  0.16305205916E+02  0.65304972260E+02  0.41800000000E+01 0.  1.
        -11    1    1    2    0    0 -0.14799144560E+02  0.46523825489E+02 -0.20734162265E+03  0.21301180601E+03  0.00000000000E+00 0.  1.
         11    1    1    2    0    0 -0.20605993069E+01 -0.21576807268E+02 -0.79359545946E+01  0.23082115516E+02  0.00000000000E+00 0. -1.
</event>
<event>
 7    1  0.2855090E-009  0.1273872E+03  0.7561462E-02  0.1231385E+00
         -3   -1    0    0    0  501 -0.00000000000E+00  0.00000000000E+00  0.31180037894E+03  0.31180037894E+03  0.00000000000E+00 0.  1.
          3   -1    0    0  501    0  0.00000000000E+00 -0.00000000000E+00 -0.70937039918E+02  0.70937039918E+02  0.00000000000E+00 0. -1.
         25    2    1    2    0    0  0.73324156115E+02  0.64642298400E+00  0.22027909260E+03  0.26371749006E+03  0.12508871330E+03 0.  0.
          5    1    3    3  502    0 -0.20834782643E+02 -0.31496419776E+02  0.28053323842E+02  0.47228953038E+02  0.41800000000E+01 0. -1.
         -5    1    3    3    0  502  0.94158938758E+02  0.32142842760E+02  0.19222576876E+03  0.21648853703E+03  0.41800000000E+01 0. -1.
        -11    1    1    2    0    0 -0.46186901506E+02 -0.45461349314E+02  0.10080234575E+02  0.65586395550E+02  0.00000000000E+00 0.  1.
         11    1    1    2    0    0 -0.27137254609E+02  0.44814926330E+02  0.10504011842E+02  0.53433533239E+02  0.00000000000E+00 0. -1.
</event>
<event>
 7    1  0.2855090E-009  0.1867736E+03  0.7561462E-02  0.1161404E+00
          1   -1    0    0  501    0  0.00000000000E+00  0.00000000000E+00  0.15007582365E+03  0.15007582365E+03  0.00000000000E+00 0. -1.
         -1   -1    0    0    0  501 -0.00000000000E+00 -0.00000000000E+00 -0.29741937276E+03  0.29741937276E+03  0.00000000000E+00 0.  1.
         25    2    1    2    0    0 -0.17425601647E+03  0.56175681681E+01 -0.12736581474E+03  0.24953044438E+03  0.12508667219E+03 0.  0.
          5    1    3    3  502    0 -0.16967972387E+03  0.18571053927E+02 -0.60508980184E+02  0.18114883886E+03  0.41800000000E+01 0. -1.
         -5    1    3    3    0  502 -0.45762925999E+01 -0.12953485759E+02 -0.66856834551E+02  0.68381605520E+02  0.41800000000E+01 0. -1.
        -11    1    1    2    0    0  0.10454157271E+03 -0.38444818872E+02 -0.39997189384E+02  0.11834998809E+03  0.00000000000E+00 0.  1.
         11    1    1    2    0    0  0.69714443760E+02  0.32827250703E+02  0.20019455009E+02  0.79614763935E+02  0.00000000000E+00 0. -1.
</event>
<event>
 7    1  0.2855090E-009  0.1564717E+03  0.7561462E-02  0.1192739E+00
          1   -1    0    0  501    0  0.00000000000E+00  0.00000000000E+00  0.61051067454E+02  0.61051067454E+02  0.00000000000E+00 0. -1.
         -1   -1    0    0    0  501 -0.00000000000E+00 -0.00000000000E+00 -0.61430549066E+03  0.61430549066E+03  0.00000000000E+00 0.  1.
         25    2    1    2    0    0 -0.16956632543E+02  0.12232268046E+03 -0.47126097722E+03  0.50297732491E+03  0.12509562417E+03 0.  0.
          5    1    3    3  502    0  0.53787340320E+02  0.60169019808E+02 -0.24013564024E+03  0.25336927011E+03  0.41800000000E+01 0. -1.
         -5    1    3    3    0  502 -0.70743972863E+02  0.62153660649E+02 -0.23112533698E+03  0.24960805480E+03  0.41800000000E+01 0. -1.
        -11    1    1    2    0    0  0.40243291386E+02 -0.74366221882E+02 -0.13569578262E+02  0.85638723208E+02  0.00000000000E+00 0. -1.
         11    1    1    2    0    0 -0.23286658843E+02 -0.47956458574E+02 -0.68423867724E+02  0.86740509990E+02  0.00000000000E+00 0.  1.
</event>
<event>
 7    1  0.2855090E-009  0.1085201E+03  0.7561462E-02  0.1263335E+00
          2   -1    0    0  501    0  0.00000000000E+00  0.00000000000E+00  0.18754926341E+03  0.18754926341E+03  0.00000000000E+00 0. -1.
         -2   -1    0    0    0  501 -0.00000000000E+00 -0.00000000000E+00 -0.92383874435E+02  0.92383874435E+02  0.00000000000E+00 0.  1.
         25    2    1    2    0    0 -0.20458477648E+01 -0.11910638439E+02  0.11113779293E+03  0.16776570217E+03  0.12509065915E+03 0.  0.
          5    1    3    3  502    0 -0.49670399012E+02 -0.45095275356E+02  0.64921977891E+02  0.93450885554E+02  0.41800000000E+01 0. -1.
         -5    1    3    3    0  502  0.47624551247E+02  0.33184636917E+02  0.46215815043E+02  0.74314816618E+02  0.41800000000E+01 0. -1.
        -11    1    1    2    0    0  0.28771921996E+02 -0.30224916745E+02  0.24084424884E+02  0.48181205979E+02  0.00000000000E+00 0. -1.
         11    1    1    2    0    0 -0.26726074231E+02  0.42135555184E+02 -0.40056828840E+02  0.63986229699E+02  0.00000000000E+00 0.  1.
</event>
<event>
 7    1  0.2855090E-009  0.1452952E+03  0.7561462E-02  0.1206376E+00
         -2   -1    0    0    0  501 -0.00000000000E+00  0.00000000000E+00  0.10760544905E+03  0.10760544905E+03  0.00000000000E+00 0. -1.
          2   -1    0    0  501    0  0.00000000000E+00 -0.00000000000E+00 -0.20595554981E+03  0.20595554981E+03  0.00000000000E+00 0.  1.
         25    2    1    2    0    0  0.78266664575E+02 -0.61939881345E+02 -0.43750431394E+02  0.16590410468E+03  0.12509137467E+03 0.  0.
          5    1    3    3  502    0  0.66516108478E+02 -0.96646055481E+02 -0.13435241798E+02  0.11816442294E+03  0.41800000000E+01 0.  1.
         -5    1    3    3    0  502  0.11750556096E+02  0.34706174136E+02 -0.30315189596E+02  0.47739681734E+02  0.41800000000E+01 0.  1.
        -11    1    1    2    0    0  0.21198633725E+02  0.52973194732E+01 -0.28364340932E+01  0.22033815462E+02  0.00000000000E+00 0. -1.
         11    1    1    2    0    0 -0.99465298300E+02  0.56642561871E+02 -0.51763235271E+02  0.12562307872E+03  0.00000000000E+00 0.  1.
</event>
<event>
 7    1  0.2855090E-009  0.1011278E+03  0.7561462E-02  0.1277942E+00
          2   -1    0    0  501    0  0.00000000000E+00  0.00000000000E+00  0.56913207577E+03  0.56913207577E+03  0.00000000000E+00 0. -1.
         -2   -1    0    0    0  501 -0.00000000000E+00 -0.00000000000E+00 -0.29071758968E+02  0.29071758968E+02  0.00000000000E+00 0.  1.
         25    2    1    2    0    0  0.27582723232E+02  0.45070136741E+02  0.19619568280E+03  0.23860416111E+03  0.12508827245E+03 0.  0.
          5    1    3    3  502    0  0.30831239781E+01  0.65355593762E+02  0.35141518616E+02  0.74385872449E+02  0.41800000000E+01 0.  1.
         -5    1    3    3    0  502  0.24499599254E+02 -0.20285457021E+02  0.16105416418E+03  0.16421828866E+03  0.41800000000E+01 0.  1.
        -11    1    1    2    0    0  0.33197003034E+02 -0.20746071650E+02  0.11064871455E+03  0.11736941054E+03  0.00000000000E+00 0.  1.
         11    1    1    2    0    0 -0.60779726266E+02 -0.24324065091E+02  0.23321591945E+03  0.24223026309E+03  0.00000000000E+00 0. -1.
</event>
<event>
 7    1  0.2855090E-009  0.1492771E+03  0.7561462E-02  0.1201364E+00
         -2   -1    0    0    0  501 -0.00000000000E+00  0.00000000000E+00  0.43580367884E+02  0.43580367884E+02  0.00000000000E+00 0.  1.
          2   -1    0    0  501    0  0.00000000000E+00 -0.00000000000E+00 -0.61625196877E+03  0.61625196877E+03  0.00000000000E+00 0. -1.
         25    2    1    2    0    0  0.10218218841E+03  0.66721332873E+02 -0.34369621678E+03  0.38557438482E+03  0.12509029103E+03 0.  0.
          5    1    3    3  502    0  0.12377411933E+03  0.23485348581E+02 -0.23978102721E+03  0.27089482761E+03  0.41800000000E+01 0.  1.
         -5    1    3    3    0  502 -0.21591930921E+02  0.43235984292E+02 -0.10391518957E+03  0.11467955721E+03  0.41800000000E+01 0.  1.
        -11    1    1    2    0    0 -0.37264172290E+02 -0.37285005146E+02 -0.25302638352E+02  0.58472332370E+02  0.00000000000E+00 0.  1.
         11    1    1    2    0    0 -0.64918016117E+02 -0.29436327727E+02 -0.20367274576E+03  0.21578561947E+03  0.00000000000E+00 0. -1.
</event>
<event>
 7    1  0.2855090E-009  0.1184276E+03  0.7561462E-02  0.1245714E+00
          2   -1    0    0  501    0  0.00000000000E+00  0.00000000000E+00  0.51771116796E+02  0.51771116796E+02  0.00000000000E+00 0. -1.
         -2   -1    0    0    0  501 -0.00000000000E+00 -0.00000000000E+00 -0.29657524932E+03  0.29657524932E+03  0.00000000000E+00 0.  1.
         25    2    1    2    0    0  0.27991507978E+02 -0.51691969312E+02 -0.15533553198E+03  0.20791828935E+03  0.12508118699E+03 0.  0.
          5    1    3    3  502    0 -0.36063069799E+01  0.40308287084E+02 -0.50360181237E+02  0.64740896750E+02  0.41800000000E+01 0.  1.
         -5    1    3    3    0  502  0.31597814958E+02 -0.92000256396E+02 -0.10497535075E+03  0.14317739260E+03  0.41800000000E+01 0.  1.
        -11    1    1    2    0    0 -0.55751241043E+02  0.40336613138E+02 -0.32620829050E+02  0.76153540464E+02  0.00000000000E+00 0. -1.
         11    1    1    2    0    0  0.27759733065E+02  0.11355356174E+02 -0.56847771484E+02  0.64274536299E+02  0.00000000000E+00 0.  1.
</event>
<event>
 7    1  0.2855090E-009  0.1373744E+03  0.7561462E-02  0.1216906E+00
         -2   -1    0    0    0  501 -0.00000000000E+00  0.00000000000E+00  0.26751129741E+02  0.26751129741E+02  0.00000000000E+00 0.  1.
          2   -1    0    0  501    0  0.00000000000E+00 -0.00000000000E+00 -0.10782599076E+04  0.10782599076E+04  0.00000000000E+00 0. -1.
         25    2    1    2    0    0  0.70539381891E+02 -0.10152058370E+03 -0.69381711731E+03  0.71575895021E+03  0.12508576749E+03 0.  0.
          5    1    3    3  502    0  0.64856044193E+02 -0.18178883991E+02 -0.50178402624E+03  0.50630174766E+03  0.41800000000E+01 0. -1.
         -5    1    3    3    0  502  0.56833376979E+01 -0.83341699705E+02 -0.19203309107E+03  0.20945720256E+03  0.41800000000E+01 0. -1.
        -11    1    1    2    0    0 -0.54204765154E+02  0.77431784137E+02 -0.34461957334E+03  0.35734645386E+03  0.00000000000E+00 0.  1.
         11    1    1    2    0    0 -0.16334616737E+02  0.24088799559E+02 -0.13072087162E+02  0.31905633216E+02  0.00000000000E+00 0. -1.
</event>
<event>
 7    1  0.2855090E-009  0.6438388E+02  0.7561462E-02  0.1380304E+00
          2   -1    0    0  501    0  0.00000000000E+00  0.00000000000E+00  0.36693217593E+03  0.36693217593E+03  0.00000000000E+00 0. -1.
         -2   -1    0    0    0  501 -0.00000000000E+00 -0.00000000000E+00 -0.36641077534E+02  0.36641077534E+02  0.00000000000E+00 0.  1.
         25    2    1    2    0    0  0.15476990106E+02  0.35117178633E+02  0.18327666745E+03  0.22519221674E+03  0.12509374161E+03 0.  0.
          5    1    3    3  502    0  0.75520638589E+01  0.27379315091E+02 -0.10861274418E+02  0.30693651548E+02  0.41800000000E+01 0. -1.
         -5    1    3    3    0  502  0.79249262473E+01  0.77378635421E+01  0.19413794187E+03  0.19449856519E+03  0.41800000000E+01 0. -1.
        -11    1    1    2    0    0  0.10928625386E+02 -0.54424035379E+02  0.45653139089E+02  0.71872244910E+02  0.00000000000E+00 0. -1.
         11    1    1    2    0    0 -0.26405615493E+02  0.19306856746E+02  0.10136129186E+03  0.10650879181E+03  0.00000000000E+00 0.  1.
</event>
<event>
 7    1  0.2855090E-009  0.9740728E+02  0.7561462E-02  0.1285844E+00
         -1   -1    0    0    0  501 -0.00000000000E+00  0.00000000000E+00  0.29461820715E+03  0.29461820715E+03  0.00000000000E+00 0.  1.
          1   -1    0    0  501    0  0.00000000000E+00 -0.00000000000E+00 -0.62238578127E+02  0.62238578127E+02  0.00000000000E+00 0. -1.
         25    2    1    2    0    0  0.18493768565E+02 -0.94656974266E+01  0.23188221294E+03  0.26428218196E+03  0.12507634516E+03 0.  0.
          5    1    3    3  502    0  0.45864940309E+02  0.29821427417E+02  0.43944540745E+02  0.70295841584E+02  0.41800000000E+01 0. -1.
         -5    1    3    3    0  502 -0.27371171744E+02 -0.39287124844E+02  0.18793767220E+03  0.19398634038E+03  0.41800000000E+01 0. -1.
        -11    1    1    2    0    0 -0.26535614655E+02 -0.36552144773E+02  0.58825732541E+01  0.45550003301E+02  0.00000000000E+00 0.  1.
         11    1    1    2    0    0  0.80418460901E+01  0.46017842199E+02 -0.53851571719E+01  0.47024600019E+02  0.00000000000E+00 0. -1.
</event>
<event>
 7    1  0.2855090E-009  0.1100804E+03  0.7561462E-02  0.1260421E+00
         -2   -1    0    0    0  501 -0.00000000000E+00  0.00000000000E+00  0.11668774508E+03  0.11668774508E+03  0.00000000000E+00 0.  1.
          2   -1    0    0  501    0  0.00000000000E+00 -0.00000000000E+00 -0.22840269792E+03  0.22840269792E+03  0.00000000000E+00 0. -1.
         25    2    1    2    0    0 -0.64313086286E+02 -0.83199138066E+02  0.69307989165E+01  0.16356535784E+03  0.12508925082E+03 0.  0.
          5    1    3    3  502    0 -0.47903913768E+02 -0.70352486863E+02 -0.52744155287E+02  0.10021814047E+03  0.41800000000E+01 0.  1.
         -5    1    3    3    0  502 -0.16409172519E+02 -0.12846651203E+02  0.59674954204E+02  0.63347217375E+02  0.41800000000E+01 0.  1.
        -11    1    1    2    0    0 -0.65739973213E+01  0.78020578772E+01  0.11418944947E+02  0.15312800254E+02  0.00000000000E+00 0.  1.
         11    1    1    2    0    0  0.70887083608E+02  0.75397080189E+02 -0.13006469670E+03  0.16621228490E+03  0.00000000000E+00 0. -1.
</event>
<event>
 7    1  0.2855090E-009  0.1174960E+03  0.7561462E-02  0.1247286E+00
          1   -1    0    0  501    0  0.00000000000E+00  0.00000000000E+00  0.13306484417E+03  0.13306484417E+03  0.00000000000E+00 0. -1.
         -1   -1    0    0    0  501 -0.00000000000E+00 -0.00000000000E+00 -0.15111552263E+03  0.15111552263E+03  0.00000000000E+00 0.  1.
         25    2    1    2    0    0  0.47711579688E+02 -0.73717126877E+02 -0.14724345959E+02  0.15349406975E+03  0.12503204971E+03 0.  0.
          5    1    3    3  502    0 -0.19079486319E+02 -0.55959470014E+02  0.34464726130E+02  0.68562225968E+02  0.41800000000E+01 0.  1.
         -5    1    3    3    0  502  0.66791066008E+02 -0.17757656864E+02 -0.49189072089E+02  0.84931843785E+02  0.41800000000E+01 0.  1.
        -11    1    1    2    0    0  0.14541907864E+02  0.15437289983E+02 -0.33990767864E+02  0.40064314625E+02  0.00000000000E+00 0.  1.
         11    1    1    2    0    0 -0.62253487552E+02  0.58279836894E+02  0.30664435367E+02  0.90621982417E+02  0.00000000000E+00 0. -1.
</event>
<event>
 7    1  0.2855090E-009  0.1153999E+03  0.7561462E-02  0.1250885E+00
         -1   -1    0    0    0  501 -0.00000000000E+00  0.00000000000E+00  0.42613113766E+02  0.42613113766E+02  0.00000000000E+00 0.  1.
          1   -1    0    0  501    0  0.00000000000E+00 -0.00000000000E+00 -0.43419931285E+03  0.43419931285E+03  0.00000000000E+00 0. -1.
         25    2    1    2    0    0  0.25581415998E+02  0.74541099114E+02 -0.23149059295E+03  0.27467431453E+03  0.12508916874E+03 0.  0.
          5    1    3    3  502    0  0.58356418841E+02  0.13349983819E+02 -0.43170971450E+02  0.73924954270E+02  0.41800000000E+01 0. -1.
         -5    1    3    3    0  502 -0.32775002843E+02  0.61191115295E+02 -0.18831962150E+03  0.20074936026E+03  0.41800000000E+01 0. -1.
        -11    1    1    2    0    0  0.19956021640E+02 -0.10168223178E+02  0.13789101073E+01  0.22439629127E+02  0.00000000000E+00 0.  1.
         11    1    1    2    0    0 -0.45537437638E+02 -0.64372875936E+02 -0.16147451624E+03  0.17969848296E+03  0.00000000000E+00 0. -1.
</event>
<event>
 7    1  0.2855090E-009  0.1069399E+03  0.7561462E-02  0.1266344E+00
         -1   -1    0    0    0  501 -0.00000000000E+00  0.00000000000E+00  0.53070967575E+02  0.53070967575E+02  0.00000000000E+00 0.  1.
          1   -1    0    0  501    0  0.00000000000E+00 -0.00000000000E+00 -0.26043162150E+03  0.26043162150E+03  0.00000000000E+00 0. -1.
         25    2    1    2    0    0 -0.22362808446E+01 -0.45346632691E+02 -0.11605523760E+03  0.17656944002E+03  0.12508649378E+03 0.  0.
          5    1    3    3  502    0 -0.56647920782E+02 -0.53304031448E+02 -0.69670939928E+02  0.10450750675E+03  0.41800000000E+01 0. -1.
         -5    1    3    3    0  502  0.54411639938E+02  0.79573987570E+01 -0.46384297672E+02  0.72061933267E+02  0.41800000000E+01 0. -1.
        -11    1    1    2    0    0  0.17646978316E+02  0.58169222540E+02 -0.98404604977E+02  0.11566564129E+03  0.00000000000E+00 0.  1.
         11    1    1    2    0    0 -0.15410697471E+02 -0.12822589849E+02  0.70991886511E+01  0.21267507764E+02  0.00000000000E+00 0. -1.
</event>
<event>
 7    1  0.2855090E-009  0.2811629E+03  0.7561462E-02  0.1095055E+00
         -1   -1    0    0    0  501 -0.00000000000E+00  0.00000000000E+00  0.11465409381E+03  0.11465409381E+03  0.00000000000E+00 0.  1.
          1   -1    0    0  501    0  0.00000000000E+00 -0.00000000000E+00 -0.71381881075E+03  0.71381881075E+03  0.00000000000E+00 0. -1.
         25    2    1    2    0    0  0.21862714788E+03  0.14469070421E+03 -0.35342413972E+03  0.45748085735E+03  0.12508749987E+03 0.  0.
          5    1    3    3  502    0  0.74245082738E+02 -0.75223114983E+01 -0.13680652593E+03  0.15589231994E+03  0.41800000000E+01 0. -1.
         -5    1    3    3    0  502  0.14438206515E+03  0.15221301571E+03 -0.21661761379E+03  0.30158853740E+03  0.41800000000E+01 0. -1.
        -11    1    1    2    0    0 -0.61687480597E+02 -0.94729465381E+02 -0.10675648593E+03  0.15548621856E+03  0.00000000000E+00 0. -1.
         11    1    1    2    0    0 -0.15693966729E+03 -0.49961238834E+02 -0.13898409129E+03  0.21550582866E+03  0.00000000000E+00 0.  1.
</event>
<event>
 7    1  0.2855090E-009  0.1197135E+03  0.7561462E-02  0.1243570E+00
         -1   -1    0    0    0  501 -0.00000000000E+00  0.00000000000E+00  0.12106275993E+03  0.12106275993E+03  0.00000000000E+00 0.  1.
          1   -1    0    0  501    0  0.00000000000E+00 -0.00000000000E+00 -0.15515781925E+03  0.15515781925E+03  0.00000000000E+00 0. -1.
         25    2    1    2    0    0  0.14598538434E+02 -0.58733998741E+02  0.38576641695E+02  0.14419870449E+03  0.12506921748E+03 0.  0.
          5    1    3    3  502    0 -0.28357812209E+02 -0.83418787777E+02  0.16225908612E+02  0.89686187219E+02  0.41800000000E+01 0.  1.
         -5    1    3    3    0  502  0.42956350643E+02  0.24684789036E+02  0.22350733083E+02  0.54512517275E+02  0.41800000000E+01 0.  1.
        -11    1    1    2    0    0 -0.44211909414E+02  0.11385298522E+02 -0.58864075776E+02  0.74493606258E+02  0.00000000000E+00 0. -1.
         11    1    1    2    0    0  0.29613370980E+02  0.47348700220E+02 -0.13807625241E+02  0.57528268426E+02  0.00000000000E+00 0.  1.
</event>
<event>
 7    1  0.2855090E-009  0.1278813E+03  0.7561462E-02  0.1230634E+00
          3   -1    0    0  501    0  0.00000000000E+00  0.00000000000E+00  0.21289007399E+03  0.21289007399E+03  0.00000000000E+00 0.  1.
         -3   -1    0    0    0  501 -0.00000000000E+00 -0.00000000000E+00 -0.94562042251E+02  0.94562042251E+02  0.00000000000E+00 0. -1.
         25    2    1    2    0    0 -0.54730320939E+02 -0.71569916326E+02  0.79205470334E+02  0.17330126181E+03  0.12506862061E+03 0.  0.
          5    1    3    3  502    0 -0.43329494566E+02 -0.10323969798E+03  0.82622759399E+02  0.13921161270E+03  0.41800000000E+01 0. -1.
         -5    1    3    3    0  502 -0.11400826373E+02  0.31669781657E+02 -0.34172890657E+01  0.34089649114E+02  0.41800000000E+01 0. -1.
        -11    1    1    2    0    0 -0.13960182063E+02  0.73917686614E+01  0.36876718017E+02  0.40117543032E+02  0.00000000000E+00 0.  1.
         11    1    1    2    0    0  0.68690503002E+02  0.64178147665E+02  0.22458433905E+01  0.94033311401E+02  0.00000000000E+00 0. -1.
</event>
<event>
 7    1  0.2855090E-009  0.1229705E+03  0.7561462E-02  0.1238276E+00
         -2   -1    0    0    0  501 -0.00000000000E+00  0.00000000000E+00  0.33407658639E+02  0.33407658639E+02  0.00000000000E+00 0.  1.
          2   -1    0    0  501    0  0.00000000000E+00 -0.00000000000E+00 -0.48601893656E+03  0.48601893656E+03  0.00000000000E+00 0. -1.
         25    2    1    2    0    0  0.65220056615E+02 -0.92463177782E+01 -0.27113200282E+03  0.30578100977E+03  0.12510121026E+03 0.  0.
          5    1    3    3  502    0 -0.21577090223E+02  0.32125559220E+02 -0.12400805041E+03  0.12997342553E+03  0.41800000000E+01 0.  1.
         -5    1    3    3    0  502  0.86797146838E+02 -0.41371876999E+02 -0.14712395241E+03  0.17580758424E+03  0.41800000000E+01 0.  1.
        -11    1    1    2    0    0 -0.62835973288E+02  0.43508055415E+02 -0.14244062881E+03  0.16164975459E+03  0.00000000000E+00 0.  1.
         11    1    1    2    0    0 -0.23840833268E+01 -0.34261737636E+02 -0.39038646298E+02  0.51995830832E+02  0.00000000000E+00 0. -1.
</event>
<event>
 7    1  0.2855090E-009  0.7019584E+02  0.7561462E-02  0.1359428E+00
          1   -1    0    0  501    0  0.00000000000E+00  0.00000000000E+00  0.10483725296E+03  0.10483725296E+03  0.00000000000E+00 0. -1.
         -1   -1    0    0    0  501 -0.00000000000E+00 -0.00000000000E+00 -0.18416242202E+03  0.18416242202E+03  0.00000000000E+00 0.  1.
         25    2    1    2    0    0 -0.17291667530E+02  0.32176749328E+02  0.38631889810E+02  0.13591971719E+03  0.12508957449E+03 0.  0.
          5    1    3    3  502    0 -0.10770482713E+02  0.35755622944E+02 -0.41125734045E+02  0.55706967883E+02  0.41800000000E+01 0. -1.
         -5    1    3    3    0  502 -0.65211848167E+01 -0.35788736154E+01  0.79757623855E+02  0.80212749303E+02  0.41800000000E+01 0. -1.
        -11    1    1    2    0    0  0.23002253799E+02 -0.60847043449E+02 -0.98219479156E+02  0.11780718341E+03  0.00000000000E+00 0.  1.
         11    1    1    2    0    0 -0.57105862693E+01  0.28670294120E+02 -0.19737579710E+02  0.35272774392E+02  0.00000000000E+00 0. -1.
</event>
<event>
 7    1  0.3895176E-009  0.1746870E+03  0.7561462E-02  0.1173046E+00
          2   -1    0    0  501    0  0.00000000000E+00  0.00000000000E+00  0.18508251166E+04  0.18508251166E+04  0.00000000000E+00 0. -1.
         -2   -1    0    0    0  501 -0.00000000000E+00 -0.00000000000E+00 -0.22117923569E+02  0.22117923569E+02  0.00000000000E+00 0.  1.
         25    2    1    2    0    0 -0.15634557543E+03  0.32728332956E+02  0.12314427601E+04  0.12480440219E+04  0.12509007305E+03 0.  0.
          5    1    3    3  502    0 -0.58394360548E+02  0.52689667421E+02  0.85197130964E+03  0.85560428192E+03  0.41800000000E+01 0. -1.
         -5    1    3    3    0  502 -0.97951214886E+02 -0.19961334465E+02  0.37947145045E+03  0.39243973993E+03  0.41800000000E+01 0. -1.
        -11    1    1    2    0    0  0.22628757129E+02 -0.29008861968E+02  0.53547316559E+02  0.64968375634E+02  0.00000000000E+00 0.  1.
         11    1    1    2    0    0  0.13371681831E+03 -0.37194709878E+01  0.54371711636E+03  0.55993064265E+03  0.00000000000E+00 0. -1.
</event>
<event>
 7    1  0.2855090E-009  0.1097945E+03  0.7561462E-02  0.1260951E+00
         -2   -1    0    0    0  501 -0.00000000000E+00  0.00000000000E+00  0.53458647093E+03  0.53458647093E+03  0.00000000000E+00 0. -1.
          2   -1    0    0  501    0  0.00000000000E+00 -0.00000000000E+00 -0.40278999032E+02  0.40278999032E+02  0.00000000000E+00 0.  1.
         25    2    1    2    0    0  0.36988749315E+02 -0.83276994454E+02  0.19218045179E+03  0.24674476864E+03  0.12508568830E+03 0.  0.
          5    1    3    3  502    0  0.24147315280E+02 -0.49832806848E+02  0.20189376619E+03  0.20939189741E+03  0.41800000000E+01 0. -1.
         -5    1    3    3    0  502  0.12841434035E+02 -0.33444187606E+02 -0.97133143963E+01  0.37352871232E+02  0.41800000000E+01 0. -1.
        -11    1    1    2    0    0  0.22808385494E+02  0.59350365043E+02  0.15160697687E+03  0.16440001130E+03  0.00000000000E+00 0.  1.
         11    1    1    2    0    0 -0.59797134808E+02  0.23926629411E+02  0.15052004324E+03  0.16372069003E+03  0.00000000000E+00 0. -1.
</event>
<event>
 7    1  0.2855090E-009  0.1722867E+03  0.7561462E-02  0.1175484E+00
          1   -1    0    0  501    0  0.00000000000E+00  0.00000000000E+00  0.28523332255E+03  0.28523332255E+03  0.00000000000E+00 0. -1.
         -1   -1    0    0    0  501 -0.00000000000E+00 -0.00000000000E+00 -0.12846500643E+03  0.12846500643E+03  0.00000000000E+00 0.  1.
         25    2    1    2    0    0 -0.12480930767E+03  0.78864659109E+02  0.14080647348E+03  0.23931314838E+03  0.12508925724E+03 0.  0.
          5    1    3    3  502    0 -0.89993154339E+02 -0.12891345682E+01  0.23754569823E+02  0.93178225371E+02  0.41800000000E+01 0.  1.
         -5    1    3    3    0  502 -0.34816153331E+02  0.80153793677E+02  0.11705190366E+03  0.14613492301E+03  0.41800000000E+01 0.  1.
        -11    1    1    2    0    0  0.11578938346E+03 -0.33223611095E+02  0.32900627248E+02  0.12487369991E+03  0.00000000000E+00 0. -1.
         11    1    1    2    0    0  0.90199242133E+01 -0.45641048014E+02 -0.16938784610E+02  0.49511480696E+02  0.00000000000E+00 0.  1.
</event>
<event>
 7    1  0.2855090E-009  0.1020683E+03  0.7561462E-02  0.1276006E+00
         -3   -1    0    0    0  501 -0.00000000000E+00  0.00000000000E+00  0.38048907224E+03  0.38048907224E+03  0.00000000000E+00 0.  1.
          3   -1    0    0  501    0  0.00000000000E+00 -0.00000000000E+00 -0.90391416724E+02  0.90391416724E+02  0.00000000000E+00 0. -1.
         25    2    1    2    0    0 -0.92607122208E+02  0.27125219813E+01  0.30221818805E+03  0.33995129958E+03  0.12509043145E+03 0.  0.
          5    1    3    3  502    0 -0.21393678248E+02 -0.20953165482E+02  0.18166315450E+01  0.30290215629E+02  0.41800000000E+01 0.  1.
         -5    1    3    3    0  502 -0.71213443960E+02  0.23665687463E+02  0.30040155650E+03  0.30966108395E+03  0.41800000000E+01 0.  1.
        -11    1    1    2    0    0  0.61023546151E+02 -0.18041869175E+02  0.34643394981E+02  0.72453757970E+02  0.00000000000E+00 0.  1.
         11    1    1    2    0    0  0.31583576058E+02  0.15329347194E+02 -0.46763927516E+02  0.58475431411E+02  0.00000000000E+00 0. -1.
</event>
<event>
 7    1  0.2855090E-009  0.7237942E+02  0.7561462E-02  0.1352184E+00
         -1   -1    0    0    0  501 -0.00000000000E+00  0.00000000000E+00  0.51079468626E+02  0.51079468626E+02  0.00000000000E+00 0.  1.
          1   -1    0    0  501    0  0.00000000000E+00 -0.00000000000E+00 -0.26033260548E+03  0.26033260548E+03  0.00000000000E+00 0. -1.
         25    2    1    2    0    0 -0.17256316135E+02 -0.24259246219E+02 -0.15343458977E+03  0.20019047023E+03  0.12509100511E+03 0.  0.
          5    1    3    3  502    0 -0.18406409281E+02  0.21406349400E+02  0.10154294467E+02  0.30292074762E+02  0.41800000000E+01 0. -1.
         -5    1    3    3    0  502  0.11500931458E+01 -0.45665595619E+02 -0.16358888424E+03  0.16989839547E+03  0.41800000000E+01 0. -1.
        -11    1    1    2    0    0  0.41579092030E+02  0.13152119491E+02  0.58552085373E+01  0.44000938719E+02  0.00000000000E+00 0.  1.
         11    1    1    2    0    0 -0.24322775895E+02  0.11107126728E+02 -0.61673755619E+02  0.67220665153E+02  0.00000000000E+00 0. -1.
</event>
<event>
 7    1  0.2855090E-009  0.1073755E+03  0.7561462E-02  0.1265509E+00
          1   -1    0    0  501    0  0.00000000000E+00  0.00000000000E+00  0.41559892733E+03  0.41559892733E+03  0.00000000000E+00 0. -1.
         -1   -1    0    0    0  501 -0.00000000000E+00 -0.00000000000E+00 -0.55313418096E+02  0.55313418096E+02  0.00000000000E+00 0.  1.
         25    2    1    2    0    0  0.33788358862E+02 -0.11822245889E+00  0.38663812327E+02  0.13521872522E+03  0.12509015188E+03 0.  0.
          5    1    3    3  502    0 -0.32071257181E+02  0.31825006301E+02  0.41995660853E+02  0.61826406120E+02  0.41800000000E+01 0. -1.
         -5    1    3    3    0  502  0.65859616043E+02 -0.31943228760E+02 -0.33318485266E+01  0.73392319105E+02  0.41800000000E+01 0. -1.
        -11    1    1    2    0    0  0.12117103075E-01 -0.42031351320E+02  0.13261094345E+03  0.13911253346E+03  0.00000000000E+00 0. -1.
         11    1    1    2    0    0 -0.33800475965E+02  0.42149573779E+02  0.18901075345E+03  0.19658108675E+03  0.00000000000E+00 0.  1.
</event>
<event>
 7    1  0.2855090E-009  0.1562807E+03  0.7561462E-02  0.1192961E+00
          1   -1    0    0  501    0  0.00000000000E+00  0.00000000000E+00  0.92260683033E+02  0.92260683033E+02  0.00000000000E+00 0. -1.
         -1   -1    0    0    0  501 -0.00000000000E+00 -0.00000000000E+00 -0.42836840408E+03  0.42836840408E+03  0.00000000000E+00 0.  1.
         25    2    1    2    0    0  0.11189393157E+03  0.65008932484E+02 -0.31193194194E+03  0.36013216190E+03  0.12508886605E+03 0.  0.
          5    1    3    3  502    0  0.12493316792E+03  0.80928179487E+02 -0.30238952474E+03  0.33706759523E+03  0.41800000000E+01 0. -1.
         -5    1    3    3    0  502 -0.13039236349E+02 -0.15919247003E+02 -0.95424171947E+01  0.23064566669E+02  0.41800000000E+01 0. -1.
        -11    1    1    2    0    0 -0.75329361659E+02 -0.73355225740E+02  0.15061124389E+02  0.10621835688E+03  0.00000000000E+00 0. -1.
         11    1    1    2    0    0 -0.36564569909E+02  0.83462932557E+01 -0.39236903505E+02  0.54278568334E+02  0.00000000000E+00 0.  1.
</event>
<event>
 7    1  0.2855090E-009  0.1364161E+03  0.7561462E-02  0.1218234E+00
          1   -1    0    0  501    0  0.00000000000E+00  0.00000000000E+00  0.43683455567E+03  0.43683455567E+03  0.00000000000E+00 0. -1.
         -1   -1    0    0    0  501 -0.00000000000E+00 -0.00000000000E+00 -0.59937873011E+02  0.59937873011E+02  0.00000000000E+00 0.  1.
         25    2    1    2    0    0 -0.20167154681E+01  0.11640572539E+03  0.24946685950E+03  0.30238214740E+03  0.12508752551E+03 0.  0.
          5    1    3    3  502    0 -0.22059693032E+02  0.89272015682E+02  0.59976367512E+02  0.10986701006E+03  0.41800000000E+01 0. -1.
         -5    1    3    3    0  502  0.20042977564E+02  0.27133709703E+02  0.18949049198E+03  0.19251513734E+03  0.41800000000E+01 0. -1.
        -11    1    1    2    0    0  0.19679776913E+02 -0.12542245944E+03  0.10951131650E+03  0.16766280265E+03  0.00000000000E+00 0. -1.
         11    1    1    2    0    0 -0.17663061445E+02  0.90167340562E+01  0.17918506656E+02  0.26727478621E+02  0.00000000000E+00 0.  1.
</event>
<event>
 7    1  0.2855090E-009  0.8096468E+02  0.7561462E-02  0.1326336E+00
          1   -1    0    0  501    0  0.00000000000E+00  0.00000000000E+00  0.30942399849E+02  0.30942399849E+02  0.00000000000E+00 0. -1.
         -1   -1    0    0    0  501 -0.00000000000E+00 -0.00000000000E+00 -0.45711908830E+03  0.45711908830E+03  0.00000000000E+00 0.  1.
         25    2    1    2    0    0  0.15564999812E+02 -0.50725561187E+02 -0.19409816497E+03  0.23693457894E+03  0.12509414566E+03 0.  0.
          5    1    3    3  502    0 -0.19644269156E+02 -0.26660022049E+02  0.45767009709E+01  0.33690839677E+02  0.41800000000E+01 0.  1.
         -5    1    3    3    0  502  0.35209268968E+02 -0.24065539138E+02 -0.19867486594E+03  0.20324373927E+03  0.41800000000E+01 0.  1.
        -11    1    1    2    0    0 -0.42247032780E+02  0.33765398852E+02 -0.19518814533E+03  0.20254215862E+03  0.00000000000E+00 0.  1.
         11    1    1    2    0    0  0.26682032968E+02  0.16960162336E+02 -0.36890378147E+02  0.48584750587E+02  0.00000000000E+00 0. -1.
</event>
<event>
 7    1  0.2855090E-009  0.1242573E+03  0.7561462E-02  0.1236235E+00
         -2   -1    0    0    0  501 -0.00000000000E+00  0.00000000000E+00  0.11104613560E+03  0.11104613560E+03  0.00000000000E+00 0.  1.
          2   -1    0    0  501    0  0.00000000000E+00 -0.00000000000E+00 -0.19089766222E+03  0.19089766222E+03  0.00000000000E+00 0. -1.
         25    2    1    2    0    0  0.75920215573E+02  0.57661903804E+02 -0.33465043293E+02  0.16080002556E+03  0.12509182553E+03 0.  0.
          5    1    3    3  502    0 -0.27761198526E+02  0.25484555276E+00  0.15995060541E+02  0.32311970716E+02  0.41800000000E+01 0. -1.
         -5    1    3    3    0  502  0.10368141410E+03  0.57407058251E+02 -0.49460103834E+02  0.12848805485E+03  0.41800000000E+01 0. -1.
        -11    1    1    2    0    0 -0.53343451020E+02 -0.58616370166E+02  0.10486537802E+02  0.79946044888E+02  0.00000000000E+00 0.  1.
         11    1    1    2    0    0 -0.22576764553E+02  0.95446636235E+00 -0.56873021125E+02  0.61197727373E+02  0.00000000000E+00 0. -1.
</event>
<event>
 7    1  0.2855090E-009  0.1072602E+03  0.7561462E-02  0.1265729E+00
          2   -1    0    0  501    0  0.00000000000E+00  0.00000000000E+00  0.57166968087E+03  0.57166968087E+03  0.00000000000E+00 0.  1.
         -2   -1    0    0    0  501 -0.00000000000E+00 -0.00000000000E+00 -0.48852167314E+02  0.48852167314E+02  0.00000000000E+00 0. -1.
         25    2    1    2    0    0  0.89029698868E+02  0.14262872455E+02  0.45150918604E+03  0.47711409089E+03  0.12509034268E+03 0.  0.
          5    1    3    3  502    0  0.93959798462E+02 -0.11843181376E+02  0.17266198617E+03  0.19697293859E+03  0.41800000000E+01 0. -1.
         -5    1    3    3    0  502 -0.49300995944E+01  0.26106053831E+02  0.27884719988E+03  0.28014115229E+03  0.41800000000E+01 0. -1.
        -11    1    1    2    0    0 -0.22415274928E+02  0.59967508413E+01  0.70024515788E+02  0.73768817139E+02  0.00000000000E+00 0.  1.
         11    1    1    2    0    0 -0.66614423940E+02 -0.20259623296E+02  0.12838117207E+01  0.69638940152E+02  0.00000000000E+00 0. -1.
</event>
<event>
 7    1  0.2855090E-009  0.6642291E+02  0.7561462E-02  0.1372698E+00
         -1   -1    0    0    0  501 -0.00000000000E+00  0.00000000000E+00  0.15711235504E+03  0.15711235504E+03  0.00000000000E+00 0.  1.
          1   -1    0    0  501    0  0.00000000000E+00 -0.00000000000E+00 -0.82285116009E+02  0.82285116009E+02  0.00000000000E+00 0. -1.
         25    2    1    2    0    0 -0.40225988754E+02  0.89251788550E+01  0.66911239116E+02  0.14772495850E+03  0.12509100869E+03 0.  0.
          5    1    3    3  502    0 -0.46749584293E+02 -0.27135156677E+02  0.89379414495E+02  0.10453703887E+03  0.41800000000E+01 0. -1.
         -5    1    3    3    0  502  0.65235955397E+01  0.36060335532E+02 -0.22468175379E+02  0.43187919634E+02  0.41800000000E+01 0. -1.
        -11    1    1    2    0    0  0.14087829368E+02 -0.64432708811E+01  0.44228051433E+02  0.46862599261E+02  0.00000000000E+00 0.  1.
         11    1    1    2    0    0  0.26138159386E+02 -0.24819079739E+01 -0.36312051519E+02  0.44809913287E+02  0.00000000000E+00 0. -1.
</event>
<event>
 7    1  0.2855090E-009  0.7894671E+02  0.7561462E-02  0.1332067E+00
          2   -1    0    0  501    0  0.00000000000E+00  0.00000000000E+00  0.88882445349E+03  0.88882445349E+03  0.00000000000E+00 0. -1.
         -2   -1    0    0    0  501 -0.00000000000E+00 -0.00000000000E+00 -0.13340503869E+02  0.13340503869E+02  0.00000000000E+00 0.  1.
         25    2    1    2    0    0 -0.10309642966E+02 -0.22765800512E+01  0.49429048121E+03  0.50998422311E+03  0.12509738789E+03 0.  0.
          5    1    3    3  502    0  0.28974117978E+02  0.64494044688E+01  0.44591160077E+03  0.44691802653E+03  0.41800000000E+01 0.  1.
         -5    1    3    3    0  502 -0.39283760944E+02 -0.87259845200E+01  0.48378880431E+02  0.63066196584E+02  0.41800000000E+01 0.  1.
        -11    1    1    2    0    0  0.48552237010E+02  0.64961626712E+01  0.27276066066E+03  0.27712433645E+03  0.00000000000E+00 0.  1.
         11    1    1    2    0    0 -0.38242594044E+02 -0.42195826200E+01  0.10843280775E+03  0.11505639780E+03  0.00000000000E+00 0. -1.
</event>
<event>
 7    1  0.2855090E-009  0.1311499E+03  0.7561462E-02  0.1225759E+00
          2   -1    0    0  501    0  0.00000000000E+00  0.00000000000E+00  0.17620338519E+04  0.17620338519E+04  0.00000000000E+00 0.  1.
         -2   -1    0    0    0  501 -0.00000000000E+00 -0.00000000000E+00 -0.17876761568E+02  0.17876761568E+02  0.00000000000E+00 0. -1.
         25    2    1    2    0    0  0.37269262619E+00 -0.71549557639E+02  0.15168314690E+04  0.15236616517E+04  0.12509054802E+03 0.  0.
          5    1    3    3  502    0 -0.35504830353E+02 -0.94674806466E+02  0.10537835086E+04  0.10586316958E+04  0.41800000000E+01 0.  1.
         -5    1    3    3    0  502  0.35877522979E+02  0.23125248827E+02  0.46304796044E+03  0.46502995587E+03  0.41800000000E+01 0.  1.
        -11    1    1    2    0    0  0.45697024309E+02  0.22559420533E+02  0.10183507044E+03  0.11387505020E+03  0.00000000000E+00 0.  1.
         11    1    1    2    0    0 -0.46069716935E+02  0.48990137106E+02  0.12549055087E+03  0.14237391162E+03  0.00000000000E+00 0. -1.
</event>
<event>
 7    1  0.2855090E-009  0.1095033E+03  0.7561462E-02  0.1261492E+00
          2   -1    0    0  501    0  0.00000000000E+00  0.00000000000E+00  0.52294598807E+03  0.52294598807E+03  0.00000000000E+00 0. -1.
         -2   -1    0    0    0  501 -0.00000000000E+00 -0.00000000000E+00 -0.35171995569E+02  0.35171995569E+02  0.00000000000E+00 0.  1.
         25    2    1    2    0    0 -0.21065193940E+02  0.17597762193E+02  0.11053037334E+03  0.16916994981E+03  0.12509230535E+03 0.  0.
          5    1    3    3  502    0 -0.50466921736E+02  0.58525933454E+02  0.70229921639E+02  0.10450793927E+03  0.41800000000E+01 0.  1.
         -5    1    3    3    0  502  0.29401727796E+02 -0.40928171261E+02  0.40300451698E+02  0.64662010542E+02  0.41800000000E+01 0.  1.
        -11    1    1    2    0    0  0.51088343765E+02 -0.29217640306E+02  0.29099915037E+03  0.29689088044E+03  0.00000000000E+00 0.  1.
         11    1    1    2    0    0 -0.30023149825E+02  0.11619878113E+02  0.86244468801E+02  0.92057153396E+02  0.00000000000E+00 0. -1.
</event>
<event>
 7    1  0.2855090E-009  0.1729033E+03  0.7561462E-02  0.1174854E+00
         -1   -1    0    0    0  501 -0.00000000000E+00  0.00000000000E+00  0.18811128463E+03  0.18811128463E+03  0.00000000000E+00 0.  1.
          1   -1    0    0  501    0  0.00000000000E+00 -0.00000000000E+00 -0.25614556277E+03  0.25614556277E+03  0.00000000000E+00 0. -1.
         25    2    1    2    0    0  0.14510889688E+03 -0.67041516024E+02  0.69476018698E+02  0.21453769286E+03  0.12509335577E+03 0.  0.
          5    1    3    3  502    0  0.15200030735E+03 -0.57854170839E+02  0.93455280824E+02  0.18762345384E+03  0.41800000000E+01 0.  1.
         -5    1    3    3    0  502 -0.68914104670E+01 -0.91873451847E+01 -0.23979262126E+02  0.26914239017E+02  0.41800000000E+01 0.  1.
        -11    1    1    2    0    0 -0.37852846344E+02  0.49337661449E+02 -0.93826283136E+02  0.11256293449E+03  0.00000000000E+00 0. -1.
         11    1    1    2    0    0 -0.10725605054E+03  0.17703854575E+02 -0.43684013705E+02  0.11715622005E+03  0.00000000000E+00 0.  1.
</event>
<event>
 7    1  0.2855090E-009  0.8344998E+02  0.7561462E-02  0.1319536E+00
          1   -1    0    0  501    0  0.00000000000E+00  0.00000000000E+00  0.12192445408E+03  0.12192445408E+03  0.00000000000E+00 0. -1.
         -1   -1    0    0    0  501 -0.00000000000E+00 -0.00000000000E+00 -0.11044954835E+03  0.11044954835E+03  0.00000000000E+00 0.  1.
         25    2    1    2    0    0 -0.60982267921E+01  0.31244649039E+02 -0.15987185445E+02  0.13006312597E+03  0.12508960858E+03 0.  0.
          5    1    3    3  502    0 -0.38192321578E+02 -0.12530632810E+02  0.36489541279E+02  0.54448408690E+02  0.41800000000E+01 0.  1.
         -5    1    3    3    0  502  0.32094094785E+02  0.43775281849E+02 -0.52476726724E+02  0.75614717276E+02  0.41800000000E+01 0.  1.
        -11    1    1    2    0    0  0.19431599657E+02 -0.47324445670E+02  0.50032760437E+02  0.71557440844E+02  0.00000000000E+00 0. -1.
         11    1    1    2    0    0 -0.13333372865E+02  0.16079796630E+02 -0.22570669256E+02  0.30753435617E+02  0.00000000000E+00 0.  1.
</event>
<event>
 7    1  0.3000752E-009  0.1487584E+03  0.7561462E-02  0.1202007E+00
          4   -1    0    0  501    0  0.00000000000E+00  0.00000000000E+00  0.33832980559E+03  0.33832980559E+03  0.00000000000E+00 0.  1.
         -4   -1    0    0    0  501 -0.00000000000E+00 -0.00000000000E+00 -0.81562680493E+02  0.81562680493E+02  0.00000000000E+00 0. -1.
         25    2    1    2    0    0  0.21041747995E+02 -0.12078351252E+03  0.16947588282E+03  0.24372459725E+03  0.12509273518E+03 0.  0.
          5    1    3    3  502    0 -0.61339294522E+01  0.10193042239E+02  0.83966561414E+02  0.84908062258E+02  0.41800000000E+01 0.  1.
         -5    1    3    3    0  502  0.27175677447E+02 -0.13097655476E+03  0.85509321404E+02  0.15881653500E+03  0.41800000000E+01 0.  1.
        -11    1    1    2    0    0  0.18178013686E+02  0.10844971491E+03  0.50532065260E+02  0.12101764527E+03  0.00000000000E+00 0. -1.
         11    1    1    2    0    0 -0.39219761681E+02  0.12333797607E+02  0.36759177014E+02  0.55150243558E+02  0.00000000000E+00 0.  1.
</event>
<event>
 7    1  0.2855090E-009  0.2104573E+03  0.7561462E-02  0.1141204E+00
         -1   -1    0    0    0  501 -0.00000000000E+00  0.00000000000E+00  0.34981014774E+03  0.34981014774E+03  0.00000000000E+00 0.  1.
          1   -1    0    0  501    0  0.00000000000E+00 -0.00000000000E+00 -0.15068381761E+03  0.15068381761E+03  0.00000000000E+00 0. -1.
         25    2    1    2    0    0 -0.75839478594E+02 -0.17993926333E+03  0.15235976830E+03  0.27747121206E+03  0.12508800711E+03 0.  0.
          5    1    3    3  502    0 -0.66751027263E+02 -0.29650133986E+02  0.17328926893E+02  0.75183736229E+02  0.41800000000E+01 0. -1.
         -5    1    3    3    0  502 -0.90884513311E+01 -0.15028912934E+03  0.13503084140E+03  0.20228747583E+03  0.41800000000E+01 0. -1.
        -11    1    1    2    0    0  0.41387512953E+02  0.13026164201E+03 -0.13891651825E+02  0.13738267576E+03  0.00000000000E+00 0. -1.
         11    1    1    2    0    0  0.34451965641E+02  0.49677621317E+02  0.60658213656E+02  0.85640077535E+02  0.00000000000E+00 0.  1.
</event>
<event>
 7    1  0.2855090E-009  0.2793526E+03  0.7561462E-02  0.1096043E+00
         -1   -1    0    0    0  501 -0.00000000000E+00  0.00000000000E+00  0.13456983282E+03  0.13456983282E+03  0.00000000000E+00 0.  1.
          1   -1    0    0  501    0  0.00000000000E+00 -0.00000000000E+00 -0.11603457094E+04  0.11603457094E+04  0.00000000000E+00 0. -1.
         25    2    1    2    0    0 -0.19909057914E+03  0.16582300813E+03 -0.64069729821E+02  0.29476529314E+03  0.12508924428E+03 0.  0.
          5    1    3    3  502    0 -0.12965119114E+03  0.31480923009E+02 -0.90650927216E+01  0.13379136064E+03  0.41800000000E+01 0.  1.
         -5    1    3    3    0  502 -0.69439388001E+02  0.13434208512E+03 -0.55004637099E+02  0.16097393250E+03  0.41800000000E+01 0.  1.
        -11    1    1    2    0    0  0.90831617398E+02 -0.13253860480E+03 -0.52867141945E+03  0.55254894283E+03  0.00000000000E+00 0. -1.
         11    1    1    2    0    0  0.10825896174E+03 -0.33284403330E+02 -0.43303472729E+03  0.44760130623E+03  0.00000000000E+00 0.  1.
</event>
<event>
 7    1  0.2855090E-009  0.2029724E+03  0.7561462E-02  0.1147255E+00
         -1   -1    0    0    0  501 -0.00000000000E+00  0.00000000000E+00  0.15743874702E+03  0.15743874702E+03  0.00000000000E+00 0.  1.
          1   -1    0    0  501    0  0.00000000000E+00 -0.00000000000E+00 -0.31162095468E+03  0.31162095468E+03  0.00000000000E+00 0. -1.
         25    2    1    2    0    0 -0.17394497334E+03 -0.78071609379E+02 -0.48692793990E+02  0.23316720952E+03  0.12507569495E+03 0.  0.
          5    1    3    3  502    0 -0.23544273026E+02  0.17482854430E+02 -0.46238455362E+02  0.54913114514E+02  0.41800000000E+01 0.  1.
         -5    1    3    3    0  502 -0.15040070031E+03 -0.95554463809E+02 -0.24543386284E+01  0.17825409501E+03  0.41800000000E+01 0.  1.
        -11    1    1    2    0    0  0.62186297697E+02  0.75796124318E+00  0.26114612803E+01  0.62245721593E+02  0.00000000000E+00 0.  1.
         11    1    1    2    0    0  0.11175867564E+03  0.77313648136E+02 -0.10810087496E+03  0.17364677059E+03  0.00000000000E+00 0. -1.
</event>
<event>
 7    1  0.2855090E-009  0.1042724E+03  0.7561462E-02  0.1271560E+00
          1   -1    0    0  501    0  0.00000000000E+00  0.00000000000E+00  0.88315477788E+02  0.88315477788E+02  0.00000000000E+00 0. -1.
         -1   -1    0    0    0  501 -0.00000000000E+00 -0.00000000000E+00 -0.20685018285E+03  0.20685018285E+03  0.00000000000E+00 0.  1.
         25    2    1    2    0    0 -0.47610694842E+02 -0.57177046514E+02 -0.37528931359E+02  0.15029908128E+03  0.12508157432E+03 0.  0.
          5    1    3    3  502    0 -0.61998822054E+02 -0.76944629252E+02  0.71875842547E+01  0.99163822406E+02  0.41800000000E+01 0. -1.
         -5    1    3    3    0  502  0.14388127212E+02  0.19767582738E+02 -0.44716515613E+02  0.51135258879E+02  0.41800000000E+01 0. -1.
        -11    1    1    2    0    0  0.17383108892E+02 -0.28634772490E+01 -0.75379898681E+02  0.77411246611E+02  0.00000000000E+00 0.  1.
         11    1    1    2    0    0  0.30227585950E+02  0.60040523763E+02 -0.56258750250E+01  0.67455332746E+02  0.00000000000E+00 0. -1.
</event>
<event>
 7    1  0.2855090E-009  0.5779566E+02  0.7561462E-02  0.1407322E+00
          2   -1    0    0  501    0  0.00000000000E+00  0.00000000000E+00  0.38692459070E+03  0.38692459070E+03  0.00000000000E+00 0. -1.
         -2   -1    0    0    0  501 -0.00000000000E+00 -0.00000000000E+00 -0.37318747529E+02  0.37318747529E+02  0.00000000000E+00 0.  1.
         25    2    1    2    0    0 -0.35566449674E+02 -0.12764777144E+01  0.12361527808E+03  0.17942945346E+03  0.12509032760E+03 0.  0.
          5    1    3    3  502    0 -0.93418299107E+01 -0.17164134920E+01  0.14497547274E+03  0.14534639988E+03  0.41800000000E+01 0.  1.
         -5    1    3    3    0  502 -0.26224619763E+02  0.43993577761E+00 -0.21360194666E+02  0.34083053580E+02  0.41800000000E+01 0.  1.
        -11    1    1    2    0    0  0.42494194806E+02 -0.26464875013E+02  0.69039567789E+02  0.85279587957E+02  0.00000000000E+00 0.  1.
         11    1    1    2    0    0 -0.69277451323E+01  0.27741352727E+02  0.15695099731E+03  0.15953429681E+03  0.00000000000E+00 0. -1.
</event>
<event>
 7    1  0.2855090E-009  0.9908445E+02  0.7561462E-02  0.1282233E+00
          1   -1    0    0  501    0  0.00000000000E+00  0.00000000000E+00  0.16393482742E+03  0.16393482742E+03  0.00000000000E+00 0. -1.
         -1   -1    0    0    0  501 -0.00000000000E+00 -0.00000000000E+00 -0.14437953679E+03  0.14437953679E+03  0.00000000000E+00 0.  1.
         25    2    1    2    0    0 -0.30125533528E+01  0.36320031537E+02  0.11504050450E+03  0.17380874707E+03  0.12508774007E+03 0.  0.
          5    1    3    3  502    0  0.57094876734E+02 -0.42025113358E+01  0.45210787413E+02  0.73068281418E+02  0.41800000000E+01 0.  1.
         -5    1    3    3    0  502 -0.60107430087E+02  0.40522542873E+02  0.69829717086E+02  0.10074046566E+03  0.41800000000E+01 0.  1.
        -11    1    1    2    0    0  0.20360247507E+02  0.69689685187E+01 -0.83674756938E+02  0.86397749678E+02  0.00000000000E+00 0.  1.
         11    1    1    2    0    0 -0.17347694154E+02 -0.43289000055E+02 -0.11810456938E+02  0.48107867458E+02  0.00000000000E+00 0. -1.
</event>
<event>
 7    1  0.2855090E-009  0.1496281E+03  0.7561462E-02  0.1200931E+00
          2   -1    0    0  501    0  0.00000000000E+00  0.00000000000E+00  0.10604952610E+03  0.10604952610E+03  0.00000000000E+00 0. -1.
         -2   -1    0    0    0  501 -0.00000000000E+00 -0.00000000000E+00 -0.36724779646E+03  0.36724779646E+03  0.00000000000E+00 0.  1.
         25    2    1    2    0    0  0.25877597210E+02 -0.11448880876E+03  0.94927320639E+00  0.17152134020E+03  0.12506530955E+03 0.  0.
          5    1    3    3  502    0  0.70925514863E+02 -0.10077936095E+03 -0.73519371870E+01  0.12352502431E+03  0.41800000000E+01 0. -1.
         -5    1    3    3    0  502 -0.45047917653E+02 -0.13709447817E+02  0.83012103934E+01  0.47996315883E+02  0.41800000000E+01 0. -1.
        -11    1    1    2    0    0  0.91804821784E+01  0.76246331247E+02 -0.74152953196E+02  0.10675413224E+03  0.00000000000E+00 0. -1.
         11    1    1    2    0    0 -0.35058079389E+02  0.38242477518E+02 -0.18799459037E+03  0.19502185013E+03  0.00000000000E+00 0.  1.
</event>
<event>
 7    1  0.2855090E-009  0.1041547E+03  0.7561462E-02  0.1271794E+00
          2   -1    0    0  501    0  0.00000000000E+00  0.00000000000E+00  0.28652638947E+02  0.28652638947E+02  0.00000000000E+00 0. -1.
         -2   -1    0    0    0  501 -0.00000000000E+00 -0.00000000000E+00 -0.63321019813E+03  0.63321019813E+03  0.00000000000E+00 0.  1.
         25    2    1    2    0    0  0.54378041072E+02  0.57576939171E+02 -0.28877117068E+03  0.32451202880E+03  0.12508873867E+03 0.  0.
          5    1    3    3  502    0  0.51300381655E+02  0.63751984727E+02 -0.29982978202E+03  0.31082376888E+03  0.41800000000E+01 0. -1.
         -5    1    3    3    0  502  0.30776594169E+01 -0.61750455555E+01  0.11058611333E+02  0.13688259922E+02  0.41800000000E+01 0. -1.
        -11    1    1    2    0    0 -0.65771173068E+01  0.23381724015E+02 -0.54618755203E+02  0.59776014503E+02  0.00000000000E+00 0.  1.
         11    1    1    2    0    0 -0.47800923765E+02 -0.80958663186E+02 -0.26116763330E+03  0.27757479378E+03  0.00000000000E+00 0. -1.
</event>
<event>
 7    1  0.2855090E-009  0.8379996E+02  0.7561462E-02  0.1318601E+00
         -2   -1    0    0    0  501 -0.00000000000E+00  0.00000000000E+00  0.49481692087E+02  0.49481692087E+02  0.00000000000E+00 0.  1.
          2   -1    0    0  501    0  0.00000000000E+00 -0.00000000000E+00 -0.73743698304E+03  0.73743698304E+03  0.00000000000E+00 0. -1.
         25    2    1    2    0    0 -0.46931440447E+02  0.40537210110E+02 -0.65468085250E+03  0.66940313738E+03  0.12509083178E+03 0.  0.
          5    1    3    3  502    0 -0.61567971127E+02  0.45054261073E+02 -0.19480613433E+03  0.20925439991E+03  0.41800000000E+01 0. -1.
         -5    1    3    3    0  502  0.14636530680E+02 -0.45170509632E+01 -0.45987471817E+03  0.46014873747E+03  0.41800000000E+01 0. -1.
        -11    1    1    2    0    0  0.12174409115E+02 -0.38633537020E+02 -0.60855629466E+02  0.73103858022E+02  0.00000000000E+00 0. -1.
         11    1    1    2    0    0  0.34757031332E+02 -0.19036730902E+01  0.27581191016E+02  0.44411679726E+02  0.00000000000E+00 0.  1.
</event>
<event>
 7    1  0.2855090E-009  0.1561862E+03  0.7561462E-02  0.1193071E+00
         -1   -1    0    0    0  501 -0.00000000000E+00  0.00000000000E+00  0.10610850617E+03  0.10610850617E+03  0.00000000000E+00 0.  1.
          1   -1    0    0  501    0  0.00000000000E+00 -0.00000000000E+00 -0.27208710679E+03  0.27208710679E+03  0.00000000000E+00 0. -1.
         25    2    1    2    0    0 -0.12018154164E+03  0.37698764907E+02 -0.86741976540E+02  0.19756975553E+03  0.12507932674E+03 0.  0.
          5    1    3    3  502    0  0.11699309727E+02 -0.27517876187E+02 -0.11934573105E+02  0.32465578589E+02  0.41800000000E+01 0.  1.
         -5    1    3    3    0  502 -0.13188085137E+03  0.65216641095E+02 -0.74807403435E+02  0.16510417694E+03  0.41800000000E+01 0.  1.
        -11    1    1    2    0    0  0.43561491355E+02 -0.38847217267E+02 -0.85740738960E+02  0.10372166667E+03  0.00000000000E+00 0. -1.
         11    1    1    2    0    0  0.76620050287E+02  0.11484523600E+01  0.65041148798E+01  0.76904190777E+02  0.00000000000E+00 0.  1.
</event>
<event>
 7    1  0.3020244E-009  0.1405833E+03  0.7561462E-02  0.1212546E+00
          1   -1    0    0  501    0  0.00000000000E+00  0.00000000000E+00  0.17233260538E+03  0.17233260538E+03  0.00000000000E+00 0. -1.
         -1   -1    0    0    0  501 -0.00000000000E+00 -0.00000000000E+00 -0.19935470638E+03  0.19935470638E+03  0.00000000000E+00 0.  1.
         25    2    1    2    0    0  0.84848488340E+02  0.10662187045E+03 -0.76463016818E+02  0.20015277461E+03  0.12508817295E+03 0.  0.
          5    1    3    3  502    0  0.52291223441E+02  0.35346554443E+02 -0.99913064730E+02  0.11825330382E+03  0.41800000000E+01 0.  1.
         -5    1    3    3    0  502  0.32557264899E+02  0.71275316008E+02  0.23450047912E+02  0.81899470797E+02  0.41800000000E+01 0.  1.
        -11    1    1    2    0    0 -0.70549619742E+02 -0.66907750512E+02  0.74459918638E+02  0.12246703805E+03  0.00000000000E+00 0. -1.
         11    1    1    2    0    0 -0.14298868598E+02 -0.39714119940E+02 -0.25019002815E+02  0.49067499097E+02  0.00000000000E+00 0.  1.
</event>
<event>
 7    1  0.2855090E-009  0.1337310E+03  0.7561462E-02  0.1222022E+00
         -3   -1    0    0    0  501 -0.00000000000E+00  0.00000000000E+00  0.12596039034E+03  0.12596039034E+03  0.00000000000E+00 0.  1.
          3   -1    0    0  501    0  0.00000000000E+00 -0.00000000000E+00 -0.15882427105E+03  0.15882427105E+03  0.00000000000E+00 0. -1.
         25    2    1    2    0    0 -0.86352833440E+01  0.83168276319E+02  0.14675707463E+02  0.15117765914E+03  0.12509107854E+03 0.  0.
          5    1    3    3  502    0 -0.61678216024E+02  0.15410838204E+02  0.12918673089E+02  0.65008159337E+02  0.41800000000E+01 0.  1.
         -5    1    3    3    0  502  0.53042932680E+02  0.67757438115E+02  0.17570343739E+01  0.86169499807E+02  0.41800000000E+01 0.  1.
        -11    1    1    2    0    0  0.41414805549E+02 -0.71829449425E+02 -0.53127828912E+02  0.98474474501E+02  0.00000000000E+00 0. -1.
         11    1    1    2    0    0 -0.32779522205E+02 -0.11338826894E+02  0.55882407349E+01  0.35132527746E+02  0.00000000000E+00 0.  1.
</event>
<event>
 7    1  0.2855090E-009  0.8889194E+02  0.7561462E-02  0.1305557E+00
         -1   -1    0    0    0  501 -0.00000000000E+00  0.00000000000E+00  0.60571976035E+02  0.60571976035E+02  0.00000000000E+00 0.  1.
          1   -1    0    0  501    0  0.00000000000E+00 -0.00000000000E+00 -0.22735192704E+03  0.22735192704E+03  0.00000000000E+00 0. -1.
         25    2    1    2    0    0 -0.19623803635E+02  0.27406870349E+02 -0.10285594285E+03  0.16541846144E+03  0.12509073584E+03 0.  0.
          5    1    3    3  502    0  0.24472362428E+02 -0.13427442429E+02  0.15798615514E+02  0.32345963970E+02  0.41800000000E+01 0.  1.
         -5    1    3    3    0  502 -0.44096166063E+02  0.40834312778E+02 -0.11865455836E+03  0.13307249747E+03  0.41800000000E+01 0.  1.
        -11    1    1    2    0    0  0.10899041544E+02 -0.57220992276E+02 -0.69776554415E+02  0.90894436627E+02  0.00000000000E+00 0. -1.
         11    1    1    2    0    0  0.87247620913E+01  0.29814121928E+02  0.58525462629E+01  0.31611005008E+02  0.00000000000E+00 0.  1.
</event>
<event>
 7    1  0.2855090E-009  0.1177581E+03  0.7561462E-02  0.1246842E+00
          2   -1    0    0  501    0  0.00000000000E+00  0.00000000000E+00  0.11654752592E+03  0.11654752592E+03  0.00000000000E+00 0. -1.
         -2   -1    0    0    0  501 -0.00000000000E+00 -0.00000000000E+00 -0.13271740367E+03  0.13271740367E+03  0.00000000000E+00 0.  1.
         25    2    1    2    0    0 -0.52777069897E+02  0.28133559573E+02 -0.13566600216E+02  0.13931367576E+03  0.12508929343E+03 0.  0.
          5    1    3    3  502    0 -0.63550948245E+02  0.66631755828E+02  0.10007599163E+02  0.92715361988E+02  0.41800000000E+01 0.  1.
         -5    1    3    3    0  502  0.10773878348E+02 -0.38498196255E+02 -0.23574199379E+02  0.46598313767E+02  0.41800000000E+01 0.  1.
        -11    1    1    2    0    0  0.57460110747E+02  0.15299848599E+02 -0.20279845828E+02  0.62825328021E+02  0.00000000000E+00 0.  1.
         11    1    1    2    0    0 -0.46830408496E+01 -0.43433408172E+02  0.17676568294E+02  0.47125925812E+02  0.00000000000E+00 0. -1.
</event>
<event>
 7    1  0.2855090E-009  0.1250579E+03  0.7561462E-02  0.1234979E+00
          1   -1    0    0  501    0  0.00000000000E+00  0.00000000000E+00  0.54970244120E+03  0.54970244120E+03  0.00000000000E+00 0. -1.
         -1   -1    0    0    0  501 -0.00000000000E+00 -0.00000000000E+00 -0.34198405447E+02  0.34198405447E+02  0.00000000000E+00 0.  1.
         25    2    1    2    0    0 -0.28203075639E+02  0.67135440237E+02  0.19525373595E+03  0.24305178579E+03  0.12509024088E+03 0.  0.
          5    1    3    3  502    0 -0.59641376044E+02  0.83775986709E+02  0.17170267318E+03  0.20018688784E+03  0.41800000000E+01 0.  1.
         -5    1    3    3    0  502  0.31438300405E+02 -0.16640546471E+02  0.23551062772E+02  0.42864897957E+02  0.41800000000E+01 0.  1.
        -11    1    1    2    0    0  0.30743147867E+02  0.11409627567E+02  0.14692978102E+03  0.15054461562E+03  0.00000000000E+00 0.  1.
         11    1    1    2    0    0 -0.25400722272E+01 -0.78545067804E+02  0.17332051878E+03  0.19030444523E+03  0.00000000000E+00 0. -1.
</event>
<event>
 7    1  0.2855090E-009  0.1308377E+03  0.7561462E-02  0.1226218E+00
          1   -1    0    0  501    0  0.00000000000E+00  0.00000000000E+00  0.94148700070E+02  0.94148700070E+02  0.00000000000E+00 0. -1.
         -1   -1    0    0    0  501 -0.00000000000E+00 -0.00000000000E+00 -0.25535228037E+03  0.25535228037E+03  0.00000000000E+00 0.  1.
         25    2    1    2    0    0 -0.10591507929E+03  0.11714208701E+02 -0.11228656677E+03  0.19902402087E+03  0.12508821327E+03 0.  0.
          5    1    3    3  502    0 -0.53240982065E+02  0.32595329247E+02 -0.12590941394E+03  0.14059769051E+03  0.41800000000E+01 0. -1.
         -5    1    3    3    0  502 -0.52674097229E+02 -0.20881120546E+02  0.13622847168E+02  0.58426330358E+02  0.41800000000E+01 0. -1.
        -11    1    1    2    0    0 -0.16757809179E+02  0.70743720963E+01 -0.56366478109E+01  0.19043180080E+02  0.00000000000E+00 0.  1.
         11    1    1    2    0    0  0.12267288847E+03 -0.18788580798E+02 -0.43280365725E+02  0.13143377949E+03  0.00000000000E+00 0. -1.
</event>
<event>
 7    1  0.2855090E-009  0.9877122E+02  0.7561462E-02  0.1282901E+00
         -3   -1    0    0    0  501 -0.00000000000E+00  0.00000000000E+00  0.21668316217E+03  0.21668316217E+03  0.00000000000E+00 0.  1.
          3   -1    0    0  501    0  0.00000000000E+00 -0.00000000000E+00 -0.74459475664E+02  0.74459475664E+02  0.00000000000E+00 0. -1.
         25    2    1    2    0    0  0.16899213688E+02  0.27722802325E+02  0.14656477571E+03  0.19540432010E+03  0.12508987826E+03 0.  0.
          5    1    3    3  502    0 -0.13530722986E+02 -0.32256761589E+02  0.11632668547E+03  0.12154402201E+03  0.41800000000E+01 0.  1.
         -5    1    3    3    0  502  0.30429936674E+02  0.59979563914E+02  0.30238090240E+02  0.73860298095E+02  0.41800000000E+01 0.  1.
        -11    1    1    2    0    0 -0.37407741853E+01 -0.59976159320E+02 -0.83662814534E+01  0.60672297992E+02  0.00000000000E+00 0. -1.
         11    1    1    2    0    0 -0.13158439502E+02  0.32253356995E+02  0.40251922446E+01  0.35066019737E+02  0.00000000000E+00 0.  1.
</event>
