<event>
 8    1  0.6493926E-009  0.1016220E+03  0.7561462E-02  0.1276922E+00
         -2   -1    0    0    0  501 -0.00000000000E+00  0.00000000000E+00  0.46442629888E+02  0.46442629888E+02  0.00000000000E+00 0.  1.
          2   -1    0    0  501    0  0.00000000000E+00 -0.00000000000E+00 -0.33814863031E+03  0.33814863031E+03  0.00000000000E+00 0. -1.
         25    2    1    2    0    0 -0.29909594482E+02 -0.49423850219E+02 -0.11930955632E+03  0.18226352896E+03  0.12509165818E+03 0.  0.
         23    2    1    2    0    0  0.29909594482E+02  0.49423850219E+02 -0.17239644411E+03  0.20232773124E+03  0.88761906675E+02 0.  0.
          5    1    3    3  502    0  0.16025477335E+02  0.20357494810E+02 -0.89811172884E+02  0.93566888874E+02  0.41800000000E+01 0. -1.
         -5    1    3    3    0  502 -0.45935071817E+02 -0.69781345029E+02 -0.29498383433E+02  0.88696640083E+02  0.41800000000E+01 0. -1.
        -11    1    4    4    0    0  0.53419899986E+02  0.23513112802E+02 -0.56376467113E+02  0.81147139397E+02  0.00000000000E+00 0. -1.
         11    1    4    4    0    0 -0.23510305504E+02  0.25910737417E+02 -0.11601997700E+03  0.12118059185E+03  0.00000000000E+00 0.  1.
</event>
<event>
 8    1  0.6493926E-009  0.2209203E+03  0.7561462E-02  0.1133199E+00
         -1   -1    0    0    0  501 -0.00000000000E+00  0.00000000000E+00  0.50364740638E+02  0.50364740638E+02  0.00000000000E+00 0.  1.
          1   -1    0    0  501    0  0.00000000000E+00 -0.00000000000E+00 -0.10748297891E+04  0.10748297891E+04  0.00000000000E+00 0. -1.
         25    2    1    2    0    0  0.20093548585E+03 -0.41185691644E+02 -0.49250996024E+03  0.54798079017E+03  0.12508219212E+03 0.  0.
         23    2    1    2    0    0 -0.20093548585E+03  0.41185691644E+02 -0.53195508822E+03  0.57721373957E+03  0.90156278757E+02 0.  0.
          5    1    3    3  502    0  0.78388654319E+02 -0.52918949227E+02 -0.10506321268E+03  0.14142470567E+03  0.41800000000E+01 0.  1.
         -5    1    3    3    0  502  0.12254683153E+03  0.11733257583E+02 -0.38744674756E+03  0.40655608450E+03  0.41800000000E+01 0.  1.
        -11    1    4    4    0    0 -0.14843450337E+03 -0.12426342250E+02 -0.36007574177E+03  0.38966877677E+03  0.00000000000E+00 0.  1.
         11    1    4    4    0    0 -0.52500982478E+02  0.53612033894E+02 -0.17187934644E+03  0.18754496280E+03  0.00000000000E+00 0. -1.
</event>
<event>
 8    1  0.6493926E-009  0.7353200E+02  0.7561462E-02  0.1348478E+00
         -1   -1    0    0    0  501 -0.00000000000E+00  0.00000000000E+00  0.25731211110E+02  0.25731211110E+02  0.00000000000E+00 0.  1.
          1   -1    0    0  501    0  0.00000000000E+00 -0.00000000000E+00 -0.47062439272E+03  0.47062439272E+03  0.00000000000E+00 0. -1.
         25    2    1    2    0    0  0.33902768137E+01  0.19580398327E+02 -0.24049674871E+03  0.27181147084E+03  0.12509158071E+03 0.  0.
         23    2    1    2    0    0 -0.33902768137E+01 -0.19580398327E+02 -0.20439643290E+03  0.22454413299E+03  0.90814535740E+02 0.  0.
          5    1    3    3  502    0  0.12156646007E+02  0.52737229020E+02 -0.22908128450E+03  0.23542452437E+03  0.41800000000E+01 0.  1.
         -5    1    3    3    0  502 -0.87663691938E+01 -0.33156830693E+02 -0.11415464212E+02  0.36386946473E+02  0.41800000000E+01 0.  1.
        -11    1    4    4    0    0  0.20988624556E+02  0.70381699602E+01 -0.60624869072E+01  0.22952384291E+02  0.00000000000E+00 0.  1.
         11    1    4    4    0    0 -0.24378901370E+02 -0.26618568288E+02 -0.19833394599E+03  0.20159174870E+03  0.00000000000E+00 0. -1.
</event>
<event>
 8    1  0.6493926E-009  0.1446543E+03  0.7561462E-02  0.1207200E+00
          2   -1    0    0  501    0  0.00000000000E+00  0.00000000000E+00  0.48070144270E+03  0.48070144270E+03  0.00000000000E+00 0. -1.
         -2   -1    0    0    0  501 -0.00000000000E+00 -0.00000000000E+00 -0.47446818283E+02  0.47446818283E+02  0.00000000000E+00 0.  1.
         25    2    1    2    0    0  0.59105127368E+02 -0.86375566252E+02  0.24977632602E+03  0.29830662221E+03  0.12507786888E+03 0.  0.
         23    2    1    2    0    0 -0.59105127368E+02  0.86375566252E+02  0.18347829839E+03  0.22984163878E+03  0.90602088320E+02 0.  0.
          5    1    3    3  502    0  0.51840319799E+02  0.12145813081E+02  0.41105554484E+02  0.67394944481E+02  0.41800000000E+01 0. -1.
         -5    1    3    3    0  502  0.72648075697E+01 -0.98521379333E+02  0.20867077154E+03  0.23091167772E+03  0.41800000000E+01 0. -1.
        -11    1    4    4    0    0 -0.69129149609E+02  0.22992450734E+02  0.81124769412E+02  0.10903540860E+03  0.00000000000E+00 0. -1.
         11    1    4    4    0    0  0.10024022241E+02  0.63383115518E+02  0.10235352898E+03  0.12080623018E+03  0.00000000000E+00 0.  1.
</event>
<event>
 8    1  0.6493926E-009  0.7747164E+02  0.7561462E-02  0.1336384E+00
         -2   -1    0    0    0  501 -0.00000000000E+00  0.00000000000E+00  0.34530719266E+03  0.34530719266E+03  0.00000000000E+00 0.  1.
          2   -1    0    0  501    0  0.00000000000E+00 -0.00000000000E+00 -0.89175507259E+02  0.89175507259E+02  0.00000000000E+00 0. -1.
         25    2    1    2    0    0  0.56001097436E+02  0.48795932144E+01  0.28950890282E+03  0.32034739937E+03  0.12508844120E+03 0.  0.
         23    2    1    2    0    0 -0.56001097436E+02 -0.48795932144E+01 -0.33377217423E+02  0.11413530055E+03  0.93556906992E+02 0.  0.
          5    1    3    3  502    0  0.49232306970E+02  0.36049736060E+02  0.50877723693E+02  0.79557643805E+02  0.41800000000E+01 0. -1.
         -5    1    3    3    0  502  0.67687904654E+01 -0.31170142846E+02  0.23863117913E+03  0.24078975556E+03  0.41800000000E+01 0. -1.
        -11    1    4    4    0    0 -0.35073474548E+02  0.93571004636E+01 -0.64503831359E+02  0.74016540084E+02  0.00000000000E+00 0. -1.
         11    1    4    4    0    0 -0.20927622888E+02 -0.14236693678E+02  0.31126613936E+02  0.40118760471E+02  0.00000000000E+00 0.  1.
</event>
<event>
 8    1  0.6493926E-009  0.9685745E+02  0.7561462E-02  0.1287047E+00
         -2   -1    0    0    0  501 -0.00000000000E+00  0.00000000000E+00  0.34732654651E+02  0.34732654651E+02  0.00000000000E+00 0.  1.
          2   -1    0    0  501    0  0.00000000000E+00 -0.00000000000E+00 -0.55101805705E+03  0.55101805705E+03  0.00000000000E+00 0. -1.
         25    2    1    2    0    0 -0.14647794961E+02 -0.11872654543E+02 -0.45750648096E+03  0.47467880097E+03  0.12510901703E+03 0.  0.
         23    2    1    2    0    0  0.14647794961E+02  0.11872654543E+02 -0.58778921437E+02  0.11107191073E+03  0.92338994611E+02 0.  0.
          5    1    3    3  502    0 -0.42497846915E+02  0.28599328987E+02 -0.37542614592E+03  0.37892776627E+03  0.41800000000E+01 0.  1.
         -5    1    3    3    0  502  0.27850051955E+02 -0.40471983530E+02 -0.82080335039E+02  0.95751034693E+02  0.41800000000E+01 0.  1.
        -11    1    4    4    0    0 -0.37267652159E+02 -0.67214558240E+01 -0.32866292322E+02  0.50142287910E+02  0.00000000000E+00 0. -1.
         11    1    4    4    0    0  0.51915447119E+02  0.18594110367E+02 -0.25912629115E+02  0.60929622825E+02  0.00000000000E+00 0.  1.
</event>
<event>
 8    1  0.6493926E-009  0.1825028E+03  0.7561462E-02  0.1165403E+00
         -1   -1    0    0    0  501 -0.00000000000E+00  0.00000000000E+00  0.35953532503E+02  0.35953532503E+02  0.00000000000E+00 0.  1.
          1   -1    0    0  501    0  0.00000000000E+00 -0.00000000000E+00 -0.11868374547E+04  0.11868374547E+04  0.00000000000E+00 0. -1.
         25    2    1    2    0    0  0.11177087557E+03  0.13413909973E+03 -0.64577188124E+03  0.68055522007E+03  0.12509219906E+03 0.  0.
         23    2    1    2    0    0 -0.11177087557E+03 -0.13413909973E+03 -0.50511204091E+03  0.54223576709E+03  0.91626560187E+02 0.  0.
          5    1    3    3  502    0  0.94432740786E+02  0.12934037694E+03 -0.35820899198E+03  0.39239983432E+03  0.41800000000E+01 0.  1.
         -5    1    3    3    0  502  0.17338134783E+02  0.47987227888E+01 -0.28756288926E+03  0.28815538575E+03  0.41800000000E+01 0.  1.
        -11    1    4    4    0    0 -0.22274352323E+02 -0.76995856739E+02 -0.30895588431E+03  0.31918372010E+03  0.00000000000E+00 0.  1.
         11    1    4    4    0    0 -0.89496523246E+02 -0.57143242990E+02 -0.19615615661E+03  0.22305204699E+03  0.00000000000E+00 0. -1.
</event>
<event>
 8    1  0.6493926E-009  0.9037867E+02  0.7561462E-02  0.1301937E+00
          1   -1    0    0  501    0  0.00000000000E+00  0.00000000000E+00  0.32970781017E+03  0.32970781017E+03  0.00000000000E+00 0. -1.
         -1   -1    0    0    0  501 -0.00000000000E+00 -0.00000000000E+00 -0.49776562835E+02  0.49776562835E+02  0.00000000000E+00 0.  1.
         25    2    1    2    0    0  0.15217664321E+02  0.58675576157E+02  0.19732446821E+03  0.24136878372E+03  0.12509014133E+03 0.  0.
         23    2    1    2    0    0 -0.15217664321E+02 -0.58675576157E+02  0.82606779124E+02  0.13811558928E+03  0.92615525158E+02 0.  0.
          5    1    3    3  502    0 -0.15334821148E+02  0.16137730361E+02  0.18631679690E+03  0.18768858327E+03  0.41800000000E+01 0. -1.
         -5    1    3    3    0  502  0.30552485468E+02  0.42537845795E+02  0.11007671305E+02  0.53680200454E+02  0.41800000000E+01 0. -1.
        -11    1    4    4    0    0  0.31353597918E+02 -0.48730674746E+02  0.24304665862E+02  0.62836641749E+02  0.00000000000E+00 0.  1.
         11    1    4    4    0    0 -0.46571262239E+02 -0.99449014111E+01  0.58302113263E+02  0.75278947532E+02  0.00000000000E+00 0. -1.
</event>
<event>
 8    1  0.6493926E-009  0.1168863E+03  0.7561462E-02  0.1248324E+00
          2   -1    0    0  501    0  0.00000000000E+00  0.00000000000E+00  0.63932781544E+03  0.63932781544E+03  0.00000000000E+00 0.  1.
         -2   -1    0    0    0  501 -0.00000000000E+00 -0.00000000000E+00 -0.37228498686E+02  0.37228498686E+02  0.00000000000E+00 0. -1.
         25    2    1    2    0    0  0.74685996085E+02 -0.15704755112E+02  0.15220608978E+03  0.21127494580E+03  0.12508305885E+03 0.  0.
         23    2    1    2    0    0 -0.74685996085E+02  0.15704755112E+02  0.44989322698E+03  0.46528136833E+03  0.90874631720E+02 0.  0.
          5    1    3    3  502    0  0.90272840399E+02 -0.28391619884E+02  0.50161928408E+02  0.10718657218E+03  0.41800000000E+01 0. -1.
         -5    1    3    3    0  502 -0.15586844314E+02  0.12686864773E+02  0.10204416137E+03  0.10408837362E+03  0.41800000000E+01 0. -1.
        -11    1    4    4    0    0 -0.56439215798E+02  0.52732844933E+02  0.28186321135E+03  0.29225503919E+03  0.00000000000E+00 0.  1.
         11    1    4    4    0    0 -0.18246780287E+02 -0.37028089821E+02  0.16803001562E+03  0.17302632914E+03  0.00000000000E+00 0. -1.
</event>
<event>
 8    1  0.6493926E-009  0.8354820E+02  0.7561462E-02  0.1319273E+00
         -2   -1    0    0    0  501 -0.00000000000E+00  0.00000000000E+00  0.60853301187E+02  0.60853301187E+02  0.00000000000E+00 0.  1.
          2   -1    0    0  501    0  0.00000000000E+00 -0.00000000000E+00 -0.27743382710E+03  0.27743382710E+03  0.00000000000E+00 0. -1.
         25    2    1    2    0    0 -0.58741555155E+01 -0.26861189721E+02 -0.20757853818E+03  0.24391086573E+03  0.12509049402E+03 0.  0.
         23    2    1    2    0    0  0.58741555155E+01  0.26861189721E+02 -0.90019877382E+01  0.94376262555E+02  0.89832143102E+02 0.  0.
          5    1    3    3  502    0 -0.20491064075E+02 -0.44927975492E+02 -0.17780986227E+02  0.52650190503E+02  0.41800000000E+01 0. -1.
         -5    1    3    3    0  502  0.14616908559E+02  0.18066785771E+02 -0.18979755195E+03  0.19126067523E+03  0.41800000000E+01 0. -1.
        -11    1    4    4    0    0  0.44611766078E+02 -0.34432648086E+01 -0.52252985699E+01  0.45048523730E+02  0.00000000000E+00 0.  1.
         11    1    4    4    0    0 -0.38737610563E+02  0.30304454530E+02 -0.37766891683E+01  0.49327738824E+02  0.00000000000E+00 0. -1.
</event>
<event>
 8    1  0.6493926E-009  0.1158330E+03  0.7561462E-02  0.1250134E+00
         -2   -1    0    0    0  501 -0.00000000000E+00  0.00000000000E+00  0.69151147253E+02  0.69151147253E+02  0.00000000000E+00 0.  1.
          2   -1    0    0  501    0  0.00000000000E+00 -0.00000000000E+00 -0.37162350090E+03  0.37162350090E+03  0.00000000000E+00 0. -1.
         25    2    1    2    0    0  0.29976615102E+02 -0.55829829283E+02 -0.29746918179E+03  0.32886438834E+03  0.12509318334E+03 0.  0.
         23    2    1    2    0    0 -0.29976615102E+02  0.55829829283E+02 -0.50031718598E+01  0.11191025981E+03  0.92104870829E+02 0.  0.
          5    1    3    3  502    0  0.59127207236E+02 -0.75629473797E+02 -0.26032786985E+03  0.27749579486E+03  0.41800000000E+01 0.  1.
         -5    1    3    3    0  502 -0.29150592133E+02  0.19799644514E+02 -0.37141311933E+02  0.51368593486E+02  0.41800000000E+01 0.  1.
        -11    1    4    4    0    0 -0.35717295887E+02  0.73387355673E+02 -0.24338638688E+02  0.85169234653E+02  0.00000000000E+00 0. -1.
         11    1    4    4    0    0  0.57406807845E+01 -0.17557526390E+02  0.19335466828E+02  0.26741025153E+02  0.00000000000E+00 0.  1.
</event>
<event>
 8    1  0.6493926E-009  0.1369584E+03  0.7561462E-02  0.1217481E+00
          1   -1    0    0  501    0  0.00000000000E+00  0.00000000000E+00  0.18207278042E+03  0.18207278042E+03  0.00000000000E+00 0.  1.
         -1   -1    0    0    0  501 -0.00000000000E+00 -0.00000000000E+00 -0.18375889662E+03  0.18375889662E+03  0.00000000000E+00 0. -1.
         25    2    1    2    0    0 -0.38965636322E+02 -0.12209676119E+03 -0.72618083387E+02  0.19325490138E+03  0.12509248964E+03 0.  0.
         23    2    1    2    0    0  0.38965636322E+02  0.12209676119E+03  0.70931967187E+02  0.17257677566E+03  0.91243956623E+02 0.  0.
          5    1    3    3  502    0 -0.27474730761E+02 -0.96587229761E+02  0.14602856525E+02  0.10156116188E+03  0.41800000000E+01 0. -1.
         -5    1    3    3    0  502 -0.11490905561E+02 -0.25509531430E+02 -0.87220939911E+02  0.91693739499E+02  0.41800000000E+01 0. -1.
        -11    1    4    4    0    0 -0.15278223189E+02  0.63333684582E+02 -0.78899168964E+00  0.65155216325E+02  0.00000000000E+00 0. -1.
         11    1    4    4    0    0  0.54243859511E+02  0.58763076609E+02  0.71720958876E+02  0.10742155933E+03  0.00000000000E+00 0.  1.
</event>
<event>
 8    1  0.6493926E-009  0.1015213E+03  0.7561462E-02  0.1277129E+00
          1   -1    0    0  501    0  0.00000000000E+00  0.00000000000E+00  0.43085571472E+03  0.43085571472E+03  0.00000000000E+00 0. -1.
         -1   -1    0    0    0  501 -0.00000000000E+00 -0.00000000000E+00 -0.30375479581E+02  0.30375479581E+02  0.00000000000E+00 0.  1.
         25    2    1    2    0    0 -0.33431538708E+02  0.83435114925E+01  0.25972472856E+03  0.29033117997E+03  0.12509187612E+03 0.  0.
         23    2    1    2    0    0  0.33431538708E+02 -0.83435114925E+01  0.14075550657E+03  0.17090001433E+03  0.90594813886E+02 0.  0.
          5    1    3    3  502    0  0.12317844996E+02  0.50923448799E+02  0.54306529550E+02  0.75575118224E+02  0.41800000000E+01 0.  1.
         -5    1    3    3    0  502 -0.45749383704E+02 -0.42579937306E+02  0.20541819901E+03  0.21475606174E+03  0.41800000000E+01 0.  1.
        -11    1    4    4    0    0  0.49484749832E+02 -0.32238076331E+02  0.55995278778E+02  0.81384920451E+02  0.00000000000E+00 0.  1.
         11    1    4    4    0    0 -0.16053211124E+02  0.23894564838E+02  0.84760227797E+02  0.89515093880E+02  0.00000000000E+00 0. -1.
</event>
<event>
 7    1  0.6493926E-009  0.1072222E+03  0.7561462E-02  0.1265802E+00
         -1   -1    0    0    0  501 -0.00000000000E+00  0.00000000000E+00  0.90621142959E+02  0.90621142959E+02  0.00000000000E+00 0.  1.
          1   -1    0    0  501    0  0.00000000000E+00 -0.00000000000E+00 -0.36505871629E+03  0.36505871629E+03  0.00000000000E+00 0. -1.
         25    2    1    2    0    0 -0.42962631074E+02 -0.89383554720E+02 -0.35441068740E+02  0.16352251155E+03  0.12509330481E+03 0.  0.
          5    1    3    3  502    0 -0.11841972509E+02 -0.12326025902E+02 -0.70915947998E+02  0.73066458159E+02  0.41800000000E+01 0.  1.
         -5    1    3    3    0  502 -0.31120658565E+02 -0.77057528819E+02  0.35474879258E+02  0.90456053393E+02  0.41800000000E+01 0.  1.
        -11    1    1    2    0    0  0.55719518627E+02  0.61573529934E+02 -0.24695478616E+03  0.26054295375E+03  0.00000000000E+00 0. -1.
         11    1    1    2    0    0 -0.12756887553E+02  0.27810024786E+02  0.79582815701E+01  0.31614393940E+02  0.00000000000E+00 0.  1.
</event>
<event>
 8    1  0.6493926E-009  0.1498172E+03  0.7561462E-02  0.1200698E+00
         -2   -1    0    0    0  501 -0.00000000000E+00  0.00000000000E+00  0.45627432718E+03  0.45627432718E+03  0.00000000000E+00 0. -1.
          2   -1    0    0  501    0  0.00000000000E+00 -0.00000000000E+00 -0.68653749766E+02  0.68653749766E+02  0.00000000000E+00 0.  1.
         25    2    1    2    0    0 -0.12684928944E+03  0.20561516314E+01  0.28807305456E+03  0.33871669859E+03  0.12509175491E+03 0.  0.
         23    2    1    2    0    0  0.12684928944E+03 -0.20561516314E+01  0.99547522846E+02  0.18621137835E+03  0.93112824755E+02 0.  0.
          5    1    3    3  502    0 -0.14245584224E+03  0.68239440919E+01  0.18173495349E+03  0.23105258908E+03  0.41800000000E+01 0.  1.
         -5    1    3    3    0  502  0.15606552806E+02 -0.47677924605E+01  0.10633810108E+03  0.10766410951E+03  0.41800000000E+01 0.  1.
        -11    1    4    4    0    0  0.62276929794E+02 -0.30741791987E+02  0.91827350155E+02  0.11513355721E+03  0.00000000000E+00 0. -1.
         11    1    4    4    0    0  0.64572359642E+02  0.28685640356E+02  0.77201726913E+01  0.71077821145E+02  0.00000000000E+00 0.  1.
</event>
<event>
 8    1  0.6493926E-009  0.6081445E+02  0.7561462E-02  0.1394445E+00
          1   -1    0    0  501    0  0.00000000000E+00  0.00000000000E+00  0.45170400610E+02  0.45170400610E+02  0.00000000000E+00 0. -1.
         -1   -1    0    0    0  501 -0.00000000000E+00 -0.00000000000E+00 -0.29030296130E+03  0.29030296130E+03  0.00000000000E+00 0.  1.
         25    2    1    2    0    0  0.11714002922E+01 -0.32121294281E+02 -0.10495129662E+03  0.16641396124E+03  0.12508270107E+03 0.  0.
         23    2    1    2    0    0 -0.11714002922E+01  0.32121294281E+02 -0.14018126407E+03  0.16905940067E+03  0.88865878913E+02 0.  0.
          5    1    3    3  502    0 -0.13469004557E+02 -0.19713580299E+02 -0.13131779494E+03  0.13353604382E+03  0.41800000000E+01 0.  1.
         -5    1    3    3    0  502  0.14640404849E+02 -0.12407713982E+02  0.26366498315E+02  0.32877917418E+02  0.41800000000E+01 0.  1.
        -11    1    4    4    0    0 -0.30468806876E+02 -0.45556668625E+01 -0.10758744175E+03  0.11191139314E+03  0.00000000000E+00 0.  1.
         11    1    4    4    0    0  0.29297406583E+02  0.36676961144E+02 -0.32593822318E+02  0.57148007529E+02  0.00000000000E+00 0. -1.
</event>
<event>
 8    1  0.6493926E-009  0.1203905E+03  0.7561462E-02  0.1242454E+00
          1   -1    0    0  501    0  0.00000000000E+00  0.00000000000E+00  0.41421654354E+03  0.41421654354E+03  0.00000000000E+00 0. -1.
         -1   -1    0    0    0  501 -0.00000000000E+00 -0.00000000000E+00 -0.40727977551E+02  0.40727977551E+02  0.00000000000E+00 0.  1.
         25    2    1    2    0    0 -0.56616634412E+02  0.16621660508E+02  0.28248213405E+03  0.31452443419E+03  0.12509092996E+03 0.  0.
         23    2    1    2    0    0  0.56616634412E+02 -0.16621660508E+02  0.91006431937E+02  0.14042008689E+03  0.89184680632E+02 0.  0.
          5    1    3    3  502    0 -0.80501694638E+02 -0.27107978774E+02  0.14334499374E+03  0.16667520806E+03  0.41800000000E+01 0. -1.
         -5    1    3    3    0  502  0.23885060226E+02  0.43729639282E+02  0.13913714031E+03  0.14784922613E+03  0.41800000000E+01 0. -1.
        -11    1    4    4    0    0 -0.10006847013E+02  0.25169908095E+02  0.33019514297E+02  0.42707722780E+02  0.00000000000E+00 0. -1.
         11    1    4    4    0    0  0.66623481425E+02 -0.41791568603E+02  0.57986917640E+02  0.97712364115E+02  0.00000000000E+00 0.  1.
</event>
<event>
 8    1  0.6493926E-009  0.1051647E+03  0.7561462E-02  0.1269795E+00
          1   -1    0    0  501    0  0.00000000000E+00  0.00000000000E+00  0.25139284997E+03  0.25139284997E+03  0.00000000000E+00 0. -1.
         -1   -1    0    0    0  501 -0.00000000000E+00 -0.00000000000E+00 -0.11767499595E+03  0.11767499595E+03  0.00000000000E+00 0.  1.
         25    2    1    2    0    0  0.35439816657E+02 -0.26119564548E+01 -0.66759600864E+02  0.14617718855E+03  0.12509245870E+03 0.  0.
         23    2    1    2    0    0 -0.35439816657E+02  0.26119564548E+01  0.20047745488E+03  0.22289065737E+03  0.90698579393E+02 0.  0.
          5    1    3    3  502    0  0.38427447970E+02  0.53237719971E+02 -0.10293872448E+02  0.66590988844E+02  0.41800000000E+01 0.  1.
         -5    1    3    3    0  502 -0.29876313136E+01 -0.55849676426E+02 -0.56465728416E+02  0.79586199704E+02  0.41800000000E+01 0.  1.
        -11    1    4    4    0    0 -0.61723161233E+02 -0.20626338777E+01  0.89445652155E+02  0.10869465387E+03  0.00000000000E+00 0.  1.
         11    1    4    4    0    0  0.26283344576E+02  0.46745903326E+01  0.11103180273E+03  0.11419600350E+03  0.00000000000E+00 0. -1.
</event>
<event>
 8    1  0.6493926E-009  0.1978488E+03  0.7561462E-02  0.1151567E+00
          1   -1    0    0  501    0  0.00000000000E+00  0.00000000000E+00  0.10501000446E+03  0.10501000446E+03  0.00000000000E+00 0. -1.
         -1   -1    0    0    0  501 -0.00000000000E+00 -0.00000000000E+00 -0.51656920471E+03  0.51656920471E+03  0.00000000000E+00 0.  1.
         25    2    1    2    0    0  0.60938337525E+02 -0.17103187572E+03 -0.84763757896E+02  0.23624096806E+03  0.12513799122E+03 0.  0.
         23    2    1    2    0    0 -0.60938337525E+02  0.17103187572E+03 -0.32679544236E+03  0.38533824111E+03  0.93407255758E+02 0.  0.
          5    1    3    3  502    0  0.93907869207E+02 -0.12107675832E+03 -0.32545333803E+02  0.15670016100E+03  0.41800000000E+01 0. -1.
         -5    1    3    3    0  502 -0.32969531682E+02 -0.49955117397E+02 -0.52218424092E+02  0.79540807063E+02  0.41800000000E+01 0. -1.
        -11    1    4    4    0    0 -0.17366529342E+02  0.74618166444E+02 -0.22820151261E+03  0.24071850253E+03  0.00000000000E+00 0.  1.
         11    1    4    4    0    0 -0.43571808182E+02  0.96413709276E+02 -0.98593929750E+02  0.14461973858E+03  0.00000000000E+00 0. -1.
</event>
<event>
 8    1  0.6493926E-009  0.1154014E+03  0.7561462E-02  0.1250882E+00
         -4   -1    0    0    0  501 -0.00000000000E+00  0.00000000000E+00  0.20893750097E+03  0.20893750097E+03  0.00000000000E+00 0.  1.
          4   -1    0    0  501    0  0.00000000000E+00 -0.00000000000E+00 -0.13740830133E+03  0.13740830133E+03  0.00000000000E+00 0. -1.
         25    2    1    2    0    0  0.60051463258E+02 -0.46733109361E+02 -0.69564038694E+02  0.16210767770E+03  0.12509828912E+03 0.  0.
         23    2    1    2    0    0 -0.60051463258E+02  0.46733109361E+02  0.14109323833E+03  0.18423812459E+03  0.90808715994E+02 0.  0.
          5    1    3    3  502    0  0.82667563275E+02 -0.47838061919E+02 -0.74841750710E+01  0.95895210842E+02  0.41800000000E+01 0. -1.
         -5    1    3    3    0  502 -0.22616100017E+02  0.11049525579E+01 -0.62079863623E+02  0.66212466859E+02  0.41800000000E+01 0. -1.
        -11    1    4    4    0    0  0.20791770787E+02  0.59479207833E+01  0.75796160320E+01  0.22915629454E+02  0.00000000000E+00 0. -1.
         11    1    4    4    0    0 -0.80843234044E+02  0.40785188577E+02  0.13351362230E+03  0.16132249514E+03  0.00000000000E+00 0.  1.
</event>
<event>
 8    1  0.6493926E-009  0.8493666E+02  0.7561462E-02  0.1315598E+00
         -2   -1    0    0    0  501 -0.00000000000E+00  0.00000000000E+00  0.15939358639E+03  0.15939358639E+03  0.00000000000E+00 0.  1.
          2   -1    0    0  501    0  0.00000000000E+00 -0.00000000000E+00 -0.84523651239E+02  0.84523651239E+02  0.00000000000E+00 0. -1.
         25    2    1    2    0    0 -0.15064281164E+02 -0.50473387156E+02  0.38573595428E+02  0.14110847426E+03  0.12509669807E+03 0.  0.
         23    2    1    2    0    0  0.15064281164E+02  0.50473387156E+02  0.36296339722E+02  0.10280876336E+03  0.80484297656E+02 0.  0.
          5    1    3    3  502    0  0.98431829318E+01  0.67537032692E+01  0.69980484315E+02  0.71114283678E+02  0.41800000000E+01 0.  1.
         -5    1    3    3    0  502 -0.24907464096E+02 -0.57227090425E+02 -0.31406888887E+02  0.69994190586E+02  0.41800000000E+01 0.  1.
        -11    1    4    4    0    0  0.44571498271E+02  0.47306396470E+02  0.16252963715E+02  0.66997555438E+02  0.00000000000E+00 0.  1.
         11    1    4    4    0    0 -0.29507217107E+02  0.31669906856E+01  0.20043376006E+02  0.35811207926E+02  0.00000000000E+00 0. -1.
</event>
<event>
 8    1  0.6493926E-009  0.2293693E+03  0.7561462E-02  0.1127084E+00
          1   -1    0    0  501    0  0.00000000000E+00  0.00000000000E+00  0.68355473617E+03  0.68355473617E+03  0.00000000000E+00 0. -1.
         -1   -1    0    0    0  501 -0.00000000000E+00 -0.00000000000E+00 -0.10024764603E+03  0.10024764603E+03  0.00000000000E+00 0.  1.
         25    2    1    2    0    0 -0.62572341244E+02 -0.19731310771E+03  0.46704931816E+03  0.52595649843E+03  0.12508961701E+03 0.  0.
         23    2    1    2    0    0  0.62572341244E+02  0.19731310771E+03  0.11625777197E+03  0.25784588376E+03  0.10060253409E+03 0.  0.
          5    1    3    3  502    0 -0.73426426133E+02 -0.20541833215E+03  0.38358715535E+03  0.44129888895E+03  0.41800000000E+01 0.  1.
         -5    1    3    3    0  502  0.10854084889E+02  0.81052244421E+01  0.83462162812E+02  0.84657609483E+02  0.41800000000E+01 0.  1.
        -11    1    4    4    0    0 -0.23130454217E+02  0.62324429198E+02  0.56172193341E+02  0.87032566846E+02  0.00000000000E+00 0.  1.
         11    1    4    4    0    0  0.85702795461E+02  0.13498867851E+03  0.60085578632E+02  0.17081331691E+03  0.00000000000E+00 0. -1.
</event>
<event>
 8    1  0.6493926E-009  0.1022958E+03  0.7561462E-02  0.1275541E+00
         -2   -1    0    0    0  501 -0.00000000000E+00  0.00000000000E+00  0.23122823293E+02  0.23122823293E+02  0.00000000000E+00 0.  1.
          2   -1    0    0  501    0  0.00000000000E+00 -0.00000000000E+00 -0.65784352517E+03  0.65784352517E+03  0.00000000000E+00 0. -1.
         25    2    1    2    0    0 -0.12185285385E+02 -0.29085210193E+02 -0.47652465955E+03  0.49367725296E+03  0.12508816210E+03 0.  0.
         23    2    1    2    0    0  0.12185285385E+02  0.29085210193E+02 -0.15819604233E+03  0.18728909551E+03  0.95167152185E+02 0.  0.
          5    1    3    3  502    0 -0.17373022228E+02  0.35519351485E+02 -0.59099197312E+02  0.71229444433E+02  0.41800000000E+01 0.  1.
         -5    1    3    3    0  502  0.51877368433E+01 -0.64604561678E+02 -0.41742546224E+03  0.42244780852E+03  0.41800000000E+01 0.  1.
        -11    1    4    4    0    0 -0.37939630035E+02  0.32058547515E+02 -0.70610463685E+02  0.86330780014E+02  0.00000000000E+00 0.  1.
         11    1    4    4    0    0  0.50124915419E+02 -0.29733373220E+01 -0.87585578644E+02  0.10095831549E+03  0.00000000000E+00 0. -1.
</event>
<event>
 8    1  0.6493926E-009  0.9318060E+02  0.7561462E-02  0.1295327E+00
         -2   -1    0    0    0  501 -0.00000000000E+00  0.00000000000E+00  0.25985851334E+02  0.25985851334E+02  0.00000000000E+00 0.  1.
          2   -1    0    0  501    0  0.00000000000E+00 -0.00000000000E+00 -0.67407231098E+03  0.67407231098E+03  0.00000000000E+00 0. -1.
         25    2    1    2    0    0 -0.60152861801E+02  0.37803932115E+02 -0.29195403095E+03  0.32547219895E+03  0.12508993578E+03 0.  0.
         23    2    1    2    0    0  0.60152861801E+02 -0.37803932115E+02 -0.35613242870E+03  0.37458596337E+03  0.91852235234E+02 0.  0.
          5    1    3    3  502    0 -0.25672545778E+02 -0.12959165437E+02 -0.24842633984E+03  0.25012024768E+03  0.41800000000E+01 0. -1.
         -5    1    3    3    0  502 -0.34480316023E+02  0.50763097551E+02 -0.43527691117E+02  0.75351951269E+02  0.41800000000E+01 0. -1.
        -11    1    4    4    0    0  0.44288712850E+02  0.10018575508E+02 -0.66003314072E+02  0.80114289672E+02  0.00000000000E+00 0.  1.
         11    1    4    4    0    0  0.15864148951E+02 -0.47822507622E+02 -0.29012911462E+03  0.29447167370E+03  0.00000000000E+00 0. -1.
</event>
<event>
 8    1  0.6493926E-009  0.1352083E+03  0.7561462E-02  0.1219926E+00
         -2   -1    0    0    0  501 -0.00000000000E+00  0.00000000000E+00  0.88347203414E+03  0.88347203414E+03  0.00000000000E+00 0. -1.
          2   -1    0    0  501    0  0.00000000000E+00 -0.00000000000E+00 -0.30538473841E+02  0.30538473841E+02  0.00000000000E+00 0.  1.
         25    2    1    2    0    0 -0.60582069679E+02 -0.10186467114E+03  0.36257536222E+03  0.40144167608E+03  0.12509167681E+03 0.  0.
         23    2    1    2    0    0  0.60582069679E+02  0.10186467114E+03  0.49035819807E+03  0.51256883190E+03  0.90714092775E+02 0.  0.
          5    1    3    3  502    0 -0.30328260657E+02 -0.73860438817E+02  0.34869170950E+03  0.35774089575E+03  0.41800000000E+01 0.  1.
         -5    1    3    3    0  502 -0.30253809022E+02 -0.28004232319E+02  0.13883652718E+02  0.43700780324E+02  0.41800000000E+01 0.  1.
        -11    1    4    4    0    0  0.39848603097E+02 -0.50066252786E+01  0.14496314280E+03  0.15042370238E+03  0.00000000000E+00 0. -1.
         11    1    4    4    0    0  0.20733466582E+02  0.10687129641E+03  0.34539505527E+03  0.36214512953E+03  0.00000000000E+00 0.  1.
</event>
<event>
 8    1  0.6493926E-009  0.1295882E+03  0.7561462E-02  0.1228068E+00
          2   -1    0    0  501    0  0.00000000000E+00  0.00000000000E+00  0.43394320600E+03  0.43394320600E+03  0.00000000000E+00 0. -1.
         -2   -1    0    0    0  501 -0.00000000000E+00 -0.00000000000E+00 -0.47504376393E+02  0.47504376393E+02  0.00000000000E+00 0.  1.
         25    2    1    2    0    0 -0.93370200169E+02  0.33332487706E+01  0.22006514715E+03  0.26982280218E+03  0.12508625328E+03 0.  0.
         23    2    1    2    0    0  0.93370200169E+02 -0.33332487706E+01  0.16637368246E+03  0.21162478021E+03  0.91519072098E+02 0.  0.
          5    1    3    3  502    0  0.11698645993E+02  0.27984293001E+02  0.76991699278E+01  0.31571008702E+02  0.41800000000E+01 0.  1.
         -5    1    3    3    0  502 -0.10506884616E+03 -0.24651044231E+02  0.21236597722E+03  0.23825179348E+03  0.41800000000E+01 0.  1.
        -11    1    4    4    0    0  0.33098110637E+02  0.35751560753E+02  0.11001263228E+03  0.12031807132E+03  0.00000000000E+00 0. -1.
         11    1    4    4    0    0  0.60272089531E+02 -0.39084809524E+02  0.56361050176E+02  0.91306708894E+02  0.00000000000E+00 0.  1.
</event>
<event>
 8    1  0.6493926E-009  0.1304672E+03  0.7561462E-02  0.1226764E+00
         -4   -1    0    0    0  501 -0.00000000000E+00  0.00000000000E+00  0.14999302855E+03  0.14999302855E+03  0.00000000000E+00 0.  1.
          4   -1    0    0  501    0  0.00000000000E+00 -0.00000000000E+00 -0.13010947324E+03  0.13010947324E+03  0.00000000000E+00 0. -1.
         25    2    1    2    0    0 -0.37169347073E+02  0.81625448232E+02  0.60024901977E+01  0.15403394949E+03  0.12508458556E+03 0.  0.
         23    2    1    2    0    0  0.37169347073E+02 -0.81625448232E+02  0.13881065118E+02  0.12606855230E+03  0.87500409994E+02 0.  0.
          5    1    3    3  502    0 -0.56798436833E+02  0.97733585209E+02  0.31895888610E+02  0.11752759767E+03  0.41800000000E+01 0.  1.
         -5    1    3    3    0  502  0.19629089760E+02 -0.16108136977E+02 -0.25893398412E+02  0.36506351817E+02  0.41800000000E+01 0.  1.
        -11    1    4    4    0    0  0.62898637798E+02 -0.69190134603E+02  0.22585022564E+02  0.96195616363E+02  0.00000000000E+00 0.  1.
         11    1    4    4    0    0 -0.25729290725E+02 -0.12435313629E+02 -0.87039574461E+01  0.29872935937E+02  0.00000000000E+00 0. -1.
</event>
<event>
 8    1  0.6493926E-009  0.4887938E+02  0.7561462E-02  0.1451481E+00
         -1   -1    0    0    0  501 -0.00000000000E+00  0.00000000000E+00  0.88481714831E+02  0.88481714831E+02  0.00000000000E+00 0.  1.
          1   -1    0    0  501    0  0.00000000000E+00 -0.00000000000E+00 -0.17150510480E+03  0.17150510480E+03  0.00000000000E+00 0. -1.
         25    2    1    2    0    0  0.29165678061E+02  0.23364341337E+02 -0.93013101537E+02  0.16029726454E+03  0.12508895531E+03 0.  0.
         23    2    1    2    0    0 -0.29165678061E+02 -0.23364341337E+02  0.99897115686E+01  0.99689555086E+02  0.91878636435E+02 0.  0.
          5    1    3    3  502    0  0.22310504538E+01 -0.10223351639E+02  0.28856656353E+02  0.30978597786E+02  0.41800000000E+01 0. -1.
         -5    1    3    3    0  502  0.26934627608E+02  0.33587692976E+02 -0.12186975789E+03  0.12931866676E+03  0.41800000000E+01 0. -1.
        -11    1    4    4    0    0 -0.96935877061E+01 -0.21609162623E+02  0.49906945022E+02  0.55241512591E+02  0.00000000000E+00 0.  1.
         11    1    4    4    0    0 -0.19472090355E+02 -0.17551787131E+01 -0.39917233453E+02  0.44448042496E+02  0.00000000000E+00 0. -1.
</event>
<event>
 7    1  0.6493926E-009  0.8698127E+02  0.7561462E-02  0.1310331E+00
          4   -1    0    0  501    0  0.00000000000E+00  0.00000000000E+00  0.19006474815E+02  0.19006474815E+02  0.00000000000E+00 0. -1.
         -4   -1    0    0    0  501 -0.00000000000E+00 -0.00000000000E+00 -0.84475694267E+03  0.84475694267E+03  0.00000000000E+00 0.  1.
         23    2    1    2    0    0 -0.10040641626E+02 -0.32583837678E+02 -0.16898002986E+03  0.19438515187E+03  0.89826587452E+02 0.  0.
          5    1    1    2  502    0 -0.91320128629E+01  0.52337763098E+02 -0.62444212229E+03  0.62671211222E+03  0.41800000000E+01 0. -1.
         -5    1    1    2    0  502  0.19172654489E+02 -0.19753925420E+02 -0.32328315694E+02  0.42666153392E+02  0.41800000000E+01 0. -1.
        -11    1    3    3    0    0 -0.48194028475E+02 -0.23441332902E+02 -0.12148728100E+03  0.13278298051E+03  0.00000000000E+00 0. -1.
         11    1    3    3    0    0  0.38153386849E+02 -0.91425047761E+01 -0.47492748864E+02  0.61602171360E+02  0.00000000000E+00 0.  1.
</event>
<event>
 8    1  0.6493926E-009  0.1628276E+03  0.7561462E-02  0.1185541E+00
         -2   -1    0    0    0  501 -0.00000000000E+00  0.00000000000E+00  0.88857222079E+02  0.88857222079E+02  0.00000000000E+00 0.  1.
          2   -1    0    0  501    0  0.00000000000E+00 -0.00000000000E+00 -0.38619236429E+03  0.38619236429E+03  0.00000000000E+00 0. -1.
         25    2    1    2    0    0  0.42318750187E+02 -0.13574818020E+03 -0.21698705121E+03  0.28801886510E+03  0.12511211458E+03 0.  0.
         23    2    1    2    0    0 -0.42318750187E+02  0.13574818020E+03 -0.80348090998E+02  0.18703072127E+03  0.91138520547E+02 0.  0.
          5    1    3    3  502    0  0.41716549093E+02 -0.14559174165E+03 -0.22728902264E+03  0.27315745993E+03  0.41800000000E+01 0.  1.
         -5    1    3    3    0  502  0.60220109423E+00  0.98435614543E+01  0.10301971426E+02  0.14861405167E+02  0.41800000000E+01 0.  1.
        -11    1    4    4    0    0 -0.65570968874E+02  0.82891228724E+02 -0.28601796546E+02  0.10949233089E+03  0.00000000000E+00 0.  1.
         11    1    4    4    0    0  0.23252218687E+02  0.52856951472E+02 -0.51746294452E+02  0.77538390377E+02  0.00000000000E+00 0. -1.
</event>
<event>
 8    1  0.6493926E-009  0.1049985E+03  0.7561462E-02  0.1270123E+00
          2   -1    0    0  501    0  0.00000000000E+00  0.00000000000E+00  0.77971734459E+03  0.77971734459E+03  0.00000000000E+00 0. -1.
         -2   -1    0    0    0  501 -0.00000000000E+00 -0.00000000000E+00 -0.23482167859E+02  0.23482167859E+02  0.00000000000E+00 0.  1.
         25    2    1    2    0    0  0.28904719097E+02 -0.79066649354E+01  0.63622001926E+03  0.64909226100E+03  0.12508737843E+03 0.  0.
         23    2    1    2    0    0 -0.28904719097E+02  0.79066649354E+01  0.12001515747E+03  0.15410725145E+03  0.91909786152E+02 0.  0.
          5    1    3    3  502    0 -0.43929225224E+02  0.12592753291E+02  0.14577110158E+03  0.15282356075E+03  0.41800000000E+01 0. -1.
         -5    1    3    3    0  502  0.72833944320E+02 -0.20499418227E+02  0.49044891768E+03  0.49626870025E+03  0.41800000000E+01 0. -1.
        -11    1    4    4    0    0  0.14069670093E+02 -0.28643830106E+02  0.76402197867E+02  0.82799278128E+02  0.00000000000E+00 0. -1.
         11    1    4    4    0    0 -0.42974389189E+02  0.36550495041E+02  0.43612959604E+02  0.71307973323E+02  0.00000000000E+00 0.  1.
</event>
<event>
 8    1  0.6493926E-009  0.7055007E+02  0.7561462E-02  0.1358232E+00
         -2   -1    0    0    0  501 -0.00000000000E+00  0.00000000000E+00  0.10994833253E+03  0.10994833253E+03  0.00000000000E+00 0.  1.
          2   -1    0    0  501    0  0.00000000000E+00 -0.00000000000E+00 -0.15609717905E+03  0.15609717905E+03  0.00000000000E+00 0. -1.
         25    2    1    2    0    0  0.73190291151E+01 -0.14248052300E+02  0.11908240631E+02  0.12667025882E+03  0.12508786150E+03 0.  0.
         23    2    1    2    0    0 -0.73190291151E+01  0.14248052300E+02 -0.58057087152E+02  0.13937525277E+03  0.12569113148E+03 0.  0.
          5    1    3    3  502    0 -0.37190231894E+00 -0.44311339171E+02 -0.44002656316E+02  0.62588651154E+02  0.41800000000E+01 0.  1.
         -5    1    3    3    0  502  0.76909314341E+01  0.30063286870E+02  0.55910896947E+02  0.64081607667E+02  0.41800000000E+01 0.  1.
        -11    1    4    4    0    0  0.11442987122E+02 -0.21811106424E+02  0.32110354893E+02  0.40469015420E+02  0.00000000000E+00 0.  1.
         11    1    4    4    0    0 -0.18762016237E+02  0.36059158724E+02 -0.90167442044E+02  0.98906237346E+02  0.00000000000E+00 0. -1.
</event>
<event>
 8    1  0.6493926E-009  0.8620400E+02  0.7561462E-02  0.1312314E+00
         -1   -1    0    0    0  501 -0.00000000000E+00  0.00000000000E+00  0.25599394555E+03  0.25599394555E+03  0.00000000000E+00 0.  1.
          1   -1    0    0  501    0  0.00000000000E+00 -0.00000000000E+00 -0.57253976932E+02  0.57253976932E+02  0.00000000000E+00 0. -1.
         25    2    1    2    0    0 -0.20574261246E+02 -0.42802118691E+02  0.74468140941E+02  0.15313239216E+03  0.12509477976E+03 0.  0.
         23    2    1    2    0    0  0.20574261246E+02  0.42802118691E+02  0.12427182768E+03  0.16011553032E+03  0.89096432616E+02 0.  0.
          5    1    3    3  502    0  0.31558725856E+02  0.39274164130E+01 -0.18227996317E+02  0.36893224677E+02  0.41800000000E+01 0.  1.
         -5    1    3    3    0  502 -0.52132987102E+02 -0.46729535104E+02  0.92696137258E+02  0.11623916749E+03  0.41800000000E+01 0.  1.
        -11    1    4    4    0    0  0.35361442879E+02  0.42658302677E+02  0.13219584102E+03  0.14333842058E+03  0.00000000000E+00 0.  1.
         11    1    4    4    0    0 -0.14787181633E+02  0.14381601409E+00 -0.79240133481E+01  0.16777109740E+02  0.00000000000E+00 0. -1.
</event>
<event>
 8    1  0.6493926E-009  0.9695014E+02  0.7561462E-02  0.1286843E+00
         -1   -1    0    0    0  501 -0.00000000000E+00  0.00000000000E+00  0.27552478595E+03  0.27552478595E+03  0.00000000000E+00 0.  1.
          1   -1    0    0  501    0  0.00000000000E+00 -0.00000000000E+00 -0.58115078924E+02  0.58115078924E+02  0.00000000000E+00 0. -1.
         25    2    1    2    0    0 -0.16765031468E+01  0.21447170050E+02  0.20269999588E+03  0.23916118897E+03  0.12509194303E+03 0.  0.
         23    2    1    2    0    0  0.16765031468E+01 -0.21447170050E+02  0.14709711148E+02  0.94478675911E+02  0.90813285558E+02 0.  0.
          5    1    3    3  502    0 -0.35324375700E+02  0.61961249878E+02  0.91848369466E+02  0.11636409832E+03  0.41800000000E+01 0.  1.
         -5    1    3    3    0  502  0.33647872553E+02 -0.40514079827E+02  0.11085162641E+03  0.12279709064E+03  0.41800000000E+01 0.  1.
        -11    1    4    4    0    0 -0.25674961438E+02 -0.31362031169E+02 -0.23192820493E+02  0.46697832566E+02  0.00000000000E+00 0. -1.
         11    1    4    4    0    0  0.27351464584E+02  0.99148611187E+01  0.37902531642E+02  0.47780843345E+02  0.00000000000E+00 0.  1.
</event>
<event>
 8    1  0.6493926E-009  0.1174667E+03  0.7561462E-02  0.1247336E+00
          1   -1    0    0  501    0  0.00000000000E+00  0.00000000000E+00  0.47578849849E+02  0.47578849849E+02  0.00000000000E+00 0. -1.
         -1   -1    0    0    0  501 -0.00000000000E+00 -0.00000000000E+00 -0.36273569665E+03  0.36273569665E+03  0.00000000000E+00 0.  1.
         25    2    1    2    0    0 -0.64654960722E+02  0.36587855556E+02 -0.17951126316E+03  0.23106468883E+03  0.12509061397E+03 0.  0.
         23    2    1    2    0    0  0.64654960722E+02 -0.36587855556E+02 -0.13564558364E+03  0.17924985766E+03  0.90619269426E+02 0.  0.
          5    1    3    3  502    0  0.10003316778E+02 -0.33479169566E+02 -0.17340403062E+02  0.39231149865E+02  0.41800000000E+01 0.  1.
         -5    1    3    3    0  502 -0.74658277500E+02  0.70067025121E+02 -0.16217086009E+03  0.19183353897E+03  0.41800000000E+01 0.  1.
        -11    1    4    4    0    0  0.75845077900E+02 -0.22170359195E+02 -0.54288766750E+02  0.95871115899E+02  0.00000000000E+00 0. -1.
         11    1    4    4    0    0 -0.11190117178E+02 -0.14417496360E+02 -0.81356816891E+02  0.83378741765E+02  0.00000000000E+00 0.  1.
</event>
<event>
 8    1  0.6493926E-009  0.9445520E+02  0.7561462E-02  0.1292408E+00
          1   -1    0    0  501    0  0.00000000000E+00  0.00000000000E+00  0.64662576460E+03  0.64662576460E+03  0.00000000000E+00 0. -1.
         -1   -1    0    0    0  501 -0.00000000000E+00 -0.00000000000E+00 -0.27676723890E+02  0.27676723890E+02  0.00000000000E+00 0.  1.
         25    2    1    2    0    0  0.53067772404E+02  0.51006582464E+02  0.40594327482E+03  0.43111619939E+03  0.12511344885E+03 0.  0.
         23    2    1    2    0    0 -0.53067772404E+02 -0.51006582464E+02  0.21300576589E+03  0.24318628910E+03  0.91379729598E+02 0.  0.
          5    1    3    3  502    0  0.57924027308E+01 -0.45738806797E+00 -0.83223131908E+01  0.10976995495E+02  0.41800000000E+01 0. -1.
         -5    1    3    3    0  502  0.47275369673E+02  0.51463970532E+02  0.41426558801E+03  0.42013920390E+03  0.41800000000E+01 0. -1.
        -11    1    4    4    0    0  0.22837563801E+02 -0.64575742333E+01  0.81968005098E+02  0.85334684889E+02  0.00000000000E+00 0.  1.
         11    1    4    4    0    0 -0.75905336205E+02 -0.44549008230E+02  0.13103776079E+03  0.15785160421E+03  0.00000000000E+00 0. -1.
</event>
<event>
 8    1  0.6493926E-009  0.1551471E+03  0.7561462E-02  0.1194287E+00
         -2   -1    0    0    0  501 -0.00000000000E+00  0.00000000000E+00  0.17861683843E+03  0.17861683843E+03  0.00000000000E+00 0.  1.
          2   -1    0    0  501    0  0.00000000000E+00 -0.00000000000E+00 -0.16912984037E+03  0.16912984037E+03  0.00000000000E+00 0. -1.
         25    2    1    2    0    0  0.10937312358E+03 -0.56245014389E+02 -0.51498307410E+02  0.18282686313E+03  0.12509038496E+03 0.  0.
         23    2    1    2    0    0 -0.10937312358E+03  0.56245014389E+02  0.60985305470E+02  0.16491981567E+03  0.91396697484E+02 0.  0.
          5    1    3    3  502    0  0.37247112650E+02 -0.88546607454E+02 -0.31775201694E+02  0.10126689950E+03  0.41800000000E+01 0.  1.
         -5    1    3    3    0  502  0.72126010929E+02  0.32301593065E+02 -0.19723105716E+02  0.81559963623E+02  0.41800000000E+01 0.  1.
        -11    1    4    4    0    0 -0.39008029343E+02  0.51323979335E+02  0.68403677128E+02  0.93993830929E+02  0.00000000000E+00 0.  1.
         11    1    4    4    0    0 -0.70365094237E+02  0.49210350539E+01 -0.74183716580E+01  0.70925984738E+02  0.00000000000E+00 0. -1.
</event>
<event>
 8    1  0.6493926E-009  0.1326893E+03  0.7561462E-02  0.1223519E+00
          2   -1    0    0  501    0  0.00000000000E+00  0.00000000000E+00  0.48456878365E+03  0.48456878365E+03  0.00000000000E+00 0. -1.
         -2   -1    0    0    0  501 -0.00000000000E+00 -0.00000000000E+00 -0.47522039586E+02  0.47522039586E+02  0.00000000000E+00 0.  1.
         25    2    1    2    0    0  0.99975553913E+02  0.12796802966E+02  0.17976250627E+03  0.24108303621E+03  0.12509037590E+03 0.  0.
         23    2    1    2    0    0 -0.99975553913E+02 -0.12796802966E+02  0.25728423780E+03  0.29100778703E+03  0.91276960644E+02 0.  0.
          5    1    3    3  502    0  0.10790072314E+02  0.35507156375E+02  0.13225914290E+03  0.13743048095E+03  0.41800000000E+01 0. -1.
         -5    1    3    3    0  502  0.89185481599E+02 -0.22710353410E+02  0.47503363367E+02  0.10365255526E+03  0.41800000000E+01 0. -1.
        -11    1    4    4    0    0 -0.93731207213E+02  0.25473242489E+02  0.17953863378E+03  0.20412874934E+03  0.00000000000E+00 0. -1.
         11    1    4    4    0    0 -0.62443467007E+01 -0.38270045455E+02  0.77745604017E+02  0.86879037683E+02  0.00000000000E+00 0.  1.
</event>
<event>
 8    1  0.6493926E-009  0.1090236E+03  0.7561462E-02  0.1262389E+00
         -1   -1    0    0    0  501 -0.00000000000E+00  0.00000000000E+00  0.41548419652E+02  0.41548419652E+02  0.00000000000E+00 0.  1.
          1   -1    0    0  501    0  0.00000000000E+00 -0.00000000000E+00 -0.50337148250E+03  0.50337148250E+03  0.00000000000E+00 0. -1.
         25    2    1    2    0    0 -0.78641249723E+02 -0.54335632919E+02 -0.23806341890E+03  0.28540956817E+03  0.12509045936E+03 0.  0.
         23    2    1    2    0    0  0.78641249723E+02  0.54335632919E+02 -0.22375964395E+03  0.25951033398E+03  0.90224320557E+02 0.  0.
          5    1    3    3  502    0 -0.25714464641E+01 -0.44875422291E+02 -0.18896397663E+03  0.19428142661E+03  0.41800000000E+01 0.  1.
         -5    1    3    3    0  502 -0.76069803259E+02 -0.94602106283E+01 -0.49099442275E+02  0.91128141563E+02  0.41800000000E+01 0.  1.
        -11    1    4    4    0    0  0.43789790957E+02  0.24032017163E+02 -0.25771931978E+02  0.56207438288E+02  0.00000000000E+00 0.  1.
         11    1    4    4    0    0  0.34851458766E+02  0.30303615756E+02 -0.19798771197E+03  0.20330289569E+03  0.00000000000E+00 0. -1.
</event>
<event>
 8    1  0.6493926E-009  0.1343303E+03  0.7561462E-02  0.1221168E+00
          2   -1    0    0  501    0  0.00000000000E+00  0.00000000000E+00  0.21004111512E+02  0.21004111512E+02  0.00000000000E+00 0. -1.
         -2   -1    0    0    0  501 -0.00000000000E+00 -0.00000000000E+00 -0.10338959522E+04  0.10338959522E+04  0.00000000000E+00 0.  1.
         25    2    1    2    0    0 -0.90364703023E+02 -0.21639638157E+02 -0.67108836743E+03  0.68894243857E+03  0.12509209916E+03 0.  0.
         23    2    1    2    0    0  0.90364703023E+02  0.21639638157E+02 -0.34180347323E+03  0.36595762511E+03  0.91985409570E+02 0.  0.
          5    1    3    3  502    0 -0.12046895735E+03 -0.22021307778E+02 -0.47696491059E+03  0.49245376028E+03  0.41800000000E+01 0. -1.
         -5    1    3    3    0  502  0.30104254329E+02  0.38166962098E+00 -0.19412345684E+03  0.19648867829E+03  0.41800000000E+01 0. -1.
        -11    1    4    4    0    0  0.36016877348E+02 -0.25219747426E+02 -0.55543096487E+02  0.70839866470E+02  0.00000000000E+00 0. -1.
         11    1    4    4    0    0  0.54347825675E+02  0.46859385583E+02 -0.28626037674E+03  0.29511775864E+03  0.00000000000E+00 0.  1.
</event>
<event>
 8    1  0.6493926E-009  0.1121382E+03  0.7561462E-02  0.1256661E+00
         -1   -1    0    0    0  501 -0.00000000000E+00  0.00000000000E+00  0.12043655190E+03  0.12043655190E+03  0.00000000000E+00 0.  1.
          1   -1    0    0  501    0  0.00000000000E+00 -0.00000000000E+00 -0.10792854954E+03  0.10792854954E+03  0.00000000000E+00 0. -1.
         25    2    1    2    0    0  0.25600734318E+02 -0.22812194108E+02  0.12790912607E+02  0.13032512060E+03  0.12508091707E+03 0.  0.
         23    2    1    2    0    0 -0.25600734318E+02  0.22812194108E+02 -0.28291025086E+00  0.98039980836E+02  0.91847504084E+02 0.  0.
          5    1    3    3  502    0 -0.13852965074E+02 -0.67039672452E+02 -0.36401939628E+01  0.68680024285E+02  0.41800000000E+01 0. -1.
         -5    1    3    3    0  502  0.39453699391E+02  0.44227478343E+02  0.16431106570E+02  0.61645096312E+02  0.41800000000E+01 0. -1.
        -11    1    4    4    0    0 -0.53411207226E+02 -0.88465498469E+01 -0.93398866251E+01  0.54938620147E+02  0.00000000000E+00 0. -1.
         11    1    4    4    0    0  0.27810472908E+02  0.31658743955E+02  0.90569763743E+01  0.43101360689E+02  0.00000000000E+00 0.  1.
</event>
<event>
 8    1  0.6493926E-009  0.1605748E+03  0.7561462E-02  0.1188049E+00
          1   -1    0    0  501    0  0.00000000000E+00  0.00000000000E+00  0.68721086290E+03  0.68721086290E+03  0.00000000000E+00 0.  1.
         -1   -1    0    0    0  501 -0.00000000000E+00 -0.00000000000E+00 -0.42306443060E+02  0.42306443060E+02  0.00000000000E+00 0. -1.
         25    2    1    2    0    0 -0.10941656209E+03 -0.57643199999E+02  0.24789315006E+03  0.30396198614E+03  0.12508857905E+03 0.  0.
         23    2    1    2    0    0  0.10941656209E+03  0.57643199999E+02  0.39701126978E+03  0.42555531982E+03  0.90469107034E+02 0.  0.
          5    1    3    3  502    0 -0.94002506345E+02 -0.91243608098E+02  0.22466461250E+03  0.26010291757E+03  0.41800000000E+01 0. -1.
         -5    1    3    3    0  502 -0.15414055743E+02  0.33600408099E+02  0.23228537557E+02  0.43859068572E+02  0.41800000000E+01 0. -1.
        -11    1    4    4    0    0  0.76130939668E+02  0.81802337786E+02  0.30259237757E+03  0.32256734089E+03  0.00000000000E+00 0. -1.
         11    1    4    4    0    0  0.33285622421E+02 -0.24159137787E+02  0.94418892207E+02  0.10298797893E+03  0.00000000000E+00 0.  1.
</event>
<event>
 8    1  0.6493926E-009  0.1426699E+03  0.7561462E-02  0.1209781E+00
          1   -1    0    0  501    0  0.00000000000E+00  0.00000000000E+00  0.10876210869E+03  0.10876210869E+03  0.00000000000E+00 0. -1.
         -1   -1    0    0    0  501 -0.00000000000E+00 -0.00000000000E+00 -0.23375055320E+03  0.23375055320E+03  0.00000000000E+00 0.  1.
         25    2    1    2    0    0 -0.86408564665E+02  0.54102108753E+02 -0.99454949684E+01  0.16167616143E+03  0.12508712998E+03 0.  0.
         23    2    1    2    0    0  0.86408564665E+02 -0.54102108753E+02 -0.11504294954E+03  0.18083650046E+03  0.95254823702E+02 0.  0.
          5    1    3    3  502    0 -0.32626273820E+02  0.79993109905E+02 -0.39330181591E+02  0.95014246088E+02  0.41800000000E+01 0.  1.
         -5    1    3    3    0  502 -0.53782290845E+02 -0.25891001151E+02  0.29384686623E+02  0.66661915342E+02  0.41800000000E+01 0.  1.
        -11    1    4    4    0    0  0.59426124724E+02  0.17946145650E+02 -0.59114774437E+02  0.85720971764E+02  0.00000000000E+00 0.  1.
         11    1    4    4    0    0  0.26982439941E+02 -0.72048254403E+02 -0.55928175107E+02  0.95115528693E+02  0.00000000000E+00 0. -1.
</event>
<event>
 7    1  0.6493926E-009  0.1296506E+03  0.7561462E-02  0.1227975E+00
          2   -1    0    0  501    0  0.00000000000E+00  0.00000000000E+00  0.24211748500E+03  0.24211748500E+03  0.00000000000E+00 0. -1.
         -2   -1    0    0    0  501 -0.00000000000E+00 -0.00000000000E+00 -0.97439351724E+02  0.97439351724E+02  0.00000000000E+00 0.  1.
         25    2    1    2    0    0 -0.64967666789E+02 -0.81374330725E+01  0.23299098636E+02  0.14309996984E+03  0.12509091824E+03 0.  0.
          5    1    3    3  502    0 -0.19585250728E+02  0.38371285336E+02 -0.35027706917E+02  0.55680788754E+02  0.41800000000E+01 0.  1.
         -5    1    3    3    0  502 -0.45382416061E+02 -0.46508718409E+02  0.58326805553E+02  0.87419181085E+02  0.41800000000E+01 0.  1.
        -11    1    1    2    0    0  0.26917117749E+02  0.71830860017E+02  0.82655022943E+02  0.11276549338E+03  0.00000000000E+00 0.  1.
         11    1    1    2    0    0  0.38050549040E+02 -0.63693426944E+02  0.38724011698E+02  0.83691373510E+02  0.00000000000E+00 0. -1.
</event>
<event>
 8    1  0.6493926E-009  0.1323656E+03  0.7561462E-02  0.1223987E+00
         -1   -1    0    0    0  501 -0.00000000000E+00  0.00000000000E+00  0.59648592576E+03  0.59648592576E+03  0.00000000000E+00 0.  1.
          1   -1    0    0  501    0  0.00000000000E+00 -0.00000000000E+00 -0.46871784051E+02  0.46871784051E+02  0.00000000000E+00 0. -1.
         25    2    1    2    0    0 -0.89424297288E+02 -0.83201840398E+02  0.23227255393E+03  0.29072500107E+03  0.12510489896E+03 0.  0.
         23    2    1    2    0    0  0.89424297288E+02  0.83201840398E+02  0.31734158778E+03  0.35263270874E+03  0.93407134374E+02 0.  0.
          5    1    3    3  502    0 -0.42316759139E+01  0.12569051558E+02 -0.96401451160E+01  0.16920193142E+02  0.41800000000E+01 0. -1.
         -5    1    3    3    0  502 -0.85192621375E+02 -0.95770891956E+02  0.24191269905E+03  0.27380480793E+03  0.41800000000E+01 0. -1.
        -11    1    4    4    0    0  0.91114058974E+01  0.46173894913E+01 -0.49243010832E+01  0.11339609530E+02  0.00000000000E+00 0. -1.
         11    1    4    4    0    0  0.80312891391E+02  0.78584450907E+02  0.32226588886E+03  0.34129309921E+03  0.00000000000E+00 0.  1.
</event>
<event>
 8    1  0.6493926E-009  0.1081400E+03  0.7561462E-02  0.1264054E+00
          1   -1    0    0  501    0  0.00000000000E+00  0.00000000000E+00  0.47585181636E+03  0.47585181636E+03  0.00000000000E+00 0. -1.
         -1   -1    0    0    0  501 -0.00000000000E+00 -0.00000000000E+00 -0.27495808097E+02  0.27495808097E+02  0.00000000000E+00 0.  1.
         25    2    1    2    0    0  0.61052307450E+01 -0.34323071048E+02  0.23374171161E+03  0.26739175554E+03  0.12509123125E+03 0.  0.
         23    2    1    2    0    0 -0.61052307450E+01  0.34323071048E+02  0.21461429665E+03  0.23595586891E+03  0.91654398145E+02 0.  0.
          5    1    3    3  502    0 -0.10381844642E+02  0.43241229989E+02  0.12501840924E+03  0.13275790642E+03  0.41800000000E+01 0. -1.
         -5    1    3    3    0  502  0.16487075387E+02 -0.77564301037E+02  0.10872330237E+03  0.13463384912E+03  0.41800000000E+01 0. -1.
        -11    1    4    4    0    0  0.27096952601E+02  0.48931067682E+02  0.88198538624E+02  0.10443886461E+03  0.00000000000E+00 0.  1.
         11    1    4    4    0    0 -0.33202183346E+02 -0.14607996635E+02  0.12641575802E+03  0.13151700430E+03  0.00000000000E+00 0. -1.
</event>
<event>
 8    1  0.6493926E-009  0.1363057E+03  0.7561462E-02  0.1218388E+00
          2   -1    0    0  501    0  0.00000000000E+00  0.00000000000E+00  0.28899897111E+03  0.28899897111E+03  0.00000000000E+00 0. -1.
         -2   -1    0    0    0  501 -0.00000000000E+00 -0.00000000000E+00 -0.13187261324E+03  0.13187261324E+03  0.00000000000E+00 0.  1.
         25    2    1    2    0    0 -0.76078738139E+02 -0.75695429164E+02  0.22555445292E+03  0.27935629309E+03  0.12508938750E+03 0.  0.
         23    2    1    2    0    0  0.76078738139E+02  0.75695429164E+02 -0.68428095054E+02  0.14151529125E+03  0.61857910334E+02 0.  0.
          5    1    3    3  502    0 -0.10625928708E+03 -0.80032339694E+02  0.17064419010E+03  0.21640961971E+03  0.41800000000E+01 0. -1.
         -5    1    3    3    0  502  0.30180548936E+02  0.43369105303E+01  0.54910262824E+02  0.62946673387E+02  0.41800000000E+01 0. -1.
        -11    1    4    4    0    0  0.38410701850E+02  0.50405488297E+02 -0.50529013513E+01  0.63573792392E+02  0.00000000000E+00 0. -1.
         11    1    4    4    0    0  0.37668036289E+02  0.25289940867E+02 -0.63375193703E+02  0.77941498856E+02  0.00000000000E+00 0.  1.
</event>
<event>
 8    1  0.6493926E-009  0.6305709E+02  0.7561462E-02  0.1385433E+00
          1   -1    0    0  501    0  0.00000000000E+00  0.00000000000E+00  0.15507823882E+02  0.15507823882E+02  0.00000000000E+00 0. -1.
         -1   -1    0    0    0  501 -0.00000000000E+00 -0.00000000000E+00 -0.79707862713E+03  0.79707862713E+03  0.00000000000E+00 0.  1.
         25    2    1    2    0    0  0.10961548295E+02  0.94161193845E+01 -0.53344381417E+03  0.54810442267E+03  0.12508931379E+03 0.  0.
         23    2    1    2    0    0 -0.10961548295E+02 -0.94161193845E+01 -0.24812698907E+03  0.26448202834E+03  0.90415273950E+02 0.  0.
          5    1    3    3  502    0  0.27547608695E+02 -0.12598937287E+02 -0.51205160321E+03  0.51296385908E+03  0.41800000000E+01 0. -1.
         -5    1    3    3    0  502 -0.16586060400E+02  0.22015056672E+02 -0.21392210961E+02  0.35140563594E+02  0.41800000000E+01 0. -1.
        -11    1    4    4    0    0 -0.38790145794E+02 -0.19289667162E+01 -0.22266524508E+03  0.22602700655E+03  0.00000000000E+00 0.  1.
         11    1    4    4    0    0  0.27828597499E+02 -0.74871526683E+01 -0.25461743995E+02  0.38455021793E+02  0.00000000000E+00 0. -1.
</event>
<event>
 8    1  0.6493926E-009  0.1016842E+03  0.7561462E-02  0.1276794E+00
          1   -1    0    0  501    0  0.00000000000E+00  0.00000000000E+00  0.42255591422E+02  0.42255591422E+02  0.00000000000E+00 0. -1.
         -1   -1    0    0    0  501 -0.00000000000E+00 -0.00000000000E+00 -0.37950738844E+03  0.37950738844E+03  0.00000000000E+00 0.  1.
         25    2    1    2    0    0 -0.41734493294E+02 -0.20471507736E+02 -0.26409960432E+03  0.29590731298E+03  0.12510669970E+03 0.  0.
         23    2    1    2    0    0  0.41734493294E+02  0.20471507736E+02 -0.73152192698E+02  0.12585566689E+03  0.91255438366E+02 0.  0.
          5    1    3    3  502    0  0.38271303303E+02  0.17583148581E+02 -0.11345121260E+03  0.12108885089E+03  0.41800000000E+01 0. -1.
         -5    1    3    3    0  502 -0.80005796597E+02 -0.38054656317E+02 -0.15064839173E+03  0.17481846209E+03  0.41800000000E+01 0. -1.
        -11    1    4    4    0    0  0.55555773827E+02  0.15748590621E+02 -0.87853744418E+02  0.10513202424E+03  0.00000000000E+00 0.  1.
         11    1    4    4    0    0 -0.13821280533E+02  0.47229171144E+01  0.14701551720E+02  0.20723642648E+02  0.00000000000E+00 0. -1.
</event>
<event>
 8    1  0.6493926E-009  0.8251868E+02  0.7561462E-02  0.1322052E+00
          1   -1    0    0  501    0  0.00000000000E+00  0.00000000000E+00  0.10832713676E+04  0.10832713676E+04  0.00000000000E+00 0. -1.
         -1   -1    0    0    0  501 -0.00000000000E+00 -0.00000000000E+00 -0.12767682501E+02  0.12767682501E+02  0.00000000000E+00 0.  1.
         25    2    1    2    0    0  0.44265684499E+00 -0.42140029940E+02  0.61805083155E+03  0.63198888865E+03  0.12508855638E+03 0.  0.
         23    2    1    2    0    0 -0.44265684499E+00  0.42140029940E+02  0.45245285353E+03  0.46405016143E+03  0.94090326722E+02 0.  0.
          5    1    3    3  502    0  0.23319837007E+02 -0.15456511046E+02  0.57738033139E+03  0.57807286566E+03  0.41800000000E+01 0. -1.
         -5    1    3    3    0  502 -0.22877180162E+02 -0.26683518894E+02  0.40670500154E+02  0.53916022994E+02  0.41800000000E+01 0. -1.
        -11    1    4    4    0    0  0.29462912392E+02  0.59771085738E+02  0.25469545471E+03  0.26326872307E+03  0.00000000000E+00 0. -1.
         11    1    4    4    0    0 -0.29905569237E+02 -0.17631055798E+02  0.19775739883E+03  0.20078143836E+03  0.00000000000E+00 0.  1.
</event>
<event>
 8    1  0.6493926E-009  0.9097005E+02  0.7561462E-02  0.1300519E+00
          1   -1    0    0  501    0  0.00000000000E+00  0.00000000000E+00  0.29781530452E+03  0.29781530452E+03  0.00000000000E+00 0. -1.
         -1   -1    0    0    0  501 -0.00000000000E+00 -0.00000000000E+00 -0.53613393847E+02  0.53613393847E+02  0.00000000000E+00 0.  1.
         25    2    1    2    0    0 -0.64694485907E+01 -0.31322513243E+02  0.45867944221E+02  0.13701252005E+03  0.12508240781E+03 0.  0.
         23    2    1    2    0    0  0.64694485907E+01  0.31322513243E+02  0.19833396645E+03  0.21441617831E+03  0.74933181395E+02 0.  0.
          5    1    3    3  502    0  0.20141984338E+02 -0.63015912122E+02 -0.10337670041E+02  0.67089824382E+02  0.41800000000E+01 0. -1.
         -5    1    3    3    0  502 -0.26611432928E+02  0.31693398880E+02  0.56205614263E+02  0.69922695670E+02  0.41800000000E+01 0. -1.
        -11    1    4    4    0    0 -0.30273548239E+02  0.16064323713E+02  0.13765584052E+03  0.14185795942E+03  0.00000000000E+00 0. -1.
         11    1    4    4    0    0  0.36742996830E+02  0.15258189529E+02  0.60678125926E+02  0.72558218898E+02  0.00000000000E+00 0.  1.
</event>
<event>
 8    1  0.6493926E-009  0.1415003E+03  0.7561462E-02  0.1211324E+00
          2   -1    0    0  501    0  0.00000000000E+00  0.00000000000E+00  0.20079450910E+03  0.20079450910E+03  0.00000000000E+00 0.  1.
         -2   -1    0    0    0  501 -0.00000000000E+00 -0.00000000000E+00 -0.11599316325E+03  0.11599316325E+03  0.00000000000E+00 0. -1.
         25    2    1    2    0    0  0.10037444246E+03 -0.35638415807E+02  0.46267302588E+02  0.17067948051E+03  0.12508275819E+03 0.  0.
         23    2    1    2    0    0 -0.10037444246E+03  0.35638415807E+02  0.38534043257E+02  0.14610819184E+03  0.92290876321E+02 0.  0.
          5    1    3    3  502    0  0.10082852066E+03 -0.71377043951E+02  0.17980097826E+02  0.12490728281E+03  0.41800000000E+01 0.  1.
         -5    1    3    3    0  502 -0.45407819553E+00  0.35738628144E+02  0.28287204762E+02  0.45772197695E+02  0.41800000000E+01 0.  1.
        -11    1    4    4    0    0 -0.43427449971E+01 -0.14457832583E+02  0.34570330524E+02  0.37722620663E+02  0.00000000000E+00 0.  1.
         11    1    4    4    0    0 -0.96031697464E+02  0.50096248391E+02  0.39637127330E+01  0.10838557118E+03  0.00000000000E+00 0. -1.
</event>
<event>
 8    1  0.6493926E-009  0.9518269E+02  0.7561462E-02  0.1290765E+00
         -2   -1    0    0    0  501 -0.00000000000E+00  0.00000000000E+00  0.11203056393E+03  0.11203056393E+03  0.00000000000E+00 0.  1.
          2   -1    0    0  501    0  0.00000000000E+00 -0.00000000000E+00 -0.10282154542E+03  0.10282154542E+03  0.00000000000E+00 0. -1.
         25    2    1    2    0    0  0.15642084407E+02 -0.17809723349E+02  0.25830729784E+02  0.12990751479E+03  0.12508746838E+03 0.  0.
         23    2    1    2    0    0 -0.15642084407E+02  0.17809723349E+02 -0.16621711271E+02  0.84944594562E+02  0.79858886853E+02 0.  0.
          5    1    3    3  502    0  0.62833813043E+02 -0.12070058489E+02  0.45152111027E+02  0.78421680061E+02  0.41800000000E+01 0. -1.
         -5    1    3    3    0  502 -0.47191728636E+02 -0.57396648600E+01 -0.19321381242E+02  0.51485834726E+02  0.41800000000E+01 0. -1.
        -11    1    4    4    0    0  0.74803729252E+01  0.43396673875E+02  0.48764065093E+01  0.44305830575E+02  0.00000000000E+00 0.  1.
         11    1    4    4    0    0 -0.23122457333E+02 -0.25586950526E+02 -0.21498117781E+02  0.40638763987E+02  0.00000000000E+00 0. -1.
</event>
<event>
 8    1  0.6493926E-009  0.9983189E+02  0.7561462E-02  0.1280650E+00
         -3   -1    0    0    0  501 -0.00000000000E+00  0.00000000000E+00  0.51340149349E+02  0.51340149349E+02  0.00000000000E+00 0.  1.
          3   -1    0    0  501    0  0.00000000000E+00 -0.00000000000E+00 -0.22772193421E+03  0.22772193421E+03  0.00000000000E+00 0. -1.
         25    2    1    2    0    0 -0.84367304124E+00  0.67403238328E+01 -0.11442401538E+03  0.16966791467E+03  0.12509277447E+03 0.  0.
         23    2    1    2    0    0  0.84367304124E+00 -0.67403238328E+01 -0.61957769475E+02  0.10939416888E+03  0.89900919001E+02 0.  0.
          5    1    3    3  502    0 -0.60290812484E+02 -0.11955967027E+01 -0.80398110976E+02  0.10058697813E+03  0.41800000000E+01 0. -1.
         -5    1    3    3    0  502  0.59447139443E+02  0.79359205354E+01 -0.34025904406E+02  0.69080936541E+02  0.41800000000E+01 0. -1.
        -11    1    4    4    0    0 -0.33463529862E+01  0.35997998679E+02 -0.27567911503E+01  0.36258156112E+02  0.00000000000E+00 0.  1.
         11    1    4    4    0    0  0.41900260274E+01 -0.42738322511E+02 -0.59200978325E+02  0.73136012769E+02  0.00000000000E+00 0. -1.
</event>
<event>
 8    1  0.6493926E-009  0.8158200E+02  0.7561462E-02  0.1324621E+00
         -2   -1    0    0    0  501 -0.00000000000E+00  0.00000000000E+00  0.10129545588E+03  0.10129545588E+03  0.00000000000E+00 0. -1.
          2   -1    0    0  501    0  0.00000000000E+00 -0.00000000000E+00 -0.13370684903E+03  0.13370684903E+03  0.00000000000E+00 0.  1.
         25    2    1    2    0    0 -0.13637728167E+01  0.26835501662E+02  0.15231113524E+02  0.12878855059E+03  0.12502999607E+03 0.  0.
         23    2    1    2    0    0  0.13637728167E+01 -0.26835501662E+02 -0.47642506677E+02  0.10621375433E+03  0.91046961182E+02 0.  0.
          5    1    3    3  502    0  0.22567112548E+02  0.53520376552E+02  0.51416719592E+02  0.77684340305E+02  0.41800000000E+01 0. -1.
         -5    1    3    3    0  502 -0.23930885365E+02 -0.26684874890E+02 -0.36185606067E+02  0.51104210284E+02  0.41800000000E+01 0. -1.
        -11    1    4    4    0    0  0.22926242345E+02  0.10897325921E+02  0.15364690422E+02  0.29672175721E+02  0.00000000000E+00 0. -1.
         11    1    4    4    0    0 -0.21562469528E+02 -0.37732827583E+02 -0.63007197098E+02  0.76541578608E+02  0.00000000000E+00 0.  1.
</event>
<event>
 8    1  0.6493926E-009  0.8591629E+02  0.7561462E-02  0.1313054E+00
         -2   -1    0    0    0  501 -0.00000000000E+00  0.00000000000E+00  0.88596652813E+02  0.88596652813E+02  0.00000000000E+00 0. -1.
          2   -1    0    0  501    0  0.00000000000E+00 -0.00000000000E+00 -0.16482149327E+03  0.16482149327E+03  0.00000000000E+00 0.  1.
         25    2    1    2    0    0  0.46812774157E+00 -0.54584422123E+02 -0.41817441500E+02  0.14275351933E+03  0.12510072176E+03 0.  0.
         23    2    1    2    0    0 -0.46812774157E+00  0.54584422123E+02 -0.34407398954E+02  0.11066462675E+03  0.89906130097E+02 0.  0.
          5    1    3    3  502    0 -0.74920743454E+00 -0.80840821688E+02 -0.67773680353E+02  0.10557719409E+03  0.41800000000E+01 0. -1.
         -5    1    3    3    0  502  0.12173351761E+01  0.26256399565E+02  0.25956238853E+02  0.37176325241E+02  0.41800000000E+01 0. -1.
        -11    1    4    4    0    0 -0.16237291877E+02  0.38287212070E+02 -0.62182345665E+02  0.74807782804E+02  0.00000000000E+00 0.  1.
         11    1    4    4    0    0  0.15769164135E+02  0.16297210053E+02  0.27774946711E+02  0.35856843947E+02  0.00000000000E+00 0. -1.
</event>
<event>
 8    1  0.6493926E-009  0.1256219E+03  0.7561462E-02  0.1234101E+00
         -1   -1    0    0    0  501 -0.00000000000E+00  0.00000000000E+00  0.30277993918E+02  0.30277993918E+02  0.00000000000E+00 0.  1.
          1   -1    0    0  501    0  0.00000000000E+00 -0.00000000000E+00 -0.63531642505E+03  0.63531642505E+03  0.00000000000E+00 0. -1.
         25    2    1    2    0    0 -0.59609719807E+02  0.57801621478E+02 -0.28643944591E+03  0.32340501392E+03  0.12509556633E+03 0.  0.
         23    2    1    2    0    0  0.59609719807E+02 -0.57801621478E+02 -0.31859898523E+03  0.34218940505E+03  0.93241243019E+02 0.  0.
          5    1    3    3  502    0 -0.67490302389E+02  0.92295337684E+02 -0.22335409807E+03  0.25095397148E+03  0.41800000000E+01 0. -1.
         -5    1    3    3    0  502  0.78805825821E+01 -0.34493716205E+02 -0.63085347835E+02  0.72451042442E+02  0.41800000000E+01 0. -1.
        -11    1    4    4    0    0 -0.54951467452E+01 -0.29844757762E+02 -0.22623939303E+02  0.37851668830E+02  0.00000000000E+00 0.  1.
         11    1    4    4    0    0  0.65104866552E+02 -0.27956863716E+02 -0.29597504592E+03  0.30433773622E+03  0.00000000000E+00 0. -1.
</event>
<event>
 8    1  0.6493926E-009  0.1048012E+03  0.7561462E-02  0.1270512E+00
         -1   -1    0    0    0  501 -0.00000000000E+00  0.00000000000E+00  0.33176424751E+02  0.33176424751E+02  0.00000000000E+00 0.  1.
          1   -1    0    0  501    0  0.00000000000E+00 -0.00000000000E+00 -0.38683629733E+03  0.38683629733E+03  0.00000000000E+00 0. -1.
         25    2    1    2    0    0  0.43180299125E+01  0.33152454155E+02 -0.22156215740E+03  0.25662229847E+03  0.12508990319E+03 0.  0.
         23    2    1    2    0    0 -0.43180299125E+01 -0.33152454155E+02 -0.13209771517E+03  0.16339042361E+03  0.90160376961E+02 0.  0.
          5    1    3    3  502    0  0.46592088810E+02 -0.15341956402E+02 -0.16029407312E+03  0.16768381151E+03  0.41800000000E+01 0.  1.
         -5    1    3    3    0  502 -0.42274058897E+02  0.48494410557E+02 -0.61268084287E+02  0.88938486962E+02  0.41800000000E+01 0.  1.
        -11    1    4    4    0    0 -0.34748468934E+02 -0.50176262919E+02 -0.89716738345E+02  0.10850901618E+03  0.00000000000E+00 0. -1.
         11    1    4    4    0    0  0.30430439022E+02  0.17023808764E+02 -0.42380976828E+02  0.54881407423E+02  0.00000000000E+00 0.  1.
</event>
<event>
 7    1  0.6493926E-009  0.1717075E+03  0.7561462E-02  0.1176079E+00
         -1   -1    0    0    0  501 -0.00000000000E+00  0.00000000000E+00  0.15466220773E+03  0.15466220773E+03  0.00000000000E+00 0.  1.
          1   -1    0    0  501    0  0.00000000000E+00 -0.00000000000E+00 -0.27054987859E+03  0.27054987859E+03  0.00000000000E+00 0. -1.
         23    2    1    2    0    0 -0.14885835502E+03 -0.27217968387E+02 -0.14209325436E+03  0.22737584842E+03  0.92788231174E+02 0.  0.
          5    1    1    2  502    0  0.10251920882E+03 -0.39859796753E+02 -0.56177945889E+01  0.11021807289E+03  0.41800000000E+01 0. -1.
         -5    1    1    2    0  502  0.46339146197E+02  0.67077765139E+02  0.31823378097E+02  0.87618165011E+02  0.41800000000E+01 0. -1.
        -11    1    3    3    0    0 -0.12744759954E+03 -0.27087845821E+02 -0.61671636038E+02  0.14415281028E+03  0.00000000000E+00 0.  1.
         11    1    3    3    0    0 -0.21410755478E+02 -0.13012256598E+00 -0.80421618327E+02  0.83223038134E+02  0.00000000000E+00 0. -1.
</event>
<event>
 8    1  0.6493926E-009  0.2731630E+03  0.7561462E-02  0.1099483E+00
         -1   -1    0    0    0  501 -0.00000000000E+00  0.00000000000E+00  0.22336866844E+03  0.22336866844E+03  0.00000000000E+00 0.  1.
          1   -1    0    0  501    0  0.00000000000E+00 -0.00000000000E+00 -0.34228948710E+03  0.34228948710E+03  0.00000000000E+00 0. -1.
         25    2    1    2    0    0 -0.91980837484E+01  0.25313481765E+03 -0.79143441561E+02  0.29338186038E+03  0.12508953195E+03 0.  0.
         23    2    1    2    0    0  0.91980837484E+01 -0.25313481765E+03 -0.39777377094E+02  0.27227629516E+03  0.91598583650E+02 0.  0.
          5    1    3    3  502    0  0.51893599977E+02  0.12410221392E+03 -0.66172920735E+02  0.14996877360E+03  0.41800000000E+01 0.  1.
         -5    1    3    3    0  502 -0.61091683726E+02  0.12903260374E+03 -0.12970520826E+02  0.14341308677E+03  0.41800000000E+01 0.  1.
        -11    1    4    4    0    0 -0.31016602857E+02 -0.19943278722E+03 -0.36512982944E+02  0.20510647038E+03  0.00000000000E+00 0. -1.
         11    1    4    4    0    0  0.40214686606E+02 -0.53702030438E+02 -0.32643941498E+01  0.67169824781E+02  0.00000000000E+00 0.  1.
</event>
<event>
 8    1  0.6493926E-009  0.1099995E+03  0.7561462E-02  0.1260571E+00
         -2   -1    0    0    0  501 -0.00000000000E+00  0.00000000000E+00  0.10105986608E+02  0.10105986608E+02  0.00000000000E+00 0.  1.
          2   -1    0    0  501    0  0.00000000000E+00 -0.00000000000E+00 -0.16331043101E+04  0.16331043101E+04  0.00000000000E+00 0. -1.
         25    2    1    2    0    0  0.19660348817E+02  0.25523168815E+02 -0.13057065434E+04  0.13120804957E+04  0.12509072039E+03 0.  0.
         23    2    1    2    0    0 -0.19660348817E+02 -0.25523168815E+02 -0.31729178013E+03  0.33112980102E+03  0.89078111354E+02 0.  0.
          5    1    3    3  502    0  0.63054718642E+02  0.46009307666E+02 -0.66815965014E+03  0.67271654090E+03  0.41800000000E+01 0.  1.
         -5    1    3    3    0  502 -0.43394369825E+02 -0.20486138851E+02 -0.63754689324E+03  0.63936395480E+03  0.41800000000E+01 0.  1.
        -11    1    4    4    0    0 -0.48501663249E+02  0.83056410186E+01 -0.14181428606E+03  0.15010891626E+03  0.00000000000E+00 0.  1.
         11    1    4    4    0    0  0.28841314432E+02 -0.33828809833E+02 -0.17547749407E+03  0.18102088476E+03  0.00000000000E+00 0. -1.
</event>
<event>
 8    1  0.6493926E-009  0.8439721E+02  0.7561462E-02  0.1317016E+00
         -1   -1    0    0    0  501 -0.00000000000E+00  0.00000000000E+00  0.10175902224E+03  0.10175902224E+03  0.00000000000E+00 0.  1.
          1   -1    0    0  501    0  0.00000000000E+00 -0.00000000000E+00 -0.17028887274E+03  0.17028887274E+03  0.00000000000E+00 0. -1.
         25    2    1    2    0    0  0.16995975679E+02 -0.42988157117E+02 -0.96354664624E+02  0.16452400718E+03  0.12508829962E+03 0.  0.
         23    2    1    2    0    0 -0.16995975679E+02  0.42988157117E+02  0.27824814124E+02  0.10752388780E+03  0.93007103629E+02 0.  0.
          5    1    3    3  502    0  0.35725027436E+02 -0.10508923051E+02  0.19810483109E+02  0.42386822127E+02  0.41800000000E+01 0. -1.
         -5    1    3    3    0  502 -0.18729051757E+02 -0.32479234066E+02 -0.11616514773E+03  0.12213718505E+03  0.41800000000E+01 0. -1.
        -11    1    4    4    0    0  0.32239259592E+02  0.26315089996E+02  0.35848025281E+02  0.54926630491E+02  0.00000000000E+00 0.  1.
         11    1    4    4    0    0 -0.49235235271E+02  0.16673067121E+02 -0.80232111571E+01  0.52597257311E+02  0.00000000000E+00 0. -1.
</event>
<event>
 8    1  0.6493926E-009  0.1470689E+03  0.7561462E-02  0.1204122E+00
          2   -1    0    0  501    0  0.00000000000E+00  0.00000000000E+00  0.17145580665E+03  0.17145580665E+03  0.00000000000E+00 0. -1.
         -2   -1    0    0    0  501 -0.00000000000E+00 -0.00000000000E+00 -0.17334159562E+03  0.17334159562E+03  0.00000000000E+00 0.  1.
         25    2    1    2    0    0  0.98774302404E+02 -0.68699892947E+02  0.54883074135E+02  0.18203239378E+03  0.12509037713E+03 0.  0.
         23    2    1    2    0    0 -0.98774302404E+02  0.68699892947E+02 -0.56768863100E+02  0.16276500850E+03  0.93774762421E+02 0.  0.
          5    1    3    3  502    0  0.14331620364E+02 -0.84305689651E+02  0.13711266270E+02  0.86708222635E+02  0.41800000000E+01 0. -1.
         -5    1    3    3    0  502  0.84442682040E+02  0.15605796704E+02  0.41171807864E+02  0.95324171141E+02  0.41800000000E+01 0. -1.
        -11    1    4    4    0    0 -0.53192404722E+02  0.22845782585E+02 -0.75789587557E+02  0.95369928616E+02  0.00000000000E+00 0.  1.
         11    1    4    4    0    0 -0.45581897682E+02  0.45854110362E+02  0.19020724457E+02  0.67395079882E+02  0.00000000000E+00 0. -1.
</event>
<event>
 8    1  0.6493926E-009  0.1152747E+03  0.7561462E-02  0.1251102E+00
          2   -1    0    0  501    0  0.00000000000E+00  0.00000000000E+00  0.23041513476E+04  0.23041513476E+04  0.00000000000E+00 0. -1.
         -2   -1    0    0    0  501 -0.00000000000E+00 -0.00000000000E+00 -0.98972503471E+01  0.98972503471E+01  0.00000000000E+00 0.  1.
         25    2    1    2    0    0 -0.41791248775E+02 -0.54998081250E+02  0.18350266057E+04  0.18405819964E+04  0.12509254449E+03 0.  0.
         23    2    1    2    0    0  0.41791248775E+02  0.54998081250E+02  0.45922749165E+03  0.47346660157E+03  0.92246605920E+02 0.  0.
          5    1    3    3  502    0 -0.56409802423E+02  0.17182704561E+01  0.14499749292E+04  0.14510788352E+04  0.41800000000E+01 0.  1.
         -5    1    3    3    0  502  0.14618553648E+02 -0.56716351706E+02  0.38505167641E+03  0.38950316118E+03  0.41800000000E+01 0.  1.
        -11    1    4    4    0    0  0.24895850066E+02  0.80716245666E+02  0.33790768703E+03  0.34830521188E+03  0.00000000000E+00 0. -1.
         11    1    4    4    0    0  0.16895398709E+02 -0.25718164417E+02  0.12131980462E+03  0.12516138970E+03  0.00000000000E+00 0.  1.
</event>
<event>
 8    1  0.6493926E-009  0.1224095E+03  0.7561462E-02  0.1239174E+00
         -2   -1    0    0    0  501 -0.00000000000E+00  0.00000000000E+00  0.14989299594E+02  0.14989299594E+02  0.00000000000E+00 0.  1.
          2   -1    0    0  501    0  0.00000000000E+00 -0.00000000000E+00 -0.13345105574E+04  0.13345105574E+04  0.00000000000E+00 0. -1.
         25    2    1    2    0    0 -0.35436998165E+02  0.80301185467E+02 -0.80186210111E+03  0.81629455854E+03  0.12509962384E+03 0.  0.
         23    2    1    2    0    0  0.35436998165E+02 -0.80301185467E+02 -0.51765915665E+03  0.53320529840E+03  0.92913005319E+02 0.  0.
          5    1    3    3  502    0 -0.35605011373E+02 -0.59882901438E+01 -0.65724259443E+02  0.75104774369E+02  0.41800000000E+01 0. -1.
         -5    1    3    3    0  502  0.16801320773E+00  0.86289475611E+02 -0.73613784167E+03  0.74118978418E+03  0.41800000000E+01 0. -1.
        -11    1    4    4    0    0 -0.80783106743E+01 -0.78093886344E+02 -0.40235783381E+03  0.40994602159E+03  0.00000000000E+00 0.  1.
         11    1    4    4    0    0  0.43515308840E+02 -0.22072991234E+01 -0.11530132284E+03  0.12325927682E+03  0.00000000000E+00 0. -1.
</event>
<event>
 8    1  0.6493926E-009  0.1141196E+03  0.7561462E-02  0.1253126E+00
         -1   -1    0    0    0  501 -0.00000000000E+00  0.00000000000E+00  0.19323381665E+02  0.19323381665E+02  0.00000000000E+00 0.  1.
          1   -1    0    0  501    0  0.00000000000E+00 -0.00000000000E+00 -0.99081287376E+03  0.99081287376E+03  0.00000000000E+00 0. -1.
         25    2    1    2    0    0  0.71493668889E+02  0.14460102667E+02 -0.70892572369E+03  0.72356233733E+03  0.12508531102E+03 0.  0.
         23    2    1    2    0    0 -0.71493668889E+02 -0.14460102667E+02 -0.26256376840E+03  0.28657391809E+03  0.88681671120E+02 0.  0.
          5    1    3    3  502    0 -0.24813193558E+02  0.94832664935E+01 -0.43273721826E+02  0.50948153241E+02  0.41800000000E+01 0.  1.
         -5    1    3    3    0  502  0.96306862447E+02  0.49768361740E+01 -0.66565200187E+03  0.67261418409E+03  0.41800000000E+01 0.  1.
        -11    1    4    4    0    0 -0.65075293668E+02  0.21314522107E+02 -0.10866367570E+03  0.12844024725E+03  0.00000000000E+00 0.  1.
         11    1    4    4    0    0 -0.64183752213E+01 -0.35774624775E+02 -0.15390009270E+03  0.15813367083E+03  0.00000000000E+00 0. -1.
</event>
<event>
 8    1  0.6493926E-009  0.1279904E+03  0.7561462E-02  0.1230468E+00
         -2   -1    0    0    0  501 -0.00000000000E+00  0.00000000000E+00  0.34529072944E+02  0.34529072944E+02  0.00000000000E+00 0.  1.
          2   -1    0    0  501    0  0.00000000000E+00 -0.00000000000E+00 -0.65786326883E+03  0.65786326883E+03  0.00000000000E+00 0. -1.
         25    2    1    2    0    0 -0.12821868898E+02 -0.93151607741E+02 -0.41156243339E+03  0.44031474105E+03  0.12510720307E+03 0.  0.
         23    2    1    2    0    0  0.12821868898E+02  0.93151607741E+02 -0.21177176250E+03  0.25207760073E+03  0.99268399052E+02 0.  0.
          5    1    3    3  502    0  0.32554027751E+02 -0.93937589768E+02 -0.34902614650E+03  0.36293354603E+03  0.41800000000E+01 0.  1.
         -5    1    3    3    0  502 -0.45375896649E+02  0.78598202742E+00 -0.62536286894E+02  0.77381195021E+02  0.41800000000E+01 0.  1.
        -11    1    4    4    0    0  0.23959019473E+02  0.83538003113E+01 -0.18957765133E+01  0.25444342442E+02  0.00000000000E+00 0.  1.
         11    1    4    4    0    0 -0.11137150575E+02  0.84797807429E+02 -0.20987598599E+03  0.22663325829E+03  0.00000000000E+00 0. -1.
</event>
<event>
 8    1  0.6493926E-009  0.1097535E+03  0.7561462E-02  0.1261027E+00
          2   -1    0    0  501    0  0.00000000000E+00  0.00000000000E+00  0.18953312573E+03  0.18953312573E+03  0.00000000000E+00 0. -1.
         -2   -1    0    0    0  501 -0.00000000000E+00 -0.00000000000E+00 -0.64903869092E+02  0.64903869092E+02  0.00000000000E+00 0.  1.
         25    2    1    2    0    0 -0.87924939877E+01 -0.17587892931E+02  0.54328429885E+02  0.13778831662E+03  0.12508956781E+03 0.  0.
         23    2    1    2    0    0  0.87924939877E+01  0.17587892931E+02  0.70300826748E+02  0.11664867819E+03  0.90983877443E+02 0.  0.
          5    1    3    3  502    0 -0.66397829566E+02 -0.17370217376E+01  0.24910829677E+02  0.71061317542E+02  0.41800000000E+01 0.  1.
         -5    1    3    3    0  502  0.57605335578E+02 -0.15850871193E+02  0.29417600208E+02  0.66726999083E+02  0.41800000000E+01 0.  1.
        -11    1    4    4    0    0 -0.30306464227E+02  0.38281019374E+02  0.38142687243E+02  0.61957911588E+02  0.00000000000E+00 0. -1.
         11    1    4    4    0    0  0.39098958215E+02 -0.20693126443E+02  0.32158139504E+02  0.54690766605E+02  0.00000000000E+00 0.  1.
</event>
<event>
 8    1  0.6493926E-009  0.1323180E+03  0.7561462E-02  0.1224056E+00
          2   -1    0    0  501    0  0.00000000000E+00  0.00000000000E+00  0.14742099084E+04  0.14742099084E+04  0.00000000000E+00 0.  1.
         -2   -1    0    0    0  501 -0.00000000000E+00 -0.00000000000E+00 -0.13359186664E+02  0.13359186664E+02  0.00000000000E+00 0. -1.
         25    2    1    2    0    0  0.77416306424E+02  0.23971662685E+02  0.99295085357E+03  0.10040752797E+04  0.12509134483E+03 0.  0.
         23    2    1    2    0    0 -0.77416306424E+02 -0.23971662685E+02  0.46789986813E+03  0.48349381534E+03  0.90928861037E+02 0.  0.
          5    1    3    3  502    0  0.38227194345E+02 -0.47890344332E+02  0.29480230593E+03  0.30113232216E+03  0.41800000000E+01 0.  1.
         -5    1    3    3    0  502  0.39189112079E+02  0.71862007017E+02  0.69814854764E+03  0.70294295753E+03  0.41800000000E+01 0.  1.
        -11    1    4    4    0    0  0.10452346223E+02  0.20324570399E+02  0.10742494577E+03  0.10982922506E+03  0.00000000000E+00 0.  1.
         11    1    4    4    0    0 -0.87868652647E+02 -0.44296233085E+02  0.36047492236E+03  0.37366459028E+03  0.00000000000E+00 0. -1.
</event>
<event>
 8    1  0.6493926E-009  0.1483383E+03  0.7561462E-02  0.1202530E+00
         -2   -1    0    0    0  501 -0.00000000000E+00  0.00000000000E+00  0.34525363153E+02  0.34525363153E+02  0.00000000000E+00 0.  1.
          2   -1    0    0  501    0  0.00000000000E+00 -0.00000000000E+00 -0.73521503001E+03  0.73521503001E+03  0.00000000000E+00 0. -1.
         25    2    1    2    0    0 -0.70489905020E+02 -0.92882282013E+02 -0.35099657600E+03  0.39043849121E+03  0.12509066327E+03 0.  0.
         23    2    1    2    0    0  0.70489905020E+02  0.92882282013E+02 -0.34969309086E+03  0.37930190195E+03  0.89379695707E+02 0.  0.
          5    1    3    3  502    0 -0.72069881462E+02 -0.10627973931E+02 -0.85234375561E+02  0.11220246353E+03  0.41800000000E+01 0. -1.
         -5    1    3    3    0  502  0.15799764424E+01 -0.82254308083E+02 -0.26576220043E+03  0.27823602769E+03  0.41800000000E+01 0. -1.
        -11    1    4    4    0    0  0.50355283670E+01  0.72646442158E+02 -0.23155404543E+03  0.24273470716E+03  0.00000000000E+00 0. -1.
         11    1    4    4    0    0  0.65454376653E+02  0.20235839856E+02 -0.11813904542E+03  0.13656719479E+03  0.00000000000E+00 0.  1.
</event>
<event>
 8    1  0.6493926E-009  0.1055543E+03  0.7561462E-02  0.1269031E+00
         -2   -1    0    0    0  501 -0.00000000000E+00  0.00000000000E+00  0.75009466404E+02  0.75009466404E+02  0.00000000000E+00 0.  1.
          2   -1    0    0  501    0  0.00000000000E+00 -0.00000000000E+00 -0.27680739188E+03  0.27680739188E+03  0.00000000000E+00 0. -1.
         25    2    1    2    0    0  0.78055640297E+02  0.53309669178E+02 -0.10178420041E+03  0.18692947454E+03  0.12509197092E+03 0.  0.
         23    2    1    2    0    0 -0.78055640297E+02 -0.53309669178E+02 -0.10001372506E+03  0.16488738374E+03  0.90832264673E+02 0.  0.
          5    1    3    3  502    0  0.65166528863E+02  0.31532169333E+02  0.91306909582E+01  0.73087591999E+02  0.41800000000E+01 0. -1.
         -5    1    3    3    0  502  0.12889111434E+02  0.21777499845E+02 -0.11091489137E+03  0.11384188254E+03  0.41800000000E+01 0. -1.
        -11    1    4    4    0    0 -0.56793334447E+02 -0.13570630003E+01 -0.83772455621E+01  0.57423886152E+02  0.00000000000E+00 0.  1.
         11    1    4    4    0    0 -0.21262305850E+02 -0.51952606178E+02 -0.91636479498E+02  0.10746349759E+03  0.00000000000E+00 0. -1.
</event>
<event>
 8    1  0.6493926E-009  0.1185193E+03  0.7561462E-02  0.1245560E+00
         -2   -1    0    0    0  501 -0.00000000000E+00  0.00000000000E+00  0.11491378957E+02  0.11491378957E+02  0.00000000000E+00 0.  1.
          2   -1    0    0  501    0  0.00000000000E+00 -0.00000000000E+00 -0.24632612578E+04  0.24632612578E+04  0.00000000000E+00 0. -1.
         25    2    1    2    0    0 -0.38782544046E+02  0.29018849082E+02 -0.21803113452E+04  0.21844337556E+04  0.12508833420E+03 0.  0.
         23    2    1    2    0    0  0.38782544046E+02 -0.29018849082E+02 -0.27145853363E+03  0.29031888113E+03  0.90824764973E+02 0.  0.
          5    1    3    3  502    0  0.13867539754E+02 -0.42675331183E+02 -0.71297919298E+03  0.71440205387E+03  0.41800000000E+01 0. -1.
         -5    1    3    3    0  502 -0.52650083800E+02  0.71694180266E+02 -0.14673321522E+04  0.14700317018E+04  0.41800000000E+01 0. -1.
        -11    1    4    4    0    0 -0.21526157452E+02  0.16700457157E+02 -0.70158095824E+02  0.75262468293E+02  0.00000000000E+00 0.  1.
         11    1    4    4    0    0  0.60308701497E+02 -0.45719306240E+02 -0.20130043781E+03  0.21505641283E+03  0.00000000000E+00 0. -1.
</event>
<event>
 8    1  0.6493926E-009  0.1328750E+03  0.7561462E-02  0.1223251E+00
          1   -1    0    0  501    0  0.00000000000E+00  0.00000000000E+00  0.94881619170E+02  0.94881619170E+02  0.00000000000E+00 0. -1.
         -1   -1    0    0    0  501 -0.00000000000E+00 -0.00000000000E+00 -0.23782730336E+03  0.23782730336E+03  0.00000000000E+00 0.  1.
         25    2    1    2    0    0 -0.71676091657E+02  0.72704501119E+02 -0.55212199633E+02  0.17064353484E+03  0.12508965744E+03 0.  0.
         23    2    1    2    0    0  0.71676091657E+02 -0.72704501119E+02 -0.87733484559E+02  0.16206538769E+03  0.90247542769E+02 0.  0.
          5    1    3    3  502    0 -0.58315444525E+02 -0.14582190600E+02 -0.55967010768E+02  0.82238130129E+02  0.41800000000E+01 0.  1.
         -5    1    3    3    0  502 -0.13360647132E+02  0.87286691718E+02  0.75481113439E+00  0.88405404715E+02  0.41800000000E+01 0.  1.
        -11    1    4    4    0    0  0.26053845901E+00 -0.37445237696E+02  0.72156601912E+01  0.38135016172E+02  0.00000000000E+00 0. -1.
         11    1    4    4    0    0  0.71415553198E+02 -0.35259263422E+02 -0.94949144750E+02  0.12393037152E+03  0.00000000000E+00 0.  1.
</event>
<event>
 8    1  0.6493926E-009  0.1018694E+03  0.7561462E-02  0.1276413E+00
          2   -1    0    0  501    0  0.00000000000E+00  0.00000000000E+00  0.41361958273E+02  0.41361958273E+02  0.00000000000E+00 0.  1.
         -2   -1    0    0    0  501 -0.00000000000E+00 -0.00000000000E+00 -0.32062722591E+03  0.32062722591E+03  0.00000000000E+00 0. -1.
         25    2    1    2    0    0 -0.93645938853E+01  0.11987213757E+02 -0.10222393767E+03  0.16226163431E+03  0.12509082949E+03 0.  0.
         23    2    1    2    0    0  0.93645938853E+01 -0.11987213757E+02 -0.17704132996E+03  0.19972754987E+03  0.91192503806E+02 0.  0.
          5    1    3    3  502    0  0.27630018666E+02 -0.47802533113E+02 -0.49633480699E+02  0.74360304665E+02  0.41800000000E+01 0.  1.
         -5    1    3    3    0  502 -0.36994612551E+02  0.59789746870E+02 -0.52590456970E+02  0.87901329642E+02  0.41800000000E+01 0.  1.
        -11    1    4    4    0    0 -0.33381393844E+02  0.55459602916E+00 -0.13284282441E+03  0.13697386988E+03  0.00000000000E+00 0. -1.
         11    1    4    4    0    0  0.42745987730E+02 -0.12541809786E+02 -0.44198505551E+02  0.62753679993E+02  0.00000000000E+00 0.  1.
</event>
<event>
 8    1  0.6493926E-009  0.1352475E+03  0.7561462E-02  0.1219871E+00
          1   -1    0    0  501    0  0.00000000000E+00  0.00000000000E+00  0.44768395662E+03  0.44768395662E+03  0.00000000000E+00 0. -1.
         -1   -1    0    0    0  501 -0.00000000000E+00 -0.00000000000E+00 -0.83653509775E+02  0.83653509775E+02  0.00000000000E+00 0.  1.
         25    2    1    2    0    0  0.18381042725E+02  0.11375419146E+03  0.34972966582E+03  0.38889118876E+03  0.12509052217E+03 0.  0.
         23    2    1    2    0    0 -0.18381042725E+02 -0.11375419146E+03  0.14300781031E+02  0.14244627764E+03  0.82513943490E+02 0.  0.
          5    1    3    3  502    0  0.41707989026E+02  0.95372905914E+02  0.34256526372E+03  0.35805583341E+03  0.41800000000E+01 0. -1.
         -5    1    3    3    0  502 -0.23326946301E+02  0.18381285541E+02  0.71644020926E+01  0.30835355344E+02  0.41800000000E+01 0. -1.
        -11    1    4    4    0    0 -0.31848319338E+01 -0.11989373151E+03  0.25472681009E+02  0.12261120457E+03  0.00000000000E+00 0. -1.
         11    1    4    4    0    0 -0.15196210791E+02  0.61395400521E+01 -0.11171899978E+02  0.19835073067E+02  0.00000000000E+00 0.  1.
</event>
<event>
 8    1  0.6493926E-009  0.9187621E+02  0.7561462E-02  0.1298371E+00
          4   -1    0    0  501    0  0.00000000000E+00  0.00000000000E+00  0.13899919655E+03  0.13899919655E+03  0.00000000000E+00 0. -1.
         -4   -1    0    0    0  501 -0.00000000000E+00 -0.00000000000E+00 -0.12374413181E+03  0.12374413181E+03  0.00000000000E+00 0.  1.
         25    2    1    2    0    0  0.47451611124E+02 -0.47003239675E+02 -0.21581384619E+02  0.14343909926E+03  0.12509220238E+03 0.  0.
         23    2    1    2    0    0 -0.47451611124E+02  0.47003239675E+02  0.36836449360E+02  0.11930422909E+03  0.91736661915E+02 0.  0.
          5    1    3    3  502    0  0.28332322107E+02 -0.51655199833E+02  0.44764812760E+02  0.74110329963E+02  0.41800000000E+01 0. -1.
         -5    1    3    3    0  502  0.19119289017E+02  0.46519601580E+01 -0.66346197379E+02  0.69328769299E+02  0.41800000000E+01 0. -1.
        -11    1    4    4    0    0 -0.37350064230E+02  0.70063597455E+02  0.61834058759E+01  0.79637739135E+02  0.00000000000E+00 0.  1.
         11    1    4    4    0    0 -0.10101546894E+02 -0.23060357780E+02  0.30653043484E+02  0.39666489956E+02  0.00000000000E+00 0. -1.
</event>
<event>
 7    1  0.6493926E-009  0.9840669E+02  0.7561462E-02  0.1283683E+00
         -1   -1    0    0    0  501 -0.00000000000E+00  0.00000000000E+00  0.30608708435E+03  0.30608708435E+03  0.00000000000E+00 0.  1.
          1   -1    0    0  501    0  0.00000000000E+00 -0.00000000000E+00 -0.47683627041E+02  0.47683627041E+02  0.00000000000E+00 0. -1.
         23    2    1    2    0    0  0.36445953519E+02 -0.26315015333E+02  0.96669205647E+02  0.14446076332E+03  0.97484302631E+02 0.  0.
          5    1    1    2  502    0 -0.43432766524E+02  0.60075445313E+02  0.15775458872E+03  0.17435437190E+03  0.41800000000E+01 0.  1.
         -5    1    1    2    0  502  0.69868130047E+01 -0.33760429980E+02  0.39796629444E+01  0.34955576172E+02  0.41800000000E+01 0.  1.
        -11    1    3    3    0    0  0.16958763420E+02  0.26544150494E+02  0.79582842894E+02  0.85589838563E+02  0.00000000000E+00 0.  1.
         11    1    3    3    0    0  0.19487190099E+02 -0.52859165827E+02  0.17086362753E+02  0.58870924760E+02  0.00000000000E+00 0. -1.
</event>
<event>
 8    1  0.6493926E-009  0.7345243E+02  0.7561462E-02  0.1348731E+00
          1   -1    0    0  501    0  0.00000000000E+00  0.00000000000E+00  0.32642983361E+03  0.32642983361E+03  0.00000000000E+00 0. -1.
         -1   -1    0    0    0  501 -0.00000000000E+00 -0.00000000000E+00 -0.38275605165E+02  0.38275605165E+02  0.00000000000E+00 0.  1.
         25    2    1    2    0    0  0.14900020985E+02  0.15463474521E+02  0.18986722385E+03  0.22837455166E+03  0.12507695025E+03 0.  0.
         23    2    1    2    0    0 -0.14900020985E+02 -0.15463474521E+02  0.98287004590E+02  0.13633088711E+03  0.92003509929E+02 0.  0.
          5    1    3    3  502    0  0.25773072169E+02 -0.33860793508E+02  0.13453147798E+02  0.44824816472E+02  0.41800000000E+01 0.  1.
         -5    1    3    3    0  502 -0.10873051184E+02  0.49324268030E+02  0.17641407605E+03  0.18354973519E+03  0.41800000000E+01 0.  1.
        -11    1    4    4    0    0  0.13976236967E+02 -0.19830491564E+02  0.10381121425E+03  0.10660840398E+03  0.00000000000E+00 0. -1.
         11    1    4    4    0    0 -0.28876257952E+02  0.43670170429E+01 -0.55242096569E+01  0.29722483131E+02  0.00000000000E+00 0.  1.
</event>
<event>
 8    1  0.6493926E-009  0.1404270E+03  0.7561462E-02  0.1212756E+00
         -2   -1    0    0    0  501 -0.00000000000E+00  0.00000000000E+00  0.36667027181E+02  0.36667027181E+02  0.00000000000E+00 0.  1.
          2   -1    0    0  501    0  0.00000000000E+00 -0.00000000000E+00 -0.73997365819E+03  0.73997365819E+03  0.00000000000E+00 0. -1.
         25    2    1    2    0    0 -0.11120232433E+03  0.52526713364E+02 -0.33706253364E+03  0.37997899978E+03  0.12509147106E+03 0.  0.
         23    2    1    2    0    0  0.11120232433E+03 -0.52526713364E+02 -0.36624409737E+03  0.39666168560E+03  0.89892944156E+02 0.  0.
          5    1    3    3  502    0 -0.19929591554E+02  0.32199548311E+02 -0.24755168466E+03  0.25046618237E+03  0.41800000000E+01 0.  1.
         -5    1    3    3    0  502 -0.91272732779E+02  0.20327165052E+02 -0.89510848983E+02  0.12951281741E+03  0.41800000000E+01 0.  1.
        -11    1    4    4    0    0  0.11971068487E+03 -0.27650512335E+02 -0.26560635366E+03  0.29264643174E+03  0.00000000000E+00 0. -1.
         11    1    4    4    0    0 -0.85083605353E+01 -0.24876201028E+02 -0.10063774371E+03  0.10401525386E+03  0.00000000000E+00 0.  1.
</event>
<event>
 8    1  0.6493926E-009  0.1044662E+03  0.7561462E-02  0.1271175E+00
         -1   -1    0    0    0  501 -0.00000000000E+00  0.00000000000E+00  0.37800407699E+03  0.37800407699E+03  0.00000000000E+00 0.  1.
          1   -1    0    0  501    0  0.00000000000E+00 -0.00000000000E+00 -0.43966553950E+02  0.43966553950E+02  0.00000000000E+00 0. -1.
         25    2    1    2    0    0 -0.19768098787E+02  0.54628541759E+02  0.12407978684E+03  0.18548319442E+03  0.12503266215E+03 0.  0.
         23    2    1    2    0    0  0.19768098787E+02 -0.54628541759E+02  0.20995773620E+03  0.23648743652E+03  0.92027177179E+02 0.  0.
          5    1    3    3  502    0 -0.45077337764E+02  0.68971699907E+02  0.31433462247E+02  0.88287013297E+02  0.41800000000E+01 0. -1.
         -5    1    3    3    0  502  0.25309238977E+02 -0.14343158148E+02  0.92646324596E+02  0.97196181120E+02  0.41800000000E+01 0. -1.
        -11    1    4    4    0    0  0.35169497797E+02 -0.68057190291E+02  0.19914028962E+03  0.21336712417E+03  0.00000000000E+00 0.  1.
         11    1    4    4    0    0 -0.15401399010E+02  0.13428648532E+02  0.10817446573E+02  0.23120312351E+02  0.00000000000E+00 0. -1.
</event>
<event>
 8    1  0.6493926E-009  0.1097767E+03  0.7561462E-02  0.1260984E+00
          1   -1    0    0  501    0  0.00000000000E+00  0.00000000000E+00  0.95895637537E+02  0.95895637537E+02  0.00000000000E+00 0. -1.
         -1   -1    0    0    0  501 -0.00000000000E+00 -0.00000000000E+00 -0.24003602248E+03  0.24003602248E+03  0.00000000000E+00 0.  1.
         25    2    1    2    0    0 -0.38775746146E+02 -0.80911176907E+02 -0.15984648181E+03  0.22192245962E+03  0.12509397788E+03 0.  0.
         23    2    1    2    0    0  0.38775746146E+02  0.80911176907E+02  0.15706096864E+02  0.11400920040E+03  0.68565583631E+02 0.  0.
          5    1    3    3  502    0  0.24223569181E+02  0.23177203280E+01 -0.96812345829E+02  0.99911239789E+02  0.41800000000E+01 0. -1.
         -5    1    3    3    0  502 -0.62999315327E+02 -0.83228897235E+02 -0.63034135980E+02  0.12201121983E+03  0.41800000000E+01 0. -1.
        -11    1    4    4    0    0  0.23843466595E+02  0.37022394903E+02  0.41880354897E+02  0.60771150639E+02  0.00000000000E+00 0. -1.
         11    1    4    4    0    0  0.14932279551E+02  0.43888782004E+02 -0.26174258033E+02  0.53238049758E+02  0.00000000000E+00 0.  1.
</event>
<event>
 8    1  0.6493926E-009  0.2477700E+03  0.7561462E-02  0.1114722E+00
          1   -1    0    0  501    0  0.00000000000E+00  0.00000000000E+00  0.23966473957E+03  0.23966473957E+03  0.00000000000E+00 0. -1.
         -1   -1    0    0    0  501 -0.00000000000E+00 -0.00000000000E+00 -0.37984938532E+03  0.37984938532E+03  0.00000000000E+00 0.  1.
         25    2    1    2    0    0 -0.23481135863E+03  0.24106060538E+02 -0.22618177553E+03  0.35003259390E+03  0.12508854828E+03 0.  0.
         23    2    1    2    0    0  0.23481135863E+03 -0.24106060538E+02  0.85997129790E+02  0.26948153099E+03  0.97505450696E+02 0.  0.
          5    1    3    3  502    0 -0.13251234422E+03  0.38007997224E+02 -0.51774381105E+02  0.14731662555E+03  0.41800000000E+01 0. -1.
         -5    1    3    3    0  502 -0.10229901441E+03 -0.13901936685E+02 -0.17440739443E+03  0.20271596835E+03  0.41800000000E+01 0. -1.
        -11    1    4    4    0    0  0.77515924853E+01 -0.26102031556E+02  0.17254982905E+02  0.32235658400E+02  0.00000000000E+00 0.  1.
         11    1    4    4    0    0  0.22705976615E+03  0.19959710176E+01  0.68742146885E+02  0.23724587259E+03  0.00000000000E+00 0. -1.
</event>
<event>
 8    1  0.6493926E-009  0.9800713E+02  0.7561462E-02  0.1284543E+00
         -2   -1    0    0    0  501 -0.00000000000E+00  0.00000000000E+00  0.73740349504E+03  0.73740349504E+03  0.00000000000E+00 0.  1.
          2   -1    0    0  501    0  0.00000000000E+00 -0.00000000000E+00 -0.21333685253E+02  0.21333685253E+02  0.00000000000E+00 0. -1.
         25    2    1    2    0    0 -0.46728020541E+02 -0.12374031712E+02  0.52430844237E+03  0.54118741462E+03  0.12509136833E+03 0.  0.
         23    2    1    2    0    0  0.46728020541E+02  0.12374031712E+02  0.19176136742E+03  0.21754976568E+03  0.90657895126E+02 0.  0.
          5    1    3    3  502    0 -0.68891221370E+02 -0.21141920099E+02  0.50526313179E+03  0.51039326594E+03  0.41800000000E+01 0.  1.
         -5    1    3    3    0  502  0.22163200829E+02  0.87678883871E+01  0.19045310583E+02  0.30794148681E+02  0.41800000000E+01 0.  1.
        -11    1    4    4    0    0 -0.22185876757E+02  0.20542933208E+02  0.84985637770E+02  0.90204123295E+02  0.00000000000E+00 0.  1.
         11    1    4    4    0    0  0.68913897298E+02 -0.81689014958E+01  0.10677572965E+03  0.12734564238E+03  0.00000000000E+00 0. -1.
</event>
<event>
 8    1  0.6493926E-009  0.1249705E+03  0.7561462E-02  0.1235115E+00
          1   -1    0    0  501    0  0.00000000000E+00  0.00000000000E+00  0.13815399784E+04  0.13815399784E+04  0.00000000000E+00 0. -1.
         -1   -1    0    0    0  501 -0.00000000000E+00 -0.00000000000E+00 -0.21643467593E+02  0.21643467593E+02  0.00000000000E+00 0.  1.
         25    2    1    2    0    0 -0.11278922296E+03 -0.32794139988E+02  0.98046780692E+03  0.99536931672E+03  0.12508433883E+03 0.  0.
         23    2    1    2    0    0  0.11278922296E+03  0.32794139988E+02  0.37942870390E+03  0.40781412929E+03  0.92462739912E+02 0.  0.
          5    1    3    3  502    0 -0.91552514117E+01  0.10468902153E+02  0.82977692155E+01  0.16725486978E+02  0.41800000000E+01 0.  1.
         -5    1    3    3    0  502 -0.10363397155E+03 -0.43263042141E+02  0.97217003771E+03  0.97864382974E+03  0.41800000000E+01 0.  1.
        -11    1    4    4    0    0  0.49215387136E+02  0.33372058698E+02  0.69657547167E+02  0.91586148025E+02  0.00000000000E+00 0.  1.
         11    1    4    4    0    0  0.63573835822E+02 -0.57791871023E+00  0.30977115673E+03  0.31622798126E+03  0.00000000000E+00 0. -1.
</event>
<event>
 8    1  0.6493926E-009  0.1331232E+03  0.7561462E-02  0.1222894E+00
          1   -1    0    0  501    0  0.00000000000E+00  0.00000000000E+00  0.29276881346E+03  0.29276881346E+03  0.00000000000E+00 0. -1.
         -1   -1    0    0    0  501 -0.00000000000E+00 -0.00000000000E+00 -0.10991352671E+03  0.10991352671E+03  0.00000000000E+00 0.  1.
         25    2    1    2    0    0  0.61035450486E+02  0.10791483886E+03  0.15412119989E+02  0.17679133882E+03  0.12508679137E+03 0.  0.
         23    2    1    2    0    0 -0.61035450486E+02 -0.10791483886E+03  0.16744316677E+03  0.22589100135E+03  0.87284544621E+02 0.  0.
          5    1    3    3  502    0  0.41817111278E+02  0.46040780040E+02 -0.53474853097E+02  0.82130728330E+02  0.41800000000E+01 0.  1.
         -5    1    3    3    0  502  0.19218339208E+02  0.61874058823E+02  0.68886973086E+02  0.94660610489E+02  0.41800000000E+01 0.  1.
        -11    1    4    4    0    0 -0.10747282339E+02 -0.81453624374E+02  0.14105396235E+03  0.16323730363E+03  0.00000000000E+00 0.  1.
         11    1    4    4    0    0 -0.50288168147E+02 -0.26461214489E+02  0.26389204414E+02  0.62653697715E+02  0.00000000000E+00 0. -1.
</event>
<event>
 8    1  0.6493926E-009  0.1277595E+03  0.7561462E-02  0.1230819E+00
          1   -1    0    0  501    0  0.00000000000E+00  0.00000000000E+00  0.73718846604E+03  0.73718846604E+03  0.00000000000E+00 0. -1.
         -1   -1    0    0    0  501 -0.00000000000E+00 -0.00000000000E+00 -0.33274929907E+02  0.33274929907E+02  0.00000000000E+00 0.  1.
         25    2    1    2    0    0  0.20926697441E+02 -0.96140946789E+02  0.51015305430E+03  0.53440142959E+03  0.12509093019E+03 0.  0.
         23    2    1    2    0    0 -0.20926697441E+02  0.96140946789E+02  0.19376048183E+03  0.23606196636E+03  0.92201514777E+02 0.  0.
          5    1    3    3  502    0 -0.22701480463E+02 -0.85625665586E+02  0.17456016398E+03  0.19579539083E+03  0.41800000000E+01 0.  1.
         -5    1    3    3    0  502  0.43628177905E+02 -0.10515281203E+02  0.33559289033E+03  0.33860603876E+03  0.41800000000E+01 0.  1.
        -11    1    4    4    0    0 -0.45796765763E+02  0.41807269481E+02  0.47644974684E+02  0.78199968980E+02  0.00000000000E+00 0.  1.
         11    1    4    4    0    0  0.24870068322E+02  0.54333677308E+02  0.14611550714E+03  0.15786199738E+03  0.00000000000E+00 0. -1.
</event>
<event>
 8    1  0.6493926E-009  0.1482250E+03  0.7561462E-02  0.1202671E+00
         -2   -1    0    0    0  501 -0.00000000000E+00  0.00000000000E+00  0.30356329458E+02  0.30356329458E+02  0.00000000000E+00 0. -1.
          2   -1    0    0  501    0  0.00000000000E+00 -0.00000000000E+00 -0.98517185213E+03  0.98517185213E+03  0.00000000000E+00 0.  1.
         25    2    1    2    0    0  0.11310618910E+03  0.42425052629E+02 -0.67295723109E+03  0.69506733681E+03  0.12511703606E+03 0.  0.
         23    2    1    2    0    0 -0.11310618910E+03 -0.42425052629E+02 -0.28185829158E+03  0.32046084478E+03  0.93049241818E+02 0.  0.
          5    1    3    3  502    0 -0.23985711896E+02 -0.44236359079E+01 -0.16470527142E+03  0.16655384044E+03  0.41800000000E+01 0.  1.
         -5    1    3    3    0  502  0.13709190100E+03  0.46848688537E+02 -0.50825195967E+03  0.52851349637E+03  0.41800000000E+01 0.  1.
        -11    1    4    4    0    0 -0.96399985579E+01 -0.18060201911E+02 -0.13828858115E+01  0.20518597380E+02  0.00000000000E+00 0. -1.
         11    1    4    4    0    0 -0.10346619054E+03 -0.24364850718E+02 -0.28047540577E+03  0.29994224740E+03  0.00000000000E+00 0.  1.
</event>
<event>
 8    1  0.6493926E-009  0.1224080E+03  0.7561462E-02  0.1239177E+00
         -2   -1    0    0    0  501 -0.00000000000E+00  0.00000000000E+00  0.39276572098E+02  0.39276572098E+02  0.00000000000E+00 0.  1.
          2   -1    0    0  501    0  0.00000000000E+00 -0.00000000000E+00 -0.47827776795E+03  0.47827776795E+03  0.00000000000E+00 0. -1.
         25    2    1    2    0    0  0.50327186913E+02  0.71758319577E+02 -0.22832238463E+03  0.27470177378E+03  0.12509145063E+03 0.  0.
         23    2    1    2    0    0 -0.50327186913E+02 -0.71758319577E+02 -0.21067881122E+03  0.24285256627E+03  0.83124757300E+02 0.  0.
          5    1    3    3  502    0 -0.24539144045E+02 -0.20905149624E+02 -0.36668787228E+02  0.49002726740E+02  0.41800000000E+01 0.  1.
         -5    1    3    3    0  502  0.74866330957E+02  0.92663469201E+02 -0.19165359741E+03  0.22569904704E+03  0.41800000000E+01 0.  1.
        -11    1    4    4    0    0 -0.27677995609E+02 -0.13894752106E+02 -0.96488933805E+01  0.32438198478E+02  0.00000000000E+00 0.  1.
         11    1    4    4    0    0 -0.22649191304E+02 -0.57863567471E+02 -0.20102991784E+03  0.21041436779E+03  0.00000000000E+00 0. -1.
</event>
<event>
 8    1  0.6493926E-009  0.1303292E+03  0.7561462E-02  0.1226968E+00
         -1   -1    0    0    0  501 -0.00000000000E+00  0.00000000000E+00  0.22310331754E+02  0.22310331754E+02  0.00000000000E+00 0.  1.
          1   -1    0    0  501    0  0.00000000000E+00 -0.00000000000E+00 -0.98562961911E+03  0.98562961911E+03  0.00000000000E+00 0. -1.
         25    2    1    2    0    0  0.93027902942E+02  0.21587293622E+02 -0.63175697711E+03  0.65106403018E+03  0.12508913340E+03 0.  0.
         23    2    1    2    0    0 -0.93027902942E+02 -0.21587293622E+02 -0.33156231024E+03  0.35687592068E+03  0.91140853720E+02 0.  0.
          5    1    3    3  502    0  0.30923722715E+01  0.37425873710E+02 -0.40225548137E+03  0.40402624109E+03  0.41800000000E+01 0.  1.
         -5    1    3    3    0  502  0.89935530670E+02 -0.15838580088E+02 -0.22950149574E+03  0.24703778910E+03  0.41800000000E+01 0.  1.
        -11    1    4    4    0    0 -0.45846176029E+02  0.35074334842E+02 -0.12956568990E+03  0.14184269040E+03  0.00000000000E+00 0. -1.
         11    1    4    4    0    0 -0.47181726913E+02 -0.56661628464E+02 -0.20199662034E+03  0.21503323028E+03  0.00000000000E+00 0.  1.
</event>
<event>
 8    1  0.6493926E-009  0.1020576E+03  0.7561462E-02  0.1276028E+00
          2   -1    0    0  501    0  0.00000000000E+00  0.00000000000E+00  0.66985473890E+03  0.66985473890E+03  0.00000000000E+00 0. -1.
         -2   -1    0    0    0  501 -0.00000000000E+00 -0.00000000000E+00 -0.19547984537E+02  0.19547984537E+02  0.00000000000E+00 0.  1.
         25    2    1    2    0    0  0.34818522076E+02 -0.34577893954E+01  0.42685833673E+03  0.44618398850E+03  0.12509127136E+03 0.  0.
         23    2    1    2    0    0 -0.34818522076E+02  0.34577893954E+01  0.22344841764E+03  0.24321873494E+03  0.89453182697E+02 0.  0.
          5    1    3    3  502    0 -0.17290076145E+02 -0.47137387578E+02  0.27732669994E+03  0.28186601593E+03  0.41800000000E+01 0. -1.
         -5    1    3    3    0  502  0.52108598222E+02  0.43679598183E+02  0.14953163679E+03  0.16431797256E+03  0.41800000000E+01 0. -1.
        -11    1    4    4    0    0  0.24191309562E+02 -0.80373668629E+01  0.12726066148E+03  0.12978865391E+03  0.00000000000E+00 0. -1.
         11    1    4    4    0    0 -0.59009831639E+02  0.11495156258E+02  0.96187756163E+02  0.11343008103E+03  0.00000000000E+00 0.  1.
</event>
<event>
 8    1  0.6493926E-009  0.1058662E+03  0.7561462E-02  0.1268422E+00
          1   -1    0    0  501    0  0.00000000000E+00  0.00000000000E+00  0.78898907878E+02  0.78898907878E+02  0.00000000000E+00 0. -1.
         -1   -1    0    0    0  501 -0.00000000000E+00 -0.00000000000E+00 -0.16051616130E+03  0.16051616130E+03  0.00000000000E+00 0.  1.
         25    2    1    2    0    0  0.27308214607E+00  0.27466226814E+02 -0.24936357345E+02  0.13047434398E+03  0.12508902561E+03 0.  0.
         23    2    1    2    0    0 -0.27308214607E+00 -0.27466226814E+02 -0.56680896078E+02  0.10894072520E+03  0.88886947513E+02 0.  0.
          5    1    3    3  502    0 -0.44481789426E+02 -0.24132669459E+02  0.12745124586E+02  0.52353853024E+02  0.41800000000E+01 0. -1.
         -5    1    3    3    0  502  0.44754871572E+02  0.51598896273E+02 -0.37681481931E+02  0.78120490952E+02  0.41800000000E+01 0. -1.
        -11    1    4    4    0    0 -0.44310702388E+02 -0.13422331479E+02 -0.22654433878E+02  0.51544356654E+02  0.00000000000E+00 0. -1.
         11    1    4    4    0    0  0.44037620242E+02 -0.14043895335E+02 -0.34026462200E+02  0.57396368549E+02  0.00000000000E+00 0.  1.
</event>
<event>
 8    1  0.6493926E-009  0.3455662E+03  0.7561462E-02  0.1064450E+00
          2   -1    0    0  501    0  0.00000000000E+00  0.00000000000E+00  0.32640119098E+04  0.32640119098E+04  0.00000000000E+00 0. -1.
         -2   -1    0    0    0  501 -0.00000000000E+00 -0.00000000000E+00 -0.45801790776E+02  0.45801790776E+02  0.00000000000E+00 0.  1.
         25    2    1    2    0    0 -0.27221237980E+03 -0.18732512515E+03  0.23503813818E+04  0.23767899804E+04  0.12509072120E+03 0.  0.
         23    2    1    2    0    0  0.27221237980E+03  0.18732512515E+03  0.86782873715E+03  0.93302372015E+03  0.90643604979E+02 0.  0.
          5    1    3    3  502    0 -0.22774359300E+03 -0.87618019450E+02  0.16124993479E+04  0.16308634771E+04  0.41800000000E+01 0. -1.
         -5    1    3    3    0  502 -0.44468786797E+02 -0.99707105697E+02  0.73788203396E+03  0.74592650333E+03  0.41800000000E+01 0. -1.
        -11    1    4    4    0    0  0.46970033360E+02  0.68794198675E+02  0.15258776788E+03  0.17384433471E+03  0.00000000000E+00 0. -1.
         11    1    4    4    0    0  0.22524234644E+03  0.11853092647E+03  0.71524096927E+03  0.75917938544E+03  0.00000000000E+00 0.  1.
</event>
<event>
 8    1  0.6493926E-009  0.1059934E+03  0.7561462E-02  0.1268175E+00
         -2   -1    0    0    0  501 -0.00000000000E+00  0.00000000000E+00  0.81032569359E+02  0.81032569359E+02  0.00000000000E+00 0.  1.
          2   -1    0    0  501    0  0.00000000000E+00 -0.00000000000E+00 -0.18219660039E+03  0.18219660039E+03  0.00000000000E+00 0. -1.
         25    2    1    2    0    0 -0.51418380445E+01 -0.45863433372E+02 -0.21553528499E+02  0.13506702875E+03  0.12509458280E+03 0.  0.
         23    2    1    2    0    0  0.51418380445E+01  0.45863433372E+02 -0.79610502533E+02  0.12816214100E+03  0.89206553865E+02 0.  0.
          5    1    3    3  502    0 -0.57358314354E+02 -0.51349575360E+02 -0.27952835161E+02  0.82009685456E+02  0.41800000000E+01 0. -1.
         -5    1    3    3    0  502  0.52216476309E+02  0.54861419879E+01  0.63993066615E+01  0.53057343297E+02  0.41800000000E+01 0. -1.
        -11    1    4    4    0    0  0.36141673048E+02  0.17315105003E+02 -0.75932889108E+02  0.85859402748E+02  0.00000000000E+00 0. -1.
         11    1    4    4    0    0 -0.30999835004E+02  0.28548328369E+02 -0.36776134252E+01  0.42302738250E+02  0.00000000000E+00 0.  1.
</event>
<event>
 7    1  0.6493926E-009  0.1153430E+03  0.7561462E-02  0.1250984E+00
          2   -1    0    0  501    0  0.00000000000E+00  0.00000000000E+00  0.25283379342E+03  0.25283379342E+03  0.00000000000E+00 0. -1.
         -2   -1    0    0    0  501 -0.00000000000E+00 -0.00000000000E+00 -0.10187750701E+03  0.10187750701E+03  0.00000000000E+00 0.  1.
         23    2    1    2    0    0 -0.72878911316E+02 -0.66323991481E+02  0.13823282563E+03  0.19480303329E+03  0.95549464347E+02 0.  0.
          5    1    1    2  502    0  0.47468806620E+02  0.47969388841E+02  0.68209340533E+02  0.96043408955E+02  0.41800000000E+01 0. -1.
         -5    1    1    2    0  502  0.25410104695E+02  0.18354602640E+02 -0.55485879757E+02  0.63864858186E+02  0.41800000000E+01 0. -1.
        -11    1    3    3    0    0 -0.82472102350E+02 -0.79896816832E+02  0.13606468116E+03  0.17804141784E+03  0.00000000000E+00 0.  1.
         11    1    3    3    0    0  0.95931910345E+01  0.13572825350E+02  0.21681444711E+01  0.16761615455E+02  0.00000000000E+00 0. -1.
</event>
<event>
 8    1  0.6493926E-009  0.2593095E+03  0.7561462E-02  0.1107559E+00
         -1   -1    0    0    0  501 -0.00000000000E+00  0.00000000000E+00  0.10072248223E+03  0.10072248223E+03  0.00000000000E+00 0.  1.
          1   -1    0    0  501    0  0.00000000000E+00 -0.00000000000E+00 -0.72070922807E+03  0.72070922807E+03  0.00000000000E+00 0. -1.
         25    2    1    2    0    0 -0.35065371784E+02  0.24164895945E+03 -0.26918738675E+03  0.38436028302E+03  0.12508868086E+03 0.  0.
         23    2    1    2    0    0  0.35065371784E+02 -0.24164895945E+03 -0.35079935909E+03  0.43707142727E+03  0.91364338236E+02 0.  0.
          5    1    3    3  502    0  0.45941851556E+02  0.10836320514E+03 -0.10378171128E+03  0.15697564763E+03  0.41800000000E+01 0.  1.
         -5    1    3    3    0  502 -0.81007223341E+02  0.13328575431E+03 -0.16540567547E+03  0.22738463540E+03  0.41800000000E+01 0.  1.
        -11    1    4    4    0    0  0.96794316121E+01 -0.27205644399E+02 -0.48825078747E+01  0.29286129253E+02  0.00000000000E+00 0.  1.
         11    1    4    4    0    0  0.25385940172E+02 -0.21444331505E+03 -0.34591685121E+03  0.40778529802E+03  0.00000000000E+00 0. -1.
</event>
<event>
 8    1  0.6493926E-009  0.2938294E+03  0.7561462E-02  0.1088367E+00
         -2   -1    0    0    0  501 -0.00000000000E+00  0.00000000000E+00  0.74758351798E+03  0.74758351798E+03  0.00000000000E+00 0. -1.
          2   -1    0    0  501    0  0.00000000000E+00 -0.00000000000E+00 -0.13537534795E+03  0.13537534795E+03  0.00000000000E+00 0.  1.
         25    2    1    2    0    0  0.99613649655E+02 -0.26264485033E+03  0.46031389374E+03  0.55357111776E+03  0.12508758954E+03 0.  0.
         23    2    1    2    0    0 -0.99613649655E+02  0.26264485033E+03  0.15189427630E+03  0.32938774816E+03  0.80741692239E+02 0.  0.
          5    1    3    3  502    0  0.95855049133E+02 -0.97945544736E+02  0.26212798756E+03  0.29582101758E+03  0.41800000000E+01 0. -1.
         -5    1    3    3    0  502  0.37586005218E+01 -0.16469930559E+03  0.19818590617E+03  0.25775010019E+03  0.41800000000E+01 0. -1.
        -11    1    4    4    0    0 -0.65223238990E+01  0.84512621886E+02  0.14678808034E+02  0.86025527446E+02  0.00000000000E+00 0.  1.
         11    1    4    4    0    0 -0.93091325756E+02  0.17813222844E+03  0.13721546826E+03  0.24336222071E+03  0.00000000000E+00 0. -1.
</event>
<event>
 8    1  0.6493926E-009  0.1472285E+03  0.7561462E-02  0.1203921E+00
         -1   -1    0    0    0  501 -0.00000000000E+00  0.00000000000E+00  0.32721336269E+02  0.32721336269E+02  0.00000000000E+00 0.  1.
          1   -1    0    0  501    0  0.00000000000E+00 -0.00000000000E+00 -0.76529450021E+03  0.76529450021E+03  0.00000000000E+00 0. -1.
         25    2    1    2    0    0 -0.71375139620E+02 -0.83041427306E+02 -0.48501163367E+03  0.51271115512E+03  0.12508458973E+03 0.  0.
         23    2    1    2    0    0  0.71375139620E+02  0.83041427306E+02 -0.24756153028E+03  0.28530468136E+03  0.90120811851E+02 0.  0.
          5    1    3    3  502    0  0.33362787603E+01 -0.77708277146E+02 -0.14578880574E+03  0.16529233307E+03  0.41800000000E+01 0. -1.
         -5    1    3    3    0  502 -0.74711418381E+02 -0.53331501598E+01 -0.33922282792E+03  0.34741882205E+03  0.41800000000E+01 0. -1.
        -11    1    4    4    0    0 -0.88384099192E+01  0.56305362321E+02 -0.10840781325E+03  0.12247720314E+03  0.00000000000E+00 0.  1.
         11    1    4    4    0    0  0.80213549540E+02  0.26736064985E+02 -0.13915371703E+03  0.16282747822E+03  0.00000000000E+00 0. -1.
</event>
<event>
 8    1  0.6493926E-009  0.1236167E+03  0.7561462E-02  0.1237247E+00
          1   -1    0    0  501    0  0.00000000000E+00  0.00000000000E+00  0.74649623462E+03  0.74649623462E+03  0.00000000000E+00 0. -1.
         -1   -1    0    0    0  501 -0.00000000000E+00 -0.00000000000E+00 -0.21436762199E+02  0.21436762199E+02  0.00000000000E+00 0.  1.
         25    2    1    2    0    0  0.41049663597E+02 -0.44459508216E+02  0.33622455200E+03  0.36380820622E+03  0.12509092213E+03 0.  0.
         23    2    1    2    0    0 -0.41049663597E+02  0.44459508216E+02  0.38883492042E+03  0.40412479059E+03  0.91992001175E+02 0.  0.
          5    1    3    3  502    0  0.71171201668E+02 -0.69077962375E+02  0.22584432603E+03  0.24669867619E+03  0.41800000000E+01 0.  1.
         -5    1    3    3    0  502 -0.30121538072E+02  0.24618454159E+02  0.11038022597E+03  0.11710953004E+03  0.41800000000E+01 0.  1.
        -11    1    4    4    0    0 -0.68790479252E+02  0.19450798897E+02  0.22486813398E+03  0.23595792272E+03  0.00000000000E+00 0. -1.
         11    1    4    4    0    0  0.27740815655E+02  0.25008709319E+02  0.16396678644E+03  0.16816686788E+03  0.00000000000E+00 0.  1.
</event>
<event>
 8    1  0.6493926E-009  0.1966308E+03  0.7561462E-02  0.1152613E+00
         -1   -1    0    0    0  501 -0.00000000000E+00  0.00000000000E+00  0.44069608343E+02  0.44069608343E+02  0.00000000000E+00 0.  1.
          1   -1    0    0  501    0  0.00000000000E+00 -0.00000000000E+00 -0.26225221603E+04  0.26225221603E+04  0.00000000000E+00 0. -1.
         25    2    1    2    0    0 -0.17580628319E+03 -0.19881331585E+02 -0.23639434100E+04  0.23738528016E+04  0.12508221834E+03 0.  0.
         23    2    1    2    0    0  0.17580628319E+03  0.19881331585E+02 -0.21450914198E+03  0.29273896709E+03  0.91535863478E+02 0.  0.
          5    1    3    3  502    0 -0.17223216295E+02  0.42356718198E+02 -0.44867353928E+03  0.45101679349E+03  0.41800000000E+01 0.  1.
         -5    1    3    3    0  502 -0.15858306689E+03 -0.62238049783E+02 -0.19152698707E+04  0.19228360081E+04  0.41800000000E+01 0.  1.
        -11    1    4    4    0    0  0.22608849794E+02  0.31698408916E+01 -0.95051358979E+02  0.97754635819E+02  0.00000000000E+00 0. -1.
         11    1    4    4    0    0  0.15319743339E+03  0.16711490694E+02 -0.11945778301E+03  0.19498433127E+03  0.00000000000E+00 0.  1.
</event>
<event>
 8    1  0.6493926E-009  0.1269426E+03  0.7561462E-02  0.1232064E+00
          2   -1    0    0  501    0  0.00000000000E+00  0.00000000000E+00  0.91536659791E+03  0.91536659791E+03  0.00000000000E+00 0. -1.
         -2   -1    0    0    0  501 -0.00000000000E+00 -0.00000000000E+00 -0.20301284635E+02  0.20301284635E+02  0.00000000000E+00 0.  1.
         25    2    1    2    0    0 -0.37642831496E+02  0.66162354663E+02  0.40555541709E+03  0.43118121418E+03  0.12509038010E+03 0.  0.
         23    2    1    2    0    0  0.37642831496E+02 -0.66162354663E+02  0.48950989619E+03  0.50448666837E+03  0.95354182688E+02 0.  0.
          5    1    3    3  502    0  0.22760499956E+02 -0.19867851822E+02  0.17658595200E+03  0.17920056568E+03  0.41800000000E+01 0.  1.
         -5    1    3    3    0  502 -0.60403331452E+02  0.86030206485E+02  0.22896946509E+03  0.25198064850E+03  0.41800000000E+01 0.  1.
        -11    1    4    4    0    0  0.67780260430E+02 -0.44964222837E+02  0.38957339278E+03  0.39797408634E+03  0.00000000000E+00 0. -1.
         11    1    4    4    0    0 -0.30137428934E+02 -0.21198131826E+02  0.99936503410E+02  0.10651258202E+03  0.00000000000E+00 0.  1.
</event>
<event>
 8    1  0.6493926E-009  0.1067713E+03  0.7561462E-02  0.1266668E+00
          4   -1    0    0  501    0  0.00000000000E+00  0.00000000000E+00  0.54221260057E+02  0.54221260057E+02  0.00000000000E+00 0. -1.
         -4   -1    0    0    0  501 -0.00000000000E+00 -0.00000000000E+00 -0.22958455591E+03  0.22958455591E+03  0.00000000000E+00 0.  1.
         25    2    1    2    0    0 -0.26164391301E+02 -0.31658841193E+01 -0.89715456765E+02  0.15617521015E+03  0.12508890793E+03 0.  0.
         23    2    1    2    0    0  0.26164391301E+02  0.31658841193E+01 -0.85647839089E+02  0.12763060582E+03  0.90881356763E+02 0.  0.
          5    1    3    3  502    0  0.33913656249E+02 -0.43438121214E+02 -0.42185914202E+02  0.69527909589E+02  0.41800000000E+01 0.  1.
         -5    1    3    3    0  502 -0.60078047550E+02  0.40272237094E+02 -0.47529542564E+02  0.86647300560E+02  0.41800000000E+01 0.  1.
        -11    1    4    4    0    0  0.53699198338E+01  0.41697963538E+02 -0.15241265345E+02  0.44719708984E+02  0.00000000000E+00 0. -1.
         11    1    4    4    0    0  0.20794471467E+02 -0.38532079419E+02 -0.70406573743E+02  0.82910896836E+02  0.00000000000E+00 0.  1.
</event>
<event>
 8    1  0.6493926E-009  0.9976958E+02  0.7561462E-02  0.1280781E+00
          1   -1    0    0  501    0  0.00000000000E+00  0.00000000000E+00  0.19651067441E+03  0.19651067441E+03  0.00000000000E+00 0. -1.
         -1   -1    0    0    0  501 -0.00000000000E+00 -0.00000000000E+00 -0.83451085954E+02  0.83451085954E+02  0.00000000000E+00 0.  1.
         25    2    1    2    0    0 -0.39432974532E+02  0.12543323533E+02  0.12050068867E+03  0.17855390978E+03  0.12509511693E+03 0.  0.
         23    2    1    2    0    0  0.39432974532E+02 -0.12543323533E+02 -0.74411002147E+01  0.10140785059E+03  0.92281567730E+02 0.  0.
          5    1    3    3  502    0 -0.21549973723E+02  0.61813719067E+02  0.26300559720E+02  0.70671982242E+02  0.41800000000E+01 0. -1.
         -5    1    3    3    0  502 -0.17883000810E+02 -0.49270395534E+02  0.94200128952E+02  0.10788192753E+03  0.41800000000E+01 0. -1.
        -11    1    4    4    0    0 -0.18577299838E+02 -0.14112944765E+02 -0.30981689262E+02  0.38783454575E+02  0.00000000000E+00 0.  1.
         11    1    4    4    0    0  0.58010274371E+02  0.15696212319E+01  0.23540589047E+02  0.62624396014E+02  0.00000000000E+00 0. -1.
</event>
<event>
 8    1  0.6493926E-009  0.1014702E+03  0.7561462E-02  0.1277234E+00
          1   -1    0    0  501    0  0.00000000000E+00  0.00000000000E+00  0.55249785444E+03  0.55249785444E+03  0.00000000000E+00 0. -1.
         -1   -1    0    0    0  501 -0.00000000000E+00 -0.00000000000E+00 -0.32510996899E+02  0.32510996899E+02  0.00000000000E+00 0.  1.
         25    2    1    2    0    0 -0.15730267215E+02 -0.28412882053E+02  0.44381678706E+03  0.46225058242E+03  0.12509007674E+03 0.  0.
         23    2    1    2    0    0  0.15730267215E+02  0.28412882053E+02  0.76170070489E+02  0.12275826893E+03  0.90625491880E+02 0.  0.
          5    1    3    3  502    0 -0.32904202888E+02 -0.61238571273E+02  0.39356286641E+03  0.39967743418E+03  0.41800000000E+01 0. -1.
         -5    1    3    3    0  502  0.17173935673E+02  0.32825689220E+02  0.50253920646E+02  0.62573148232E+02  0.41800000000E+01 0. -1.
        -11    1    4    4    0    0  0.53693302968E+02  0.18316724224E+02  0.49358186260E+02  0.75197764068E+02  0.00000000000E+00 0. -1.
         11    1    4    4    0    0 -0.37963035753E+02  0.10096157829E+02  0.26811884229E+02  0.47560504859E+02  0.00000000000E+00 0.  1.
</event>
<event>
 7    1  0.6493926E-009  0.1091082E+03  0.7561462E-02  0.1262230E+00
         -4   -1    0    0    0  501 -0.00000000000E+00  0.00000000000E+00  0.27057050181E+03  0.27057050181E+03  0.00000000000E+00 0.  1.
          4   -1    0    0  501    0  0.00000000000E+00 -0.00000000000E+00 -0.60160691003E+02  0.60160691003E+02  0.00000000000E+00 0. -1.
         23    2    1    2    0    0  0.34581469430E+02 -0.49398807611E+02  0.52973807324E+02  0.12075780282E+03  0.90222516364E+02 0.  0.
          5    1    1    2  502    0  0.35967597907E+02 -0.15007479409E+01  0.98119868103E+02  0.10459876319E+03  0.41800000000E+01 0.  1.
         -5    1    1    2    0  502 -0.70549067337E+02  0.50899555552E+02  0.59316135383E+02  0.10537462680E+03  0.41800000000E+01 0.  1.
        -11    1    3    3    0    0  0.34584491900E+02  0.95925030621E+01 -0.70745076856E+01  0.36580757975E+02  0.00000000000E+00 0. -1.
         11    1    3    3    0    0 -0.30224708737E-02 -0.58991310673E+02  0.60048315009E+02  0.84177044849E+02  0.00000000000E+00 0.  1.
</event>
<event>
 8    1  0.6493926E-009  0.6634446E+02  0.7561462E-02  0.1372984E+00
          1   -1    0    0  501    0  0.00000000000E+00  0.00000000000E+00  0.14400146436E+03  0.14400146436E+03  0.00000000000E+00 0. -1.
         -1   -1    0    0    0  501 -0.00000000000E+00 -0.00000000000E+00 -0.11200131962E+03  0.11200131962E+03  0.00000000000E+00 0.  1.
         25    2    1    2    0    0  0.29733431928E+02  0.31780427874E+01  0.75631288127E+02  0.14920297418E+03  0.12508900363E+03 0.  0.
         23    2    1    2    0    0 -0.29733431928E+02 -0.31780427874E+01 -0.43631143384E+02  0.10679980981E+03  0.92781171432E+02 0.  0.
          5    1    3    3  502    0 -0.92123398991E+01  0.21023424328E+01  0.10164566505E+03  0.10216947036E+03  0.41800000000E+01 0.  1.
         -5    1    3    3    0  502  0.38945771827E+02  0.10757003546E+01 -0.26014376923E+02  0.47033503816E+02  0.41800000000E+01 0.  1.
        -11    1    4    4    0    0 -0.15633675252E+02 -0.40426699478E+02  0.53459901559E+01  0.43672754015E+02  0.00000000000E+00 0.  1.
         11    1    4    4    0    0 -0.14099756676E+02  0.37248656690E+02 -0.48977133540E+02  0.63127055795E+02  0.00000000000E+00 0. -1.
</event>
<event>
 8    1  0.6493926E-009  0.6726244E+02  0.7561462E-02  0.1369658E+00
         -2   -1    0    0    0  501 -0.00000000000E+00  0.00000000000E+00  0.41943015708E+02  0.41943015708E+02  0.00000000000E+00 0.  1.
          2   -1    0    0  501    0  0.00000000000E+00 -0.00000000000E+00 -0.35626169933E+03  0.35626169933E+03  0.00000000000E+00 0. -1.
         25    2    1    2    0    0 -0.13734156077E+02  0.35951956793E+02 -0.11375282808E+03  0.17339888558E+03  0.12508516052E+03 0.  0.
         23    2    1    2    0    0  0.13734156077E+02 -0.35951956793E+02 -0.20056585554E+03  0.22480582946E+03  0.93967166124E+02 0.  0.
          5    1    3    3  502    0 -0.10122658053E+02  0.35737983861E+01 -0.13420979175E+03  0.13470330673E+03  0.41800000000E+01 0. -1.
         -5    1    3    3    0  502 -0.36114980240E+01  0.32378158407E+02  0.20456963673E+02  0.38695578850E+02  0.41800000000E+01 0. -1.
        -11    1    4    4    0    0  0.46463919550E+02 -0.80628162964E+01 -0.52259867037E+02  0.70391750435E+02  0.00000000000E+00 0.  1.
         11    1    4    4    0    0 -0.32729763473E+02 -0.27889140497E+02 -0.14830598851E+03  0.15441407903E+03  0.00000000000E+00 0. -1.
</event>
<event>
 7    1  0.6493926E-009  0.6140024E+02  0.7561462E-02  0.1392048E+00
          4   -1    0    0  501    0  0.00000000000E+00  0.00000000000E+00  0.91233193067E+02  0.91233193067E+02  0.00000000000E+00 0. -1.
         -4   -1    0    0    0  501 -0.00000000000E+00 -0.00000000000E+00 -0.10527715513E+03  0.10527715513E+03  0.00000000000E+00 0.  1.
         25    2    1    2    0    0  0.19289668233E+02 -0.13949462016E+02  0.33690315443E+02  0.13171539102E+03  0.12508888074E+03 0.  0.
          5    1    3    3  502    0  0.37370353915E+02 -0.41687903833E+02 -0.27120022116E+02  0.62348958911E+02  0.41800000000E+01 0. -1.
         -5    1    3    3    0  502 -0.18080685682E+02  0.27738441816E+02  0.60810337559E+02  0.69366432106E+02  0.41800000000E+01 0. -1.
        -11    1    1    2    0    0 -0.21897808560E+02  0.30876034433E+01 -0.48796721918E+02  0.53573943151E+02  0.00000000000E+00 0.  1.
         11    1    1    2    0    0  0.26081403267E+01  0.10861858573E+02  0.10624444153E+01  0.11221014026E+02  0.00000000000E+00 0. -1.
</event>
<event>
 8    1  0.6493926E-009  0.9888404E+02  0.7561462E-02  0.1282660E+00
          1   -1    0    0  501    0  0.00000000000E+00  0.00000000000E+00  0.13935486804E+03  0.13935486804E+03  0.00000000000E+00 0. -1.
         -1   -1    0    0    0  501 -0.00000000000E+00 -0.00000000000E+00 -0.96241500197E+02  0.96241500197E+02  0.00000000000E+00 0.  1.
         25    2    1    2    0    0 -0.31206720759E+02 -0.24525738457E+01  0.49965126967E+02  0.13829196540E+03  0.12509308231E+03 0.  0.
         23    2    1    2    0    0  0.31206720759E+02  0.24525738457E+01 -0.68517591231E+01  0.97304402840E+02  0.91876687304E+02 0.  0.
          5    1    3    3  502    0 -0.50965258631E+02 -0.53514273787E+02  0.29928130882E+02  0.79839842838E+02  0.41800000000E+01 0. -1.
         -5    1    3    3    0  502  0.19758537872E+02  0.51061699942E+02  0.20036996085E+02  0.58452122561E+02  0.41800000000E+01 0. -1.
        -11    1    4    4    0    0  0.49876438057E+02  0.43899395776E+01  0.28257458373E+02  0.57492735163E+02  0.00000000000E+00 0. -1.
         11    1    4    4    0    0 -0.18669717298E+02 -0.19373657319E+01 -0.35109217497E+02  0.39811667677E+02  0.00000000000E+00 0.  1.
</event>
<event>
 8    1  0.6493926E-009  0.8073933E+02  0.7561462E-02  0.1326966E+00
          1   -1    0    0  501    0  0.00000000000E+00  0.00000000000E+00  0.11321596997E+03  0.11321596997E+03  0.00000000000E+00 0. -1.
         -1   -1    0    0    0  501 -0.00000000000E+00 -0.00000000000E+00 -0.14941731527E+03  0.14941731527E+03  0.00000000000E+00 0.  1.
         25    2    1    2    0    0 -0.52243965002E+02  0.17662232118E+02 -0.65769347694E+02  0.15170483363E+03  0.12508942052E+03 0.  0.
         23    2    1    2    0    0  0.52243965002E+02 -0.17662232118E+02  0.29568002400E+02  0.11092845161E+03  0.91594040682E+02 0.  0.
          5    1    3    3  502    0 -0.45684723550E+02  0.43844872661E+02 -0.93357543770E+02  0.11288299342E+03  0.41800000000E+01 0. -1.
         -5    1    3    3    0  502 -0.65592414518E+01 -0.26182640543E+02  0.27588196076E+02  0.38821840206E+02  0.41800000000E+01 0. -1.
        -11    1    4    4    0    0  0.24789168911E+02  0.14263456882E+02 -0.27720957488E+02  0.39829644508E+02  0.00000000000E+00 0.  1.
         11    1    4    4    0    0  0.27454796091E+02 -0.31925689000E+02  0.57288959888E+02  0.71098807104E+02  0.00000000000E+00 0. -1.
</event>
<event>
 8    1  0.6493926E-009  0.1174231E+03  0.7561462E-02  0.1247410E+00
          2   -1    0    0  501    0  0.00000000000E+00  0.00000000000E+00  0.12639534671E+04  0.12639534671E+04  0.00000000000E+00 0. -1.
         -2   -1    0    0    0  501 -0.00000000000E+00 -0.00000000000E+00 -0.17362334019E+02  0.17362334019E+02  0.00000000000E+00 0.  1.
         25    2    1    2    0    0  0.86653668790E+02  0.27997180642E+02  0.82450702356E+03  0.83889958851E+03  0.12509191526E+03 0.  0.
         23    2    1    2    0    0 -0.86653668790E+02 -0.27997180642E+02  0.42208410955E+03  0.44241621264E+03  0.96355639338E+02 0.  0.
          5    1    3    3  502    0  0.77281903835E+02  0.24228254118E+00  0.78851830836E+03  0.79230748222E+03  0.41800000000E+01 0. -1.
         -5    1    3    3    0  502  0.93717649554E+01  0.27754898101E+02  0.35988715205E+02  0.46592106296E+02  0.41800000000E+01 0. -1.
        -11    1    4    4    0    0 -0.36562282511E+02  0.32776798587E+02  0.10850872895E+03  0.11910190295E+03  0.00000000000E+00 0.  1.
         11    1    4    4    0    0 -0.50091386279E+02 -0.60773979229E+02  0.31357538060E+03  0.32331430969E+03  0.00000000000E+00 0. -1.
</event>
<event>
 8    1  0.6493926E-009  0.1005091E+03  0.7561462E-02  0.1279229E+00
         -1   -1    0    0    0  501 -0.00000000000E+00  0.00000000000E+00  0.57540253515E+03  0.57540253515E+03  0.00000000000E+00 0.  1.
          1   -1    0    0  501    0  0.00000000000E+00 -0.00000000000E+00 -0.23118311023E+02  0.23118311023E+02  0.00000000000E+00 0. -1.
         25    2    1    2    0    0 -0.35170594662E+02 -0.18962839452E+02  0.34117123352E+03  0.36556955074E+03  0.12508687317E+03 0.  0.
         23    2    1    2    0    0  0.35170594662E+02  0.18962839452E+02  0.21111299061E+03  0.23295129544E+03  0.90005839985E+02 0.  0.
          5    1    3    3  502    0  0.80361275789E+01 -0.51487860736E+02  0.27539422376E+03  0.28031237937E+03  0.41800000000E+01 0.  1.
         -5    1    3    3    0  502 -0.43206722241E+02  0.32525021285E+02  0.65777009754E+02  0.85257171362E+02  0.41800000000E+01 0.  1.
        -11    1    4    4    0    0  0.10754876976E+02 -0.34277996662E+02  0.50367781441E+02  0.61867292176E+02  0.00000000000E+00 0. -1.
         11    1    4    4    0    0  0.24415717686E+02  0.53240836113E+02  0.16074520917E+03  0.17108400326E+03  0.00000000000E+00 0.  1.
</event>
<event>
 8    1  0.6493926E-009  0.1180847E+03  0.7561462E-02  0.1246290E+00
          1   -1    0    0  501    0  0.00000000000E+00  0.00000000000E+00  0.60018096225E+03  0.60018096225E+03  0.00000000000E+00 0. -1.
         -1   -1    0    0    0  501 -0.00000000000E+00 -0.00000000000E+00 -0.27307159825E+02  0.27307159825E+02  0.00000000000E+00 0.  1.
         25    2    1    2    0    0 -0.21116489086E+02 -0.46234112990E+02  0.30779125765E+03  0.33610484280E+03  0.12508999861E+03 0.  0.
         23    2    1    2    0    0  0.21116489086E+02  0.46234112990E+02  0.26508254477E+03  0.29138327927E+03  0.10978142184E+03 0.  0.
          5    1    3    3  502    0  0.22099063754E+00 -0.85124866880E+02  0.24265629707E+03  0.25718834092E+03  0.41800000000E+01 0. -1.
         -5    1    3    3    0  502 -0.21337479724E+02  0.38890753890E+02  0.65134960584E+02  0.78916501882E+02  0.41800000000E+01 0. -1.
        -11    1    4    4    0    0  0.51477675511E+02  0.54450770232E+02  0.23916127020E+03  0.25062511968E+03  0.00000000000E+00 0. -1.
         11    1    4    4    0    0 -0.30361186425E+02 -0.82166572413E+01  0.25921274576E+02  0.40758159587E+02  0.00000000000E+00 0.  1.
</event>
<event>
 8    1  0.6493926E-009  0.1625702E+03  0.7561462E-02  0.1185825E+00
         -2   -1    0    0    0  501 -0.00000000000E+00  0.00000000000E+00  0.27280449428E+03  0.27280449428E+03  0.00000000000E+00 0.  1.
          2   -1    0    0  501    0  0.00000000000E+00 -0.00000000000E+00 -0.11228853598E+03  0.11228853598E+03  0.00000000000E+00 0. -1.
         25    2    1    2    0    0  0.12230041143E+03  0.31484514799E+02  0.25523163373E+02  0.17957703533E+03  0.12509122448E+03 0.  0.
         23    2    1    2    0    0 -0.12230041143E+03 -0.31484514799E+02  0.13499279492E+03  0.20551599492E+03  0.89805925093E+02 0.  0.
          5    1    3    3  502    0  0.56774403599E+02 -0.43894462859E+02  0.33471209736E+02  0.79295971240E+02  0.41800000000E+01 0.  1.
         -5    1    3    3    0  502  0.65526007828E+02  0.75378977657E+02 -0.79480463634E+01  0.10028106409E+03  0.41800000000E+01 0.  1.
        -11    1    4    4    0    0 -0.46815948747E+02 -0.56860411794E+02  0.79973543393E+02  0.10872261554E+03  0.00000000000E+00 0. -1.
         11    1    4    4    0    0 -0.75484462680E+02  0.25375896996E+02  0.55019251528E+02  0.96793379386E+02  0.00000000000E+00 0.  1.
</event>
<event>
 8    1  0.6493926E-009  0.1447153E+03  0.7561462E-02  0.1207121E+00
         -1   -1    0    0    0  501 -0.00000000000E+00  0.00000000000E+00  0.31317305383E+02  0.31317305383E+02  0.00000000000E+00 0.  1.
          1   -1    0    0  501    0  0.00000000000E+00 -0.00000000000E+00 -0.83215328433E+03  0.83215328433E+03  0.00000000000E+00 0. -1.
         25    2    1    2    0    0 -0.61882345598E+02  0.10025057702E+03 -0.37345109568E+03  0.41108724983E+03  0.12508958077E+03 0.  0.
         23    2    1    2    0    0  0.61882345598E+02 -0.10025057702E+03 -0.42738488326E+03  0.45238333988E+03  0.90073552546E+02 0.  0.
          5    1    3    3  502    0 -0.95837078404E+01  0.89000170161E+02 -0.10832993081E+03  0.14059062577E+03  0.41800000000E+01 0.  1.
         -5    1    3    3    0  502 -0.52298637758E+02  0.11250406863E+02 -0.26512116488E+03  0.27049662407E+03  0.41800000000E+01 0.  1.
        -11    1    4    4    0    0  0.73403109195E+02 -0.37625921927E+02 -0.20242972764E+03  0.21858984669E+03  0.00000000000E+00 0. -1.
         11    1    4    4    0    0 -0.11520763596E+02 -0.62624655097E+02 -0.22495515562E+03  0.23379349319E+03  0.00000000000E+00 0.  1.
</event>
<event>
 8    1  0.6493926E-009  0.1788218E+03  0.7561462E-02  0.1168948E+00
          1   -1    0    0  501    0  0.00000000000E+00  0.00000000000E+00  0.11258541609E+03  0.11258541609E+03  0.00000000000E+00 0. -1.
         -1   -1    0    0    0  501 -0.00000000000E+00 -0.00000000000E+00 -0.34774308229E+03  0.34774308229E+03  0.00000000000E+00 0.  1.
         25    2    1    2    0    0  0.41112834703E+02 -0.15678437857E+03 -0.86772415304E+02  0.22237059218E+03  0.12509045393E+03 0.  0.
         23    2    1    2    0    0 -0.41112834703E+02  0.15678437857E+03 -0.14838525089E+03  0.23795790620E+03  0.91291707729E+02 0.  0.
          5    1    3    3  502    0 -0.88220371997E+01  0.22416887449E+01  0.21394903950E+02  0.23623459184E+02  0.41800000000E+01 0.  1.
         -5    1    3    3    0  502  0.49934871903E+02 -0.15902606732E+03 -0.10816731925E+03  0.19874713299E+03  0.41800000000E+01 0.  1.
        -11    1    4    4    0    0  0.43575827318E+01  0.12578685769E+03 -0.75996791454E+02  0.14702664523E+03  0.00000000000E+00 0.  1.
         11    1    4    4    0    0 -0.45470417435E+02  0.30997520877E+02 -0.72388459440E+02  0.90931260974E+02  0.00000000000E+00 0. -1.
</event>
<event>
 8    1  0.6493926E-009  0.1334910E+03  0.7561462E-02  0.1222366E+00
          1   -1    0    0  501    0  0.00000000000E+00  0.00000000000E+00  0.69081925202E+03  0.69081925202E+03  0.00000000000E+00 0. -1.
         -1   -1    0    0    0  501 -0.00000000000E+00 -0.00000000000E+00 -0.35208957837E+02  0.35208957837E+02  0.00000000000E+00 0.  1.
         25    2    1    2    0    0  0.10046887590E+03 -0.51539500921E+02  0.34450523161E+03  0.38351269104E+03  0.12509122431E+03 0.  0.
         23    2    1    2    0    0 -0.10046887590E+03  0.51539500921E+02  0.31110506257E+03  0.34251551882E+03  0.88205473140E+02 0.  0.
          5    1    3    3  502    0  0.22379612667E+02  0.26520404210E+02  0.19218055474E+03  0.19533309223E+03  0.41800000000E+01 0.  1.
         -5    1    3    3    0  502  0.78089263237E+02 -0.78059905131E+02  0.15232467688E+03  0.18817959881E+03  0.41800000000E+01 0.  1.
        -11    1    4    4    0    0  0.45672250244E-01  0.14369595090E+02  0.98788346080E+00  0.14403585065E+02  0.00000000000E+00 0.  1.
         11    1    4    4    0    0 -0.10051454815E+03  0.37169905831E+02  0.31011717911E+03  0.32811193375E+03  0.00000000000E+00 0. -1.
</event>
<event>
 8    1  0.6493926E-009  0.1321712E+03  0.7561462E-02  0.1224269E+00
         -2   -1    0    0    0  501 -0.00000000000E+00  0.00000000000E+00  0.21662913133E+02  0.21662913133E+02  0.00000000000E+00 0.  1.
          2   -1    0    0  501    0  0.00000000000E+00 -0.00000000000E+00 -0.90577261624E+03  0.90577261624E+03  0.00000000000E+00 0. -1.
         25    2    1    2    0    0 -0.80923286805E+02  0.34054112512E+02 -0.42863336682E+03  0.45506438242E+03  0.12509503617E+03 0.  0.
         23    2    1    2    0    0  0.80923286805E+02 -0.34054112512E+02 -0.45547633629E+03  0.47237114695E+03  0.89261114854E+02 0.  0.
          5    1    3    3  502    0 -0.61124617995E+02 -0.34334350209E+02 -0.29868895143E+03  0.30683485564E+03  0.41800000000E+01 0. -1.
         -5    1    3    3    0  502 -0.19798668810E+02  0.68388462721E+02 -0.12994441539E+03  0.14822952679E+03  0.41800000000E+01 0. -1.
        -11    1    4    4    0    0  0.52669346413E+02  0.24263651477E+02 -0.16951806134E+03  0.17916237873E+03  0.00000000000E+00 0.  1.
         11    1    4    4    0    0  0.28253940392E+02 -0.58317763989E+02 -0.28595827496E+03  0.29320876822E+03  0.00000000000E+00 0. -1.
</event>
<event>
 8    1  0.6493926E-009  0.1090942E+03  0.7561462E-02  0.1262256E+00
         -4   -1    0    0    0  501 -0.00000000000E+00  0.00000000000E+00  0.10762684761E+03  0.10762684761E+03  0.00000000000E+00 0.  1.
          4   -1    0    0  501    0  0.00000000000E+00 -0.00000000000E+00 -0.19521006539E+03  0.19521006539E+03  0.00000000000E+00 0. -1.
         25    2    1    2    0    0 -0.41429229771E+02  0.59687028012E+02  0.17952154165E+02  0.14577405720E+03  0.12509545764E+03 0.  0.
         23    2    1    2    0    0  0.41429229771E+02 -0.59687028012E+02 -0.10553537194E+03  0.15706285580E+03  0.90841089532E+02 0.  0.
          5    1    3    3  502    0  0.64906521299E+01  0.62182559311E+02  0.56275911181E+02  0.84221433298E+02  0.41800000000E+01 0.  1.
         -5    1    3    3    0  502 -0.47919881901E+02 -0.24955312985E+01 -0.38323757016E+02  0.61552623906E+02  0.41800000000E+01 0.  1.
        -11    1    4    4    0    0 -0.23894127952E+02 -0.17096324339E+02 -0.59880106237E+02  0.66699631030E+02  0.00000000000E+00 0. -1.
         11    1    4    4    0    0  0.65323357723E+02 -0.42590703673E+02 -0.45655265707E+02  0.90363224767E+02  0.00000000000E+00 0.  1.
</event>
<event>
 8    1  0.6493926E-009  0.7473915E+02  0.7561462E-02  0.1344681E+00
         -4   -1    0    0    0  501 -0.00000000000E+00  0.00000000000E+00  0.42901730012E+02  0.42901730012E+02  0.00000000000E+00 0.  1.
          4   -1    0    0  501    0  0.00000000000E+00 -0.00000000000E+00 -0.34707463629E+03  0.34707463629E+03  0.00000000000E+00 0. -1.
         25    2    1    2    0    0  0.16602043652E+02 -0.39255477126E+02 -0.21942854833E+03  0.25615279092E+03  0.12509494049E+03 0.  0.
         23    2    1    2    0    0 -0.16602043652E+02  0.39255477126E+02 -0.84744357941E+02  0.13382357538E+03  0.94395565499E+02 0.  0.
          5    1    3    3  502    0  0.13550341943E+02  0.60317266932E+01  0.12465970113E+02  0.19820855292E+02  0.41800000000E+01 0. -1.
         -5    1    3    3    0  502  0.30517017091E+01 -0.45287203819E+02 -0.23189451844E+03  0.23633193563E+03  0.41800000000E+01 0. -1.
        -11    1    4    4    0    0  0.52729489248E+01 -0.22427713982E+02  0.41758701962E+01  0.23414615878E+02  0.00000000000E+00 0.  1.
         11    1    4    4    0    0 -0.21874992577E+02  0.61683191108E+02 -0.88920228137E+02  0.11040895950E+03  0.00000000000E+00 0. -1.
</event>
<event>
 8    1  0.6493926E-009  0.3054692E+03  0.7561462E-02  0.1082538E+00
          2   -1    0    0  501    0  0.00000000000E+00  0.00000000000E+00  0.22097571615E+04  0.22097571615E+04  0.00000000000E+00 0. -1.
         -2   -1    0    0    0  501 -0.00000000000E+00 -0.00000000000E+00 -0.53414816269E+02  0.53414816269E+02  0.00000000000E+00 0.  1.
         25    2    1    2    0    0 -0.24773838743E+03  0.14491019794E+03  0.58840244135E+03  0.66651230697E+03  0.12509175948E+03 0.  0.
         23    2    1    2    0    0  0.24773838743E+03 -0.14491019794E+03  0.15679399039E+04  0.15966596708E+04  0.92267481179E+02 0.  0.
          5    1    3    3  502    0 -0.15491652979E+03  0.22219650422E+02  0.25363599997E+03  0.29806297480E+03  0.41800000000E+01 0.  1.
         -5    1    3    3    0  502 -0.92821857641E+02  0.12269054752E+03  0.33476644138E+03  0.36844933217E+03  0.41800000000E+01 0.  1.
        -11    1    4    4    0    0  0.14003466375E+03 -0.13121899869E+03  0.10623089423E+04  0.10795037849E+04  0.00000000000E+00 0. -1.
         11    1    4    4    0    0  0.10770372367E+03 -0.13691199250E+02  0.50563096158E+03  0.51715588592E+03  0.00000000000E+00 0.  1.
</event>
<event>
 7    1  0.6493926E-009  0.1408430E+03  0.7561462E-02  0.1212199E+00
          2   -1    0    0  501    0  0.00000000000E+00  0.00000000000E+00  0.26864437438E+03  0.26864437438E+03  0.00000000000E+00 0. -1.
         -2   -1    0    0    0  501 -0.00000000000E+00 -0.00000000000E+00 -0.12710669317E+03  0.12710669317E+03  0.00000000000E+00 0.  1.
         25    2    1    2    0    0 -0.47118727869E+02  0.56318783203E+02  0.17060603484E+03  0.22393150985E+03  0.12508765775E+03 0.  0.
          5    1    3    3  502    0 -0.84417960305E+02  0.39416656031E+02  0.74441905908E+02  0.11932784482E+03  0.41800000000E+01 0.  1.
         -5    1    3    3    0  502  0.37299232436E+02  0.16902127172E+02  0.96164128935E+02  0.10460366503E+03  0.41800000000E+01 0.  1.
        -11    1    1    2    0    0 -0.29839112311E+02 -0.63308224443E+02  0.28387187750E+02  0.75525732926E+02  0.00000000000E+00 0. -1.
         11    1    1    2    0    0  0.76957840180E+02  0.69894412401E+01 -0.57455541387E+02  0.96293824776E+02  0.00000000000E+00 0.  1.
</event>
<event>
 8    1  0.6493926E-009  0.1462525E+03  0.7561462E-02  0.1205155E+00
          2   -1    0    0  501    0  0.00000000000E+00  0.00000000000E+00  0.47472527864E+03  0.47472527864E+03  0.00000000000E+00 0.  1.
         -2   -1    0    0    0  501 -0.00000000000E+00 -0.00000000000E+00 -0.50631491820E+02  0.50631491820E+02  0.00000000000E+00 0. -1.
         25    2    1    2    0    0  0.14363105547E+02 -0.11020709866E+03  0.22532771861E+03  0.28066289340E+03  0.12508867079E+03 0.  0.
         23    2    1    2    0    0 -0.14363105547E+02  0.11020709866E+03  0.19876606821E+03  0.24469387706E+03  0.89527873890E+02 0.  0.
          5    1    3    3  502    0 -0.50536762022E+02 -0.17196575351E+02  0.64642671943E+02  0.83939466018E+02  0.41800000000E+01 0.  1.
         -5    1    3    3    0  502  0.64899867569E+02 -0.93010523314E+02  0.16068504667E+03  0.19672342738E+03  0.41800000000E+01 0.  1.
        -11    1    4    4    0    0 -0.37045474186E+02  0.73714729566E+02  0.17960744693E+03  0.19764883886E+03  0.00000000000E+00 0. -1.
         11    1    4    4    0    0  0.22682368640E+02  0.36492369099E+02  0.19158621281E+02  0.47045038197E+02  0.00000000000E+00 0.  1.
</event>
<event>
 8    1  0.6493926E-009  0.9938511E+02  0.7561462E-02  0.1281594E+00
          1   -1    0    0  501    0  0.00000000000E+00  0.00000000000E+00  0.18308864474E+02  0.18308864474E+02  0.00000000000E+00 0. -1.
         -1   -1    0    0    0  501 -0.00000000000E+00 -0.00000000000E+00 -0.80188811801E+03  0.80188811801E+03  0.00000000000E+00 0.  1.
         25    2    1    2    0    0 -0.34276820893E+02  0.31867229926E+02 -0.34784529066E+03  0.37260403517E+03  0.12508796904E+03 0.  0.
         23    2    1    2    0    0  0.34276820893E+02 -0.31867229926E+02 -0.43573396288E+03  0.44759294732E+03  0.91021641859E+02 0.  0.
          5    1    3    3  502    0 -0.11211476938E+02  0.59263975041E+02 -0.32349278559E+03  0.32909416689E+03  0.41800000000E+01 0. -1.
         -5    1    3    3    0  502 -0.23065343955E+02 -0.27396745116E+02 -0.24352505071E+02  0.43509868282E+02  0.41800000000E+01 0. -1.
        -11    1    4    4    0    0 -0.22738387401E+01  0.30167036685E+02 -0.13789157909E+03  0.14117120113E+03  0.00000000000E+00 0.  1.
         11    1    4    4    0    0  0.36550659633E+02 -0.62034266610E+02 -0.29784238380E+03  0.30642174619E+03  0.00000000000E+00 0. -1.
</event>
<event>
 8    1  0.6493926E-009  0.2989540E+03  0.7561462E-02  0.1085765E+00
          2   -1    0    0  501    0  0.00000000000E+00  0.00000000000E+00  0.97714968714E+03  0.97714968714E+03  0.00000000000E+00 0. -1.
         -2   -1    0    0    0  501 -0.00000000000E+00 -0.00000000000E+00 -0.11140389017E+03  0.11140389017E+03  0.00000000000E+00 0.  1.
         25    2    1    2    0    0 -0.27309782373E+03  0.10778500540E+03  0.60763016049E+03  0.68633980794E+03  0.12509153173E+03 0.  0.
         23    2    1    2    0    0  0.27309782373E+03 -0.10778500540E+03  0.25811563647E+03  0.40221376937E+03  0.94616096765E+02 0.  0.
          5    1    3    3  502    0 -0.18271087426E+03  0.98098693709E+02  0.52069047628E+03  0.56048431001E+03  0.41800000000E+01 0.  1.
         -5    1    3    3    0  502 -0.90386949468E+02  0.96863116872E+01  0.86939684215E+02  0.12585549793E+03  0.41800000000E+01 0.  1.
        -11    1    4    4    0    0  0.11368295806E+03 -0.14033056646E+02  0.14737094028E+03  0.18665191045E+03  0.00000000000E+00 0. -1.
         11    1    4    4    0    0  0.15941486567E+03 -0.93751948750E+02  0.11074469619E+03  0.21556185892E+03  0.00000000000E+00 0.  1.
</event>
<event>
 8    1  0.6493926E-009  0.1040239E+03  0.7561462E-02  0.1272055E+00
         -2   -1    0    0    0  501 -0.00000000000E+00  0.00000000000E+00  0.74761709650E+02  0.74761709650E+02  0.00000000000E+00 0.  1.
          2   -1    0    0  501    0  0.00000000000E+00 -0.00000000000E+00 -0.27157641300E+03  0.27157641300E+03  0.00000000000E+00 0. -1.
         25    2    1    2    0    0  0.54326063351E+02 -0.15938327480E+02 -0.15554068838E+02  0.13818246888E+03  0.12508842554E+03 0.  0.
         23    2    1    2    0    0 -0.54326063351E+02  0.15938327480E+02 -0.18126063451E+03  0.20815565377E+03  0.85252607773E+02 0.  0.
          5    1    3    3  502    0  0.70138589338E+02 -0.39468473956E+02 -0.48861045556E+02  0.94244662042E+02  0.41800000000E+01 0. -1.
         -5    1    3    3    0  502 -0.15812525987E+02  0.23530146475E+02  0.33306976718E+02  0.43937806833E+02  0.41800000000E+01 0.  1.
        -11    1    4    4    0    0 -0.21610111760E+02 -0.33293012826E+02 -0.47393423900E+02  0.61818753322E+02  0.00000000000E+00 0.  1.
         11    1    4    4    0    0 -0.32715951591E+02  0.49231340306E+02 -0.13386721061E+03  0.14633690045E+03  0.00000000000E+00 0. -1.
</event>
<event>
 8    1  0.6493926E-009  0.1090025E+03  0.7561462E-02  0.1262428E+00
         -1   -1    0    0    0  501 -0.00000000000E+00  0.00000000000E+00  0.44020470604E+02  0.44020470604E+02  0.00000000000E+00 0.  1.
          1   -1    0    0  501    0  0.00000000000E+00 -0.00000000000E+00 -0.28090074343E+03  0.28090074343E+03  0.00000000000E+00 0. -1.
         25    2    1    2    0    0  0.34141224375E+01 -0.24618323931E+02 -0.12068643429E+03  0.17559800092E+03  0.12510685193E+03 0.  0.
         23    2    1    2    0    0 -0.34141224375E+01  0.24618323931E+02 -0.11619383854E+03  0.14932321312E+03  0.90436141872E+02 0.  0.
          5    1    3    3  502    0 -0.37750091830E+02  0.36909427194E+02 -0.43130580724E+02  0.68301498099E+02  0.41800000000E+01 0. -1.
         -5    1    3    3    0  502  0.41164214268E+02 -0.61527751125E+02 -0.77555853571E+02  0.10729650282E+03  0.41800000000E+01 0. -1.
        -11    1    4    4    0    0  0.12968576827E+02  0.54931312069E+02 -0.53413352905E+02  0.77708553577E+02  0.00000000000E+00 0.  1.
         11    1    4    4    0    0 -0.16382699264E+02 -0.30312988137E+02 -0.62780485631E+02  0.71614659540E+02  0.00000000000E+00 0. -1.
</event>
<event>
 8    1  0.6493926E-009  0.1541452E+03  0.7561462E-02  0.1195470E+00
          4   -1    0    0  501    0  0.00000000000E+00  0.00000000000E+00  0.24177924068E+03  0.24177924068E+03  0.00000000000E+00 0. -1.
         -4   -1    0    0    0  501 -0.00000000000E+00 -0.00000000000E+00 -0.16132038232E+03  0.16132038232E+03  0.00000000000E+00 0.  1.
         25    2    1    2    0    0 -0.98811649022E+02  0.97778666825E+02 -0.48118450399E+02  0.19310004374E+03  0.12509129448E+03 0.  0.
         23    2    1    2    0    0  0.98811649022E+02 -0.97778666825E+02  0.12857730875E+03  0.20999957926E+03  0.90792561891E+02 0.  0.
          5    1    3    3  502    0 -0.87123014078E+02  0.41628590260E+02 -0.81659682849E+02  0.12652721175E+03  0.41800000000E+01 0. -1.
         -5    1    3    3    0  502 -0.11688634944E+02  0.56150076565E+02  0.33541232451E+02  0.66572831992E+02  0.41800000000E+01 0. -1.
        -11    1    4    4    0    0  0.55909397820E+02 -0.10504731184E+02  0.11918891421E+02  0.58122888043E+02  0.00000000000E+00 0.  1.
         11    1    4    4    0    0  0.42902251203E+02 -0.87273935641E+02  0.11665841733E+03  0.15187669122E+03  0.00000000000E+00 0. -1.
</event>
<event>
 8    1  0.6493926E-009  0.1111431E+03  0.7561462E-02  0.1258468E+00
         -2   -1    0    0    0  501 -0.00000000000E+00  0.00000000000E+00  0.23946304471E+02  0.23946304471E+02  0.00000000000E+00 0.  1.
          2   -1    0    0  501    0  0.00000000000E+00 -0.00000000000E+00 -0.66117685798E+03  0.66117685798E+03  0.00000000000E+00 0. -1.
         25    2    1    2    0    0 -0.61401449039E+02 -0.47814585520E+01 -0.29217543868E+03  0.32373920967E+03  0.12509032186E+03 0.  0.
         23    2    1    2    0    0  0.61401449039E+02  0.47814585520E+01 -0.34505511483E+03  0.36138395278E+03  0.87990503841E+02 0.  0.
          5    1    3    3  502    0 -0.75472329636E+02  0.29820961163E+02 -0.10469879171E+03  0.13253177600E+03  0.41800000000E+01 0. -1.
         -5    1    3    3    0  502  0.14070880597E+02 -0.34602419715E+02 -0.18747664697E+03  0.19120743367E+03  0.41800000000E+01 0. -1.
        -11    1    4    4    0    0  0.20232745548E+00  0.35129900659E+02 -0.16743705850E+03  0.17108278527E+03  0.00000000000E+00 0. -1.
         11    1    4    4    0    0  0.61199121583E+02 -0.30348442107E+02 -0.17761805633E+03  0.19030116751E+03  0.00000000000E+00 0.  1.
</event>
<event>
 8    1  0.6493926E-009  0.1061854E+03  0.7561462E-02  0.1267802E+00
         -2   -1    0    0    0  501 -0.00000000000E+00  0.00000000000E+00  0.20384140211E+03  0.20384140211E+03  0.00000000000E+00 0.  1.
          2   -1    0    0  501    0  0.00000000000E+00 -0.00000000000E+00 -0.68770832369E+02  0.68770832369E+02  0.00000000000E+00 0. -1.
         25    2    1    2    0    0 -0.34287700420E+02  0.47984982000E+01  0.36512547141E+02  0.13482907309E+03  0.12508813240E+03 0.  0.
         23    2    1    2    0    0  0.34287700420E+02 -0.47984982000E+01  0.98558022598E+02  0.13778316139E+03  0.89843440263E+02 0.  0.
          5    1    3    3  502    0 -0.77236179223E+02 -0.11051571779E+02  0.41701820328E+02  0.88566804382E+02  0.41800000000E+01 0.  1.
         -5    1    3    3    0  502  0.42948478803E+02  0.15850069979E+02 -0.51892731870E+01  0.46262268708E+02  0.41800000000E+01 0.  1.
        -11    1    4    4    0    0  0.60122197185E+02  0.56739987324E+01  0.90440211869E+02  0.10874881507E+03  0.00000000000E+00 0.  1.
         11    1    4    4    0    0 -0.25834496765E+02 -0.10472496932E+02  0.81178107288E+01  0.29034346318E+02  0.00000000000E+00 0. -1.
</event>
<event>
 8    1  0.6493926E-009  0.9643791E+02  0.7561462E-02  0.1287970E+00
          2   -1    0    0  501    0  0.00000000000E+00  0.00000000000E+00  0.41006227781E+03  0.41006227781E+03  0.00000000000E+00 0. -1.
         -2   -1    0    0    0  501 -0.00000000000E+00 -0.00000000000E+00 -0.29891528869E+02  0.29891528869E+02  0.00000000000E+00 0.  1.
         25    2    1    2    0    0 -0.21591724094E+02 -0.52471953431E+02  0.22858806564E+03  0.26668351832E+03  0.12509231290E+03 0.  0.
         23    2    1    2    0    0  0.21591724094E+02  0.52471953431E+02  0.15158268330E+03  0.17327028835E+03  0.61852845559E+02 0.  0.
          5    1    3    3  502    0  0.17696665565E+01  0.39904327910E+02  0.49142339866E+02  0.63465967835E+02  0.41800000000E+01 0.  1.
         -5    1    3    3    0  502 -0.23361390651E+02 -0.92376281342E+02  0.17944572577E+03  0.20321755049E+03  0.41800000000E+01 0.  1.
        -11    1    4    4    0    0  0.14558689445E+02  0.24534066045E+02  0.13888825200E+03  0.14178794864E+03  0.00000000000E+00 0. -1.
         11    1    4    4    0    0  0.70330346496E+01  0.27937887387E+02  0.12694431298E+02  0.31482339716E+02  0.00000000000E+00 0.  1.
</event>
<event>
 8    1  0.6493926E-009  0.8035273E+02  0.7561462E-02  0.1328053E+00
          2   -1    0    0  501    0  0.00000000000E+00  0.00000000000E+00  0.99372694343E+03  0.99372694343E+03  0.00000000000E+00 0. -1.
         -2   -1    0    0    0  501 -0.00000000000E+00 -0.00000000000E+00 -0.15100397400E+02  0.15100397400E+02  0.00000000000E+00 0.  1.
         25    2    1    2    0    0  0.43786560693E+02  0.18686723838E+02  0.67788275281E+03  0.69097016402E+03  0.12509310315E+03 0.  0.
         23    2    1    2    0    0 -0.43786560693E+02 -0.18686723838E+02  0.30074379321E+03  0.31785717681E+03  0.91213481175E+02 0.  0.
          5    1    3    3  502    0  0.42253318813E+02 -0.28216450145E+01  0.64977283550E+02  0.77671258576E+02  0.41800000000E+01 0. -1.
         -5    1    3    3    0  502  0.15332418796E+01  0.21508368853E+02  0.61290546926E+03  0.61329890544E+03  0.41800000000E+01 0. -1.
        -11    1    4    4    0    0 -0.14227443472E+01  0.30920465430E+02  0.15673157081E+03  0.15975883285E+03  0.00000000000E+00 0. -1.
         11    1    4    4    0    0 -0.42363816346E+02 -0.49607189268E+02  0.14401222240E+03  0.15809834396E+03  0.00000000000E+00 0.  1.
</event>
<event>
 8    1  0.6493926E-009  0.1143445E+03  0.7561462E-02  0.1252730E+00
         -3   -1    0    0    0  501 -0.00000000000E+00  0.00000000000E+00  0.28369583313E+02  0.28369583313E+02  0.00000000000E+00 0.  1.
          3   -1    0    0  501    0  0.00000000000E+00 -0.00000000000E+00 -0.50459089698E+03  0.50459089698E+03  0.00000000000E+00 0. -1.
         25    2    1    2    0    0 -0.43501340997E+02  0.20249241473E+02 -0.23329066831E+03  0.26902599041E+03  0.12509216262E+03 0.  0.
         23    2    1    2    0    0  0.43501340997E+02 -0.20249241473E+02 -0.24293064536E+03  0.26393448988E+03  0.91343954617E+02 0.  0.
          5    1    3    3  502    0 -0.86455261614E+02  0.22077596260E+02 -0.17494132117E+03  0.19642777495E+03  0.41800000000E+01 0. -1.
         -5    1    3    3    0  502  0.42953920617E+02 -0.18283547869E+01 -0.58349347137E+02  0.72598215466E+02  0.41800000000E+01 0. -1.
        -11    1    4    4    0    0  0.74738235790E+01  0.31910100499E+02 -0.13354215517E+03  0.13750498086E+03  0.00000000000E+00 0. -1.
         11    1    4    4    0    0  0.36027517418E+02 -0.52159341972E+02 -0.10938849019E+03  0.12642950902E+03  0.00000000000E+00 0.  1.
</event>
<event>
 8    1  0.6493926E-009  0.3149748E+03  0.7561462E-02  0.1077986E+00
         -2   -1    0    0    0  501 -0.00000000000E+00  0.00000000000E+00  0.95539447534E+02  0.95539447534E+02  0.00000000000E+00 0. -1.
          2   -1    0    0  501    0  0.00000000000E+00 -0.00000000000E+00 -0.13564504027E+04  0.13564504027E+04  0.00000000000E+00 0.  1.
         25    2    1    2    0    0  0.16066943415E+03 -0.26784084240E+03 -0.35398059394E+03  0.48836820084E+03  0.12509138571E+03 0.  0.
         23    2    1    2    0    0 -0.16066943415E+03  0.26784084240E+03 -0.90693036128E+03  0.96362164945E+03  0.92144555709E+02 0.  0.
          5    1    3    3  502    0  0.15598418704E+03 -0.24378211730E+03 -0.25319075547E+03  0.38455665171E+03  0.41800000000E+01 0. -1.
         -5    1    3    3    0  502  0.46852471099E+01 -0.24058725101E+02 -0.10078983846E+03  0.10381154912E+03  0.41800000000E+01 0. -1.
        -11    1    4    4    0    0 -0.10784306855E+03  0.13571724436E+03 -0.37741474030E+03  0.41532057985E+03  0.00000000000E+00 0. -1.
         11    1    4    4    0    0 -0.52826365597E+02  0.13212359804E+03 -0.52951562098E+03  0.54830106959E+03  0.00000000000E+00 0.  1.
</event>
<event>
 8    1  0.6493926E-009  0.1288576E+03  0.7561462E-02  0.1229161E+00
          1   -1    0    0  501    0  0.00000000000E+00  0.00000000000E+00  0.61971946306E+02  0.61971946306E+02  0.00000000000E+00 0. -1.
         -1   -1    0    0    0  501 -0.00000000000E+00 -0.00000000000E+00 -0.44208051613E+03  0.44208051613E+03  0.00000000000E+00 0.  1.
         25    2    1    2    0    0  0.12001066829E+03  0.87877247402E+01 -0.14776238553E+03  0.22795102177E+03  0.12509261025E+03 0.  0.
         23    2    1    2    0    0 -0.12001066829E+03 -0.87877247402E+01 -0.23234618429E+03  0.27610144067E+03  0.88133260307E+02 0.  0.
          5    1    3    3  502    0  0.99943254187E+02  0.11389971463E+02 -0.25366793436E+02  0.10382356243E+03  0.41800000000E+01 0. -1.
         -5    1    3    3    0  502  0.20067414104E+02 -0.26022467223E+01 -0.12239559210E+03  0.12412745934E+03  0.41800000000E+01 0. -1.
        -11    1    4    4    0    0 -0.74499651848E+02 -0.36635827300E+02 -0.19209152396E+03  0.20926427202E+03  0.00000000000E+00 0.  1.
         11    1    4    4    0    0 -0.45511016443E+02  0.27848102560E+02 -0.40254660334E+02  0.66837168645E+02  0.00000000000E+00 0. -1.
</event>
<event>
 8    1  0.6493926E-009  0.1120487E+03  0.7561462E-02  0.1256822E+00
         -2   -1    0    0    0  501 -0.00000000000E+00  0.00000000000E+00  0.31989007297E+03  0.31989007297E+03  0.00000000000E+00 0.  1.
          2   -1    0    0  501    0  0.00000000000E+00 -0.00000000000E+00 -0.52062579410E+02  0.52062579410E+02  0.00000000000E+00 0. -1.
         25    2    1    2    0    0  0.47672996088E+02  0.33412864888E+02  0.92729739307E+02  0.16625513941E+03  0.12511128140E+03 0.  0.
         23    2    1    2    0    0 -0.47672996088E+02 -0.33412864888E+02  0.17509775425E+03  0.20569751296E+03  0.90901645751E+02 0.  0.
          5    1    3    3  502    0 -0.25617433775E+02 -0.17845472194E+02  0.65486007494E+02  0.72667760173E+02  0.41800000000E+01 0.  1.
         -5    1    3    3    0  502  0.73290429863E+02  0.51258337082E+02  0.27243731813E+02  0.93587379240E+02  0.41800000000E+01 0.  1.
        -11    1    4    4    0    0  0.16574341822E+02  0.15207126138E+02  0.16800432672E+02  0.28075256547E+02  0.00000000000E+00 0. -1.
         11    1    4    4    0    0 -0.64247337910E+02 -0.48619991026E+02  0.15829732158E+03  0.17762225642E+03  0.00000000000E+00 0.  1.
</event>
<event>
 8    1  0.6493926E-009  0.1410194E+03  0.7561462E-02  0.1211964E+00
          1   -1    0    0  501    0  0.00000000000E+00  0.00000000000E+00  0.22864607668E+03  0.22864607668E+03  0.00000000000E+00 0. -1.
         -1   -1    0    0    0  501 -0.00000000000E+00 -0.00000000000E+00 -0.16130167545E+03  0.16130167545E+03  0.00000000000E+00 0.  1.
         25    2    1    2    0    0 -0.95008331190E+02  0.31396499411E+02  0.15888247282E+03  0.22562271531E+03  0.12509854646E+03 0.  0.
         23    2    1    2    0    0  0.95008331190E+02 -0.31396499411E+02 -0.91538071593E+02  0.16432503682E+03  0.92796422367E+02 0.  0.
          5    1    3    3  502    0 -0.98926374065E+02 -0.14090304191E+02  0.60001071462E+02  0.11663003530E+03  0.41800000000E+01 0.  1.
         -5    1    3    3    0  502  0.39180428749E+01  0.45486803602E+02  0.98881401356E+02  0.10899268001E+03  0.41800000000E+01 0.  1.
        -11    1    4    4    0    0  0.46941729501E+02 -0.63066223499E+02 -0.47549342517E+02  0.91879347455E+02  0.00000000000E+00 0. -1.
         11    1    4    4    0    0  0.48066601689E+02  0.31669724088E+02 -0.43988729076E+02  0.72445689364E+02  0.00000000000E+00 0.  1.
</event>
<event>
 8    1  0.6493926E-009  0.6018840E+02  0.7561462E-02  0.1397043E+00
          2   -1    0    0  501    0  0.00000000000E+00  0.00000000000E+00  0.28157092373E+03  0.28157092373E+03  0.00000000000E+00 0. -1.
         -2   -1    0    0    0  501 -0.00000000000E+00 -0.00000000000E+00 -0.55392750506E+02  0.55392750506E+02  0.00000000000E+00 0.  1.
         25    2    1    2    0    0  0.13062506932E+02 -0.11668014634E+01  0.21284831166E+03  0.24723279682E+03  0.12509061330E+03 0.  0.
         23    2    1    2    0    0 -0.13062506932E+02  0.11668014634E+01  0.13329861563E+02  0.89730877414E+02  0.87760780758E+02 0.  0.
          5    1    3    3  502    0 -0.24082295802E+02  0.89720073897E+00 -0.60176791029E+01  0.25188227449E+02  0.41800000000E+01 0. -1.
         -5    1    3    3    0  502  0.37144802734E+02 -0.20640022023E+01  0.21886599076E+03  0.22204456937E+03  0.41800000000E+01 0. -1.
        -11    1    4    4    0    0 -0.33716346198E+02  0.11189394357E+02 -0.26115732366E+02  0.44091110487E+02  0.00000000000E+00 0.  1.
         11    1    4    4    0    0  0.20653839265E+02 -0.10022592893E+02  0.39445593930E+02  0.45639766927E+02  0.00000000000E+00 0. -1.
</event>
<event>
 8    1  0.6493926E-009  0.1039984E+03  0.7561462E-02  0.1272106E+00
          2   -1    0    0  501    0  0.00000000000E+00  0.00000000000E+00  0.74326634666E+02  0.74326634666E+02  0.00000000000E+00 0.  1.
         -2   -1    0    0    0  501 -0.00000000000E+00 -0.00000000000E+00 -0.19214901417E+03  0.19214901417E+03  0.00000000000E+00 0. -1.
         25    2    1    2    0    0 -0.12607312606E+02  0.30076408813E+02 -0.11734915701E+03  0.17459074672E+03  0.12509024539E+03 0.  0.
         23    2    1    2    0    0  0.12607312606E+02 -0.30076408813E+02 -0.47322249754E+00  0.91884902115E+02  0.85901551784E+02 0.  0.
          5    1    3    3  502    0  0.55378578628E+02  0.19269383265E+01 -0.50583885868E+02  0.75144540531E+02  0.41800000000E+01 0.  1.
         -5    1    3    3    0  502 -0.67985891234E+02  0.28149470487E+02 -0.66765271138E+02  0.99446206191E+02  0.41800000000E+01 0.  1.
        -11    1    4    4    0    0  0.23905674938E+01 -0.53300236051E+02 -0.22863505299E+02  0.58046273357E+02  0.00000000000E+00 0. -1.
         11    1    4    4    0    0  0.10216745112E+02  0.23223827238E+02  0.22390282802E+02  0.33838628758E+02  0.00000000000E+00 0.  1.
</event>
<event>
 8    1  0.6493926E-009  0.1387781E+03  0.7561462E-02  0.1214983E+00
         -2   -1    0    0    0  501 -0.00000000000E+00  0.00000000000E+00  0.41431702768E+02  0.41431702768E+02  0.00000000000E+00 0.  1.
          2   -1    0    0  501    0  0.00000000000E+00 -0.00000000000E+00 -0.69641486785E+03  0.69641486785E+03  0.00000000000E+00 0. -1.
         25    2    1    2    0    0 -0.11116203165E+02  0.11725920126E+03 -0.51803109502E+03  0.54578324593E+03  0.12509934403E+03 0.  0.
         23    2    1    2    0    0  0.11116203165E+02 -0.11725920126E+03 -0.13695207006E+03  0.19206332469E+03  0.65262247451E+02 0.  0.
          5    1    3    3  502    0 -0.53070844550E+02  0.47497022830E+02 -0.12096647310E+03  0.14043803520E+03  0.41800000000E+01 0. -1.
         -5    1    3    3    0  502  0.41954641385E+02  0.69762178433E+02 -0.39706462193E+03  0.40534521073E+03  0.41800000000E+01 0. -1.
        -11    1    4    4    0    0  0.26419060813E+02 -0.62808160725E+02 -0.11003655304E+03  0.12942517078E+03  0.00000000000E+00 0. -1.
         11    1    4    4    0    0 -0.15302857648E+02 -0.54451040538E+02 -0.26915517023E+02  0.62638153904E+02  0.00000000000E+00 0.  1.
</event>
<event>
 8    1  0.6493926E-009  0.2022594E+03  0.7561462E-02  0.1147847E+00
          2   -1    0    0  501    0  0.00000000000E+00  0.00000000000E+00  0.24166372076E+04  0.24166372076E+04  0.00000000000E+00 0. -1.
         -2   -1    0    0    0  501 -0.00000000000E+00 -0.00000000000E+00 -0.21505367096E+02  0.21505367096E+02  0.00000000000E+00 0.  1.
         25    2    1    2    0    0  0.52143779180E+02 -0.18041986294E+03  0.15992565496E+04  0.16150972197E+04  0.12508883611E+03 0.  0.
         23    2    1    2    0    0 -0.52143779180E+02  0.18041986294E+03  0.79587529092E+03  0.82304535504E+03  0.93358861923E+02 0.  0.
          5    1    3    3  502    0  0.81002347680E+02 -0.15683192339E+03  0.10660171488E+04  0.10805404511E+04  0.41800000000E+01 0. -1.
         -5    1    3    3    0  502 -0.28858568500E+02 -0.23587939544E+02  0.53323940075E+03  0.53455676853E+03  0.41800000000E+01 0. -1.
        -11    1    4    4    0    0 -0.48510201675E+02  0.11352748825E+03  0.66121649007E+03  0.67264327618E+03  0.00000000000E+00 0. -1.
         11    1    4    4    0    0 -0.36335775047E+01  0.66892374686E+02  0.13465880086E+03  0.15040207886E+03  0.00000000000E+00 0.  1.
</event>
<event>
 8    1  0.6493926E-009  0.9645985E+02  0.7561462E-02  0.1287922E+00
         -2   -1    0    0    0  501 -0.00000000000E+00  0.00000000000E+00  0.34497817775E+02  0.34497817775E+02  0.00000000000E+00 0.  1.
          2   -1    0    0  501    0  0.00000000000E+00 -0.00000000000E+00 -0.34898962192E+03  0.34898962192E+03  0.00000000000E+00 0. -1.
         25    2    1    2    0    0 -0.28318005669E+02 -0.11647654798E+02 -0.16553727362E+03  0.20973230350E+03  0.12508985916E+03 0.  0.
         23    2    1    2    0    0  0.28318005669E+02  0.11647654798E+02 -0.14895453053E+03  0.17375513620E+03  0.84058419470E+02 0.  0.
          5    1    3    3  502    0 -0.77019855878E+02 -0.25068985610E+01 -0.82703838940E+02  0.11311825721E+03  0.41800000000E+01 0.  1.
         -5    1    3    3    0  502  0.48701850209E+02 -0.91407562365E+01 -0.82833434679E+02  0.96614046282E+02  0.41800000000E+01 0.  1.
        -11    1    4    4    0    0  0.27013062063E+02 -0.20457859132E+02 -0.13417379386E+03  0.13838654733E+03  0.00000000000E+00 0. -1.
         11    1    4    4    0    0  0.13049436058E+01  0.32105513930E+02 -0.14780736670E+02  0.35368588875E+02  0.00000000000E+00 0.  1.
</event>
<event>
 8    1  0.6493926E-009  0.9475912E+02  0.7561462E-02  0.1291720E+00
          2   -1    0    0  501    0  0.00000000000E+00  0.00000000000E+00  0.16859764297E+03  0.16859764297E+03  0.00000000000E+00 0. -1.
         -2   -1    0    0    0  501 -0.00000000000E+00 -0.00000000000E+00 -0.11357748623E+03  0.11357748623E+03  0.00000000000E+00 0.  1.
         25    2    1    2    0    0 -0.78858528984E+01  0.41283684626E+01  0.11761738649E+03  0.17193159149E+03  0.12508953771E+03 0.  0.
         23    2    1    2    0    0  0.78858528984E+01 -0.41283684626E+01 -0.62597229747E+02  0.11024353771E+03  0.90310543858E+02 0.  0.
          5    1    3    3  502    0  0.19738470052E+02 -0.41411124885E+02  0.38276521212E+01  0.46223498191E+02  0.41800000000E+01 0. -1.
         -5    1    3    3    0  502 -0.27624322950E+02  0.45539493348E+02  0.11378973437E+03  0.12570809330E+03  0.41800000000E+01 0. -1.
        -11    1    4    4    0    0  0.33321488950E+02  0.31763898460E+02 -0.25063141740E+02  0.52415913091E+02  0.00000000000E+00 0.  1.
         11    1    4    4    0    0 -0.25435636052E+02 -0.35892266923E+02 -0.37534088007E+02  0.57827624616E+02  0.00000000000E+00 0. -1.
</event>
<event>
 8    1  0.6493926E-009  0.1218639E+03  0.7561462E-02  0.1240053E+00
          2   -1    0    0  501    0  0.00000000000E+00  0.00000000000E+00  0.77165914551E+03  0.77165914551E+03  0.00000000000E+00 0. -1.
         -2   -1    0    0    0  501 -0.00000000000E+00 -0.00000000000E+00 -0.23217343012E+03  0.23217343012E+03  0.00000000000E+00 0.  1.
         25    2    1    2    0    0  0.57953763417E+02  0.66896722375E+02  0.74594584401E+03  0.76152206186E+03  0.12508732283E+03 0.  0.
         23    2    1    2    0    0 -0.57953763417E+02 -0.66896722375E+02 -0.20646012862E+03  0.24231051377E+03  0.90855876045E+02 0.  0.
          5    1    3    3  502    0  0.14473444638E+02  0.71886471791E+02  0.18786818707E+03  0.20171532797E+03  0.41800000000E+01 0.  1.
         -5    1    3    3    0  502  0.43480318779E+02 -0.49897494156E+01  0.55807765695E+03  0.55980673388E+03  0.41800000000E+01 0.  1.
        -11    1    4    4    0    0  0.16975209285E+02 -0.45238623939E+02 -0.68461618821E+02  0.83795489603E+02  0.00000000000E+00 0. -1.
         11    1    4    4    0    0 -0.74928972701E+02 -0.21658098436E+02 -0.13799850980E+03  0.15851502416E+03  0.00000000000E+00 0.  1.
</event>
<event>
 7    1  0.6493926E-009  0.7097558E+02  0.7561462E-02  0.1356807E+00
          2   -1    0    0  501    0  0.00000000000E+00  0.00000000000E+00  0.36342924282E+03  0.36342924282E+03  0.00000000000E+00 0. -1.
         -2   -1    0    0    0  501 -0.00000000000E+00 -0.00000000000E+00 -0.42457304502E+02  0.42457304502E+02  0.00000000000E+00 0.  1.
         23    2    1    2    0    0  0.23734907470E+02 -0.33505457034E+02  0.19478149773E+03  0.22359250345E+03  0.10182246440E+03 0.  0.
          5    1    1    2  502    0 -0.31511275224E+01  0.35164840707E+02  0.14785759191E+03  0.15207181038E+03  0.41800000000E+01 0. -1.
         -5    1    1    2    0  502 -0.20583779948E+02 -0.16593836725E+01 -0.21667151322E+02  0.30222233496E+02  0.41800000000E+01 0. -1.
        -11    1    3    3    0    0 -0.25441695245E+02  0.65864348320E+00  0.68555410952E+01  0.26357391978E+02  0.00000000000E+00 0.  1.
         11    1    3    3    0    0  0.49176602715E+02 -0.34164100517E+02  0.18792595664E+03  0.19723511147E+03  0.00000000000E+00 0. -1.
</event>
<event>
 8    1  0.6493926E-009  0.7624634E+02  0.7561462E-02  0.1340054E+00
          2   -1    0    0  501    0  0.00000000000E+00  0.00000000000E+00  0.70097040141E+03  0.70097040141E+03  0.00000000000E+00 0. -1.
         -2   -1    0    0    0  501 -0.00000000000E+00 -0.00000000000E+00 -0.19922128849E+02  0.19922128849E+02  0.00000000000E+00 0.  1.
         25    2    1    2    0    0  0.24250278398E+02 -0.26126009513E+02  0.45626031881E+03  0.47443762543E+03  0.12508771934E+03 0.  0.
         23    2    1    2    0    0 -0.24250278398E+02  0.26126009513E+02  0.22478795375E+03  0.24645490483E+03  0.94550259580E+02 0.  0.
          5    1    3    3  502    0 -0.54830629928E+01  0.29185649831E+02  0.26276173566E+02  0.39871993092E+02  0.41800000000E+01 0. -1.
         -5    1    3    3    0  502  0.29733341390E+02 -0.55311659344E+02  0.42998414524E+03  0.43456563234E+03  0.41800000000E+01 0. -1.
        -11    1    4    4    0    0  0.50564762014E+01 -0.11095592578E+02 -0.39851366633E+01  0.12828150313E+02  0.00000000000E+00 0.  1.
         11    1    4    4    0    0 -0.29306754599E+02  0.37221602091E+02  0.22877309042E+03  0.23362675452E+03  0.00000000000E+00 0. -1.
</event>
<event>
 8    1  0.6493926E-009  0.1124856E+03  0.7561462E-02  0.1256035E+00
          2   -1    0    0  501    0  0.00000000000E+00  0.00000000000E+00  0.14409087203E+04  0.14409087203E+04  0.00000000000E+00 0. -1.
         -2   -1    0    0    0  501 -0.00000000000E+00 -0.00000000000E+00 -0.17643886522E+02  0.17643886522E+02  0.00000000000E+00 0.  1.
         25    2    1    2    0    0  0.89981913584E+02 -0.86787514105E+01  0.11031400260E+04  0.11138842917E+04  0.12509289652E+03 0.  0.
         23    2    1    2    0    0 -0.89981913584E+02  0.86787514105E+01  0.32012480770E+03  0.34466831508E+03  0.90245716881E+02 0.  0.
          5    1    3    3  502    0  0.14028573939E+02  0.30517321543E+02  0.76123234713E+02  0.83308625389E+02  0.41800000000E+01 0.  1.
         -5    1    3    3    0  502  0.75953339645E+02 -0.39196072954E+02  0.10270167913E+04  0.10305756663E+04  0.41800000000E+01 0.  1.
        -11    1    4    4    0    0 -0.63166644555E+02 -0.20031370190E+02  0.93134925097E+02  0.11430395903E+03  0.00000000000E+00 0.  1.
         11    1    4    4    0    0 -0.26815269029E+02  0.28710121600E+02  0.22698988260E+03  0.23036435605E+03  0.00000000000E+00 0. -1.
</event>
<event>
 8    1  0.6493926E-009  0.1172821E+03  0.7561462E-02  0.1247649E+00
         -2   -1    0    0    0  501 -0.00000000000E+00  0.00000000000E+00  0.25370708468E+02  0.25370708468E+02  0.00000000000E+00 0.  1.
          2   -1    0    0  501    0  0.00000000000E+00 -0.00000000000E+00 -0.76422200359E+03  0.76422200359E+03  0.00000000000E+00 0. -1.
         25    2    1    2    0    0 -0.27828823757E+02  0.70170132197E+02 -0.54441688877E+03  0.56368071328E+03  0.12509159392E+03 0.  0.
         23    2    1    2    0    0  0.27828823757E+02 -0.70170132197E+02 -0.19443440635E+03  0.22591199877E+03  0.86794020136E+02 0.  0.
          5    1    3    3  502    0 -0.71014311453E+02  0.48215648380E+02 -0.23008899081E+03  0.24561391914E+03  0.41800000000E+01 0. -1.
         -5    1    3    3    0  502  0.43185487696E+02  0.21954483817E+02 -0.31432789795E+03  0.31806679415E+03  0.41800000000E+01 0. -1.
        -11    1    4    4    0    0  0.33834932676E+02 -0.45881430717E+01 -0.12757412774E+03  0.13206442289E+03  0.00000000000E+00 0. -1.
         11    1    4    4    0    0 -0.60061089194E+01 -0.65581989125E+02 -0.66860278616E+02  0.93847575880E+02  0.00000000000E+00 0.  1.
</event>
<event>
 8    1  0.6493926E-009  0.6002103E+02  0.7561462E-02  0.1397743E+00
          2   -1    0    0  501    0  0.00000000000E+00  0.00000000000E+00  0.26650109186E+02  0.26650109186E+02  0.00000000000E+00 0.  1.
         -2   -1    0    0    0  501 -0.00000000000E+00 -0.00000000000E+00 -0.59239199710E+03  0.59239199710E+03  0.00000000000E+00 0. -1.
         25    2    1    2    0    0 -0.17860339109E+02 -0.43349471796E+02 -0.40602922902E+03  0.42743932477E+03  0.12508586300E+03 0.  0.
         23    2    1    2    0    0  0.17860339109E+02  0.43349471796E+02 -0.15971265889E+03  0.19160278151E+03  0.94896385890E+02 0.  0.
          5    1    3    3  502    0 -0.28314460439E+02 -0.42938451418E+02 -0.52097444733E+02  0.73328271682E+02  0.41800000000E+01 0. -1.
         -5    1    3    3    0  502  0.10454121330E+02 -0.41102037839E+00 -0.35393178429E+03  0.35411105309E+03  0.41800000000E+01 0. -1.
        -11    1    4    4    0    0  0.51134472723E+01  0.44107697424E+02 -0.16968641983E+03  0.17539987853E+03  0.00000000000E+00 0. -1.
         11    1    4    4    0    0  0.12746891837E+02 -0.75822562771E+00  0.99737609402E+01  0.16202902978E+02  0.00000000000E+00 0.  1.
</event>
<event>
 8    1  0.6493926E-009  0.7059345E+02  0.7561462E-02  0.1358087E+00
         -2   -1    0    0    0  501 -0.00000000000E+00  0.00000000000E+00  0.12844999172E+02  0.12844999172E+02  0.00000000000E+00 0.  1.
          2   -1    0    0  501    0  0.00000000000E+00 -0.00000000000E+00 -0.93765102260E+03  0.93765102260E+03  0.00000000000E+00 0. -1.
         25    2    1    2    0    0 -0.48678366922E+01 -0.21245295414E+02 -0.60643135198E+03  0.61958112238E+03  0.12508686632E+03 0.  0.
         23    2    1    2    0    0  0.48678366922E+01  0.21245295414E+02 -0.31837467145E+03  0.33091489940E+03  0.87562439515E+02 0.  0.
          5    1    3    3  502    0 -0.23329401278E+02 -0.32784873909E+02 -0.59143356970E+03  0.59281552669E+03  0.41800000000E+01 0. -1.
         -5    1    3    3    0  502  0.18461564586E+02  0.11539578495E+02 -0.14997782282E+02  0.26765595681E+02  0.41800000000E+01 0. -1.
        -11    1    4    4    0    0 -0.53071177872E+01  0.48852886150E+02 -0.26889270304E+03  0.27334603661E+03  0.00000000000E+00 0. -1.
         11    1    4    4    0    0  0.10174954479E+02 -0.27607590736E+02 -0.49481968407E+02  0.57568862785E+02  0.00000000000E+00 0.  1.
</event>
<event>
 8    1  0.6493926E-009  0.1189273E+03  0.7561462E-02  0.1244877E+00
         -2   -1    0    0    0  501 -0.00000000000E+00  0.00000000000E+00  0.42020521188E+03  0.42020521188E+03  0.00000000000E+00 0.  1.
          2   -1    0    0  501    0  0.00000000000E+00 -0.00000000000E+00 -0.42430576938E+02  0.42430576938E+02  0.00000000000E+00 0. -1.
         25    2    1    2    0    0  0.62385677257E+02  0.41189198885E+02  0.24887105222E+03  0.28839816362E+03  0.12509267491E+03 0.  0.
         23    2    1    2    0    0 -0.62385677257E+02 -0.41189198885E+02  0.12890358272E+03  0.17423762520E+03  0.90300019734E+02 0.  0.
          5    1    3    3  502    0  0.40557021527E+02 -0.32487256831E+02  0.39722865968E+02  0.65541378779E+02  0.41800000000E+01 0. -1.
         -5    1    3    3    0  502  0.21828655730E+02  0.73676455715E+02  0.20914818626E+03  0.22285678485E+03  0.41800000000E+01 0. -1.
        -11    1    4    4    0    0  0.18854496817E+02 -0.12444753084E+02  0.59320178854E+02  0.63476354250E+02  0.00000000000E+00 0.  1.
         11    1    4    4    0    0 -0.81240174074E+02 -0.28744445801E+02  0.69583403868E+02  0.11076127095E+03  0.00000000000E+00 0. -1.
</event>
<event>
 8    1  0.6493926E-009  0.1161673E+03  0.7561462E-02  0.1249557E+00
         -2   -1    0    0    0  501 -0.00000000000E+00  0.00000000000E+00  0.41895670133E+02  0.41895670133E+02  0.00000000000E+00 0.  1.
          2   -1    0    0  501    0  0.00000000000E+00 -0.00000000000E+00 -0.49832058422E+03  0.49832058422E+03  0.00000000000E+00 0. -1.
         25    2    1    2    0    0  0.66784436386E+02  0.29652384923E+02 -0.36415703102E+03  0.39191514479E+03  0.12509081742E+03 0.  0.
         23    2    1    2    0    0 -0.66784436386E+02 -0.29652384923E+02 -0.92267883065E+02  0.14830110956E+03  0.90224342479E+02 0.  0.
          5    1    3    3  502    0  0.20716767325E+02 -0.47935454734E+02 -0.16756964919E+03  0.17556779886E+03  0.41800000000E+01 0. -1.
         -5    1    3    3    0  502  0.46067669061E+02  0.77587839657E+02 -0.19658738183E+03  0.21634734593E+03  0.41800000000E+01 0. -1.
        -11    1    4    4    0    0  0.56009378668E-01 -0.22381815037E+02 -0.75860499384E+02  0.79093388776E+02  0.00000000000E+00 0. -1.
         11    1    4    4    0    0 -0.66840445764E+02 -0.72705698862E+01 -0.16407383681E+02  0.69207720781E+02  0.00000000000E+00 0.  1.
</event>
<event>
 8    1  0.6493926E-009  0.1091258E+03  0.7561462E-02  0.1262197E+00
          2   -1    0    0  501    0  0.00000000000E+00  0.00000000000E+00  0.15491142384E+03  0.15491142384E+03  0.00000000000E+00 0.  1.
         -2   -1    0    0    0  501 -0.00000000000E+00 -0.00000000000E+00 -0.11887569804E+03  0.11887569804E+03  0.00000000000E+00 0. -1.
         25    2    1    2    0    0 -0.25303189623E+01 -0.54306608420E+02 -0.27756932927E+02  0.13918085818E+03  0.12508098867E+03 0.  0.
         23    2    1    2    0    0  0.25303189623E+01  0.54306608420E+02  0.63792658723E+02  0.13460626370E+03  0.10532678998E+03 0.  0.
          5    1    3    3  502    0 -0.31719427987E+01 -0.94361093598E+02 -0.29087078896E+02  0.98881786821E+02  0.41800000000E+01 0. -1.
         -5    1    3    3    0  502  0.64162383643E+00  0.40054485178E+02  0.13301459686E+01  0.40299071358E+02  0.41800000000E+01 0. -1.
        -11    1    4    4    0    0 -0.24834219949E+02  0.26044517450E+01  0.71377566302E+02  0.75619300582E+02  0.00000000000E+00 0.  1.
         11    1    4    4    0    0  0.27364538911E+02  0.51702156675E+02 -0.75849075790E+01  0.58986963116E+02  0.00000000000E+00 0. -1.
</event>
<event>
 8    1  0.6493926E-009  0.1422128E+03  0.7561462E-02  0.1210382E+00
         -1   -1    0    0    0  501 -0.00000000000E+00  0.00000000000E+00  0.46828574643E+03  0.46828574643E+03  0.00000000000E+00 0.  1.
          1   -1    0    0  501    0  0.00000000000E+00 -0.00000000000E+00 -0.97266868465E+02  0.97266868465E+02  0.00000000000E+00 0. -1.
         25    2    1    2    0    0  0.58692609463E+02  0.43600079157E+02 -0.23714486250E+02  0.14681822489E+03  0.12508966781E+03 0.  0.
         23    2    1    2    0    0 -0.58692609463E+02 -0.43600079157E+02  0.39473336421E+03  0.41873439001E+03  0.11907254614E+03 0.  0.
          5    1    3    3  502    0  0.48603564883E+02 -0.38351133505E+02 -0.67406481727E+01  0.62418143983E+02  0.41800000000E+01 0.  1.
         -5    1    3    3    0  502  0.10089044579E+02  0.81951212663E+02 -0.16973838077E+02  0.84400080903E+02  0.41800000000E+01 0.  1.
        -11    1    4    4    0    0 -0.82031516406E+02  0.86351383502E+01  0.23744102232E+03  0.25136024821E+03  0.00000000000E+00 0.  1.
         11    1    4    4    0    0  0.23338906943E+02 -0.52235217508E+02  0.15729234189E+03  0.16737414180E+03  0.00000000000E+00 0. -1.
</event>
<event>
 8    1  0.6493926E-009  0.1140133E+03  0.7561462E-02  0.1253313E+00
         -1   -1    0    0    0  501 -0.00000000000E+00  0.00000000000E+00  0.10694459176E+02  0.10694459176E+02  0.00000000000E+00 0.  1.
          1   -1    0    0  501    0  0.00000000000E+00 -0.00000000000E+00 -0.13025057326E+04  0.13025057326E+04  0.00000000000E+00 0. -1.
         25    2    1    2    0    0  0.40509051458E+02 -0.22536633177E+02 -0.83315269091E+03  0.84376523504E+03  0.12508989729E+03 0.  0.
         23    2    1    2    0    0 -0.40509051458E+02  0.22536633177E+02 -0.45865858252E+03  0.46943495674E+03  0.88614898340E+02 0.  0.
          5    1    3    3  502    0  0.53939050119E+02  0.38472484188E+02 -0.32046573389E+03  0.32726947943E+03  0.41800000000E+01 0. -1.
         -5    1    3    3    0  502 -0.13429998661E+02 -0.61009117365E+02 -0.51268695702E+03  0.51649575561E+03  0.41800000000E+01 0. -1.
        -11    1    4    4    0    0 -0.49336069005E+02 -0.21718384885E+02 -0.21667989231E+03  0.22328437401E+03  0.00000000000E+00 0.  1.
         11    1    4    4    0    0  0.88270175469E+01  0.44255018062E+02 -0.24197869021E+03  0.24615058273E+03  0.00000000000E+00 0. -1.
</event>
<event>
 8    1  0.6493926E-009  0.1391497E+03  0.7561462E-02  0.1214478E+00
         -3   -1    0    0    0  501 -0.00000000000E+00  0.00000000000E+00  0.57492203452E+03  0.57492203452E+03  0.00000000000E+00 0.  1.
          3   -1    0    0  501    0  0.00000000000E+00 -0.00000000000E+00 -0.49581987816E+02  0.49581987816E+02  0.00000000000E+00 0. -1.
         25    2    1    2    0    0 -0.44540725704E+02  0.11607659828E+03  0.21384977470E+03  0.27719316284E+03  0.12508665184E+03 0.  0.
         23    2    1    2    0    0  0.44540725704E+02 -0.11607659828E+03  0.31149027200E+03  0.34731085950E+03  0.90227438505E+02 0.  0.
          5    1    3    3  502    0 -0.10196779057E+02 -0.10522959573E+01 -0.14494763572E+02  0.18238755466E+02  0.41800000000E+01 0. -1.
         -5    1    3    3    0  502 -0.34343946647E+02  0.11712889424E+03  0.22834453827E+03  0.25895440737E+03  0.41800000000E+01 0. -1.
        -11    1    4    4    0    0  0.85147329476E+01 -0.10779605202E+03  0.17335070367E+03  0.20431092964E+03  0.00000000000E+00 0.  1.
         11    1    4    4    0    0  0.36025992756E+02 -0.82805462642E+01  0.13813956833E+03  0.14299992986E+03  0.00000000000E+00 0. -1.
</event>
<event>
 8    1  0.6493926E-009  0.1219211E+03  0.7561462E-02  0.1239961E+00
         -1   -1    0    0    0  501 -0.00000000000E+00  0.00000000000E+00  0.13199896006E+02  0.13199896006E+02  0.00000000000E+00 0.  1.
          1   -1    0    0  501    0  0.00000000000E+00 -0.00000000000E+00 -0.12018640578E+04  0.12018640578E+04  0.00000000000E+00 0. -1.
         25    2    1    2    0    0 -0.54047866114E+02  0.18585926487E+02 -0.80205619228E+03  0.81376128974E+03  0.12508674036E+03 0.  0.
         23    2    1    2    0    0  0.54047866114E+02 -0.18585926487E+02 -0.38660796954E+03  0.40130266409E+03  0.91167415224E+02 0.  0.
          5    1    3    3  502    0 -0.23901549845E+02 -0.53094319947E+02 -0.28996540011E+03  0.29578319181E+03  0.41800000000E+01 0. -1.
         -5    1    3    3    0  502 -0.30146316269E+02  0.71680246434E+02 -0.51209079217E+03  0.51797809793E+03  0.41800000000E+01 0. -1.
        -11    1    4    4    0    0 -0.10108580918E+02 -0.38982481783E+02 -0.14725099807E+03  0.15265868375E+03  0.00000000000E+00 0.  1.
         11    1    4    4    0    0  0.64156447032E+02  0.20396555296E+02 -0.23935697147E+03  0.24864398033E+03  0.00000000000E+00 0. -1.
</event>
<event>
 8    1  0.6493926E-009  0.1305221E+03  0.7561462E-02  0.1226683E+00
          1   -1    0    0  501    0  0.00000000000E+00  0.00000000000E+00  0.38922193176E+03  0.38922193176E+03  0.00000000000E+00 0. -1.
         -1   -1    0    0    0  501 -0.00000000000E+00 -0.00000000000E+00 -0.56024865320E+02  0.56024865320E+02  0.00000000000E+00 0.  1.
         25    2    1    2    0    0 -0.96395181289E+02 -0.16595269204E+02  0.20551119870E+03  0.25971107787E+03  0.12509019644E+03 0.  0.
         23    2    1    2    0    0  0.96395181289E+02  0.16595269204E+02  0.12768586774E+03  0.18553571921E+03  0.92479123832E+02 0.  0.
          5    1    3    3  502    0  0.12976908378E+02 -0.14713210200E+02 -0.65177089819E+01  0.21091032119E+02  0.41800000000E+01 0. -1.
         -5    1    3    3    0  502 -0.10937208967E+03 -0.18820590037E+01  0.21202890768E+03  0.23862004576E+03  0.41800000000E+01 0. -1.
        -11    1    4    4    0    0 -0.16382003127E+02  0.84848998013E+01  0.34059982940E+02  0.38735590727E+02  0.00000000000E+00 0.  1.
         11    1    4    4    0    0  0.11277718442E+03  0.81103694027E+01  0.93625884803E+02  0.14680012848E+03  0.00000000000E+00 0. -1.
</event>
<event>
 8    1  0.6493926E-009  0.1061901E+03  0.7561462E-02  0.1267792E+00
         -1   -1    0    0    0  501 -0.00000000000E+00  0.00000000000E+00  0.31235439478E+02  0.31235439478E+02  0.00000000000E+00 0.  1.
          1   -1    0    0  501    0  0.00000000000E+00 -0.00000000000E+00 -0.38945560936E+03  0.38945560936E+03  0.00000000000E+00 0. -1.
         25    2    1    2    0    0  0.14165065787E+02 -0.13864500894E+02 -0.18515088130E+03  0.22432434677E+03  0.12509072801E+03 0.  0.
         23    2    1    2    0    0 -0.14165065787E+02  0.13864500894E+02 -0.17306928858E+03  0.19636670207E+03  0.90631283541E+02 0.  0.
          5    1    3    3  502    0  0.52717234755E+02 -0.45708793862E+02 -0.71009214349E+02  0.99640260934E+02  0.41800000000E+01 0. -1.
         -5    1    3    3    0  502 -0.38552168968E+02  0.31844292968E+02 -0.11414166695E+03  0.12468408584E+03  0.41800000000E+01 0. -1.
        -11    1    4    4    0    0  0.86807445305E+01  0.49345641665E+02 -0.84034563044E+02  0.97837392969E+02  0.00000000000E+00 0. -1.
         11    1    4    4    0    0 -0.22845810318E+02 -0.35481140772E+02 -0.89034725537E+02  0.98529309096E+02  0.00000000000E+00 0.  1.
</event>
<event>
 8    1  0.6493926E-009  0.1107339E+03  0.7561462E-02  0.1259217E+00
         -1   -1    0    0    0  501 -0.00000000000E+00  0.00000000000E+00  0.43480027302E+03  0.43480027302E+03  0.00000000000E+00 0.  1.
          1   -1    0    0  501    0  0.00000000000E+00 -0.00000000000E+00 -0.48003283722E+02  0.48003283722E+02  0.00000000000E+00 0. -1.
         25    2    1    2    0    0 -0.50802408498E+02  0.75239896688E+02  0.16005429009E+03  0.22250172047E+03  0.12509081931E+03 0.  0.
         23    2    1    2    0    0  0.50802408498E+02 -0.75239896688E+02  0.22674269921E+03  0.26030183627E+03  0.90015929467E+02 0.  0.
          5    1    3    3  502    0 -0.66779875082E+02  0.56780518133E+02  0.17341807215E+03  0.19435760624E+03  0.41800000000E+01 0.  1.
         -5    1    3    3    0  502  0.15977466584E+02  0.18459378555E+02 -0.13363782059E+02  0.28144114234E+02  0.41800000000E+01 0.  1.
        -11    1    4    4    0    0  0.21078616388E+02  0.64258213773E+01  0.56607214635E+01  0.22751769529E+02  0.00000000000E+00 0. -1.
         11    1    4    4    0    0  0.29723792110E+02 -0.81665718065E+02  0.22108197774E+03  0.23755006674E+03  0.00000000000E+00 0.  1.
</event>
<event>
 8    1  0.6493926E-009  0.1647967E+03  0.7561462E-02  0.1183385E+00
         -1   -1    0    0    0  501 -0.00000000000E+00  0.00000000000E+00  0.69380563090E+03  0.69380563090E+03  0.00000000000E+00 0.  1.
          1   -1    0    0  501    0  0.00000000000E+00 -0.00000000000E+00 -0.43001082348E+02  0.43001082348E+02  0.00000000000E+00 0. -1.
         25    2    1    2    0    0  0.12435706174E+03 -0.55424136523E+02  0.36328776954E+03  0.40762948085E+03  0.12508907405E+03 0.  0.
         23    2    1    2    0    0 -0.12435706174E+03  0.55424136523E+02  0.28751677902E+03  0.32917723241E+03  0.84588642281E+02 0.  0.
          5    1    3    3  502    0  0.13139995870E+03 -0.19398617795E+02  0.19937034979E+03  0.23960021764E+03  0.41800000000E+01 0. -1.
         -5    1    3    3    0  502 -0.70428969622E+01 -0.36025518728E+02  0.16391741974E+03  0.16802926320E+03  0.41800000000E+01 0. -1.
        -11    1    4    4    0    0 -0.55320656582E+02 -0.18765794630E+02  0.92528708429E+02  0.10942619420E+03  0.00000000000E+00 0.  1.
         11    1    4    4    0    0 -0.69036405155E+02  0.74189931153E+02  0.19498807059E+03  0.21975103821E+03  0.00000000000E+00 0. -1.
</event>
<event>
 8    1  0.6493926E-009  0.1013179E+03  0.7561462E-02  0.1277549E+00
          1   -1    0    0  501    0  0.00000000000E+00  0.00000000000E+00  0.14563414523E+03  0.14563414523E+03  0.00000000000E+00 0. -1.
         -1   -1    0    0    0  501 -0.00000000000E+00 -0.00000000000E+00 -0.18356831911E+03  0.18356831911E+03  0.00000000000E+00 0.  1.
         25    2    1    2    0    0  0.35437665854E+02 -0.49780957608E+02 -0.12663858018E+03  0.18820735000E+03  0.12510277656E+03 0.  0.
         23    2    1    2    0    0 -0.35437665854E+02  0.49780957608E+02  0.88704406298E+02  0.14099511434E+03  0.90979001251E+02 0.  0.
          5    1    3    3  502    0 -0.23436839041E+01  0.37834802497E+02 -0.14232390836E+02  0.40706246242E+02  0.41800000000E+01 0.  1.
         -5    1    3    3    0  502  0.37781349758E+02 -0.87615760105E+02 -0.11240618934E+03  0.14750110376E+03  0.41800000000E+01 0.  1.
        -11    1    4    4    0    0  0.45835974386E+01  0.15926022887E+02 -0.16542804737E+02  0.23416061988E+02  0.00000000000E+00 0.  1.
         11    1    4    4    0    0 -0.40021263292E+02  0.33854934721E+02  0.10524721104E+03  0.11757905235E+03  0.00000000000E+00 0. -1.
</event>
<event>
 8    1  0.6493926E-009  0.1627825E+03  0.7561462E-02  0.1185591E+00
          1   -1    0    0  501    0  0.00000000000E+00  0.00000000000E+00  0.56052680567E+02  0.56052680567E+02  0.00000000000E+00 0. -1.
         -1   -1    0    0    0  501 -0.00000000000E+00 -0.00000000000E+00 -0.51516366873E+03  0.51516366873E+03  0.00000000000E+00 0.  1.
         25    2    1    2    0    0  0.12383400543E+03  0.40859285351E+02 -0.22288428708E+03  0.28693131901E+03  0.12509130387E+03 0.  0.
         23    2    1    2    0    0 -0.12383400543E+03 -0.40859285351E+02 -0.23622670109E+03  0.28428503028E+03  0.89501854945E+02 0.  0.
          5    1    3    3  502    0 -0.85610024630E+01  0.45745148667E+02 -0.43123932361E+02  0.63585024432E+02  0.41800000000E+01 0. -1.
         -5    1    3    3    0  502  0.13239500789E+03 -0.48858633153E+01 -0.17976035472E+03  0.22334629458E+03  0.41800000000E+01 0. -1.
        -11    1    4    4    0    0 -0.69671895932E+02  0.11894202004E+02 -0.60700770638E+02  0.93167744848E+02  0.00000000000E+00 0. -1.
         11    1    4    4    0    0 -0.54162109497E+02 -0.52753487356E+02 -0.17552593045E+03  0.19111728544E+03  0.00000000000E+00 0.  1.
</event>
<event>
 8    1  0.6493926E-009  0.1834643E+03  0.7561462E-02  0.1164492E+00
          2   -1    0    0  501    0  0.00000000000E+00  0.00000000000E+00  0.28887912449E+03  0.28887912449E+03  0.00000000000E+00 0. -1.
         -2   -1    0    0    0  501 -0.00000000000E+00 -0.00000000000E+00 -0.15701814892E+03  0.15701814892E+03  0.00000000000E+00 0.  1.
         25    2    1    2    0    0  0.14458586031E+03 -0.39716444059E+02  0.17900411771E+03  0.26489811983E+03  0.12508426281E+03 0.  0.
         23    2    1    2    0    0 -0.14458586031E+03  0.39716444059E+02 -0.47143142141E+02  0.18099915358E+03  0.89753834545E+02 0.  0.
          5    1    3    3  502    0  0.40736087812E+02 -0.74429108654E+02  0.89664107315E+02  0.12351617548E+03  0.41800000000E+01 0. -1.
         -5    1    3    3    0  502  0.10384977249E+03  0.34712664595E+02  0.89340010394E+02  0.14138194435E+03  0.41800000000E+01 0. -1.
        -11    1    4    4    0    0  0.45117555026E+01  0.21763316470E+02  0.35321838771E+01  0.22504981769E+02  0.00000000000E+00 0.  1.
         11    1    4    4    0    0 -0.14909761581E+03  0.17953127589E+02 -0.50675326018E+02  0.15849417181E+03  0.00000000000E+00 0. -1.
</event>
<event>
 8    1  0.6493926E-009  0.1148901E+03  0.7561462E-02  0.1251773E+00
          2   -1    0    0  501    0  0.00000000000E+00  0.00000000000E+00  0.77821711705E+02  0.77821711705E+02  0.00000000000E+00 0.  1.
         -2   -1    0    0    0  501 -0.00000000000E+00 -0.00000000000E+00 -0.17896364594E+03  0.17896364594E+03  0.00000000000E+00 0. -1.
         25    2    1    2    0    0 -0.41721441038E+02 -0.18262793920E+02 -0.38110344451E+02  0.13847056654E+03  0.12508993228E+03 0.  0.
         23    2    1    2    0    0  0.41721441038E+02  0.18262793920E+02 -0.63031589788E+02  0.11831479111E+03  0.89169502637E+02 0.  0.
          5    1    3    3  502    0 -0.76697012016E+02 -0.42845145736E+02 -0.37229832513E+02  0.95507439471E+02  0.41800000000E+01 0.  1.
         -5    1    3    3    0  502  0.34975570977E+02  0.24582351816E+02 -0.88051193771E+00  0.42963127066E+02  0.41800000000E+01 0.  1.
        -11    1    4    4    0    0  0.25253709149E+02  0.53951288262E+02 -0.28677541266E+02  0.66112727246E+02  0.00000000000E+00 0.  1.
         11    1    4    4    0    0  0.16467731890E+02 -0.35688494342E+02 -0.34354048522E+02  0.52202063866E+02  0.00000000000E+00 0. -1.
</event>
<event>
 8    1  0.6493926E-009  0.3254976E+03  0.7561462E-02  0.1073147E+00
         -3   -1    0    0    0  501 -0.00000000000E+00  0.00000000000E+00  0.71039275130E+03  0.71039275130E+03  0.00000000000E+00 0.  1.
          3   -1    0    0  501    0  0.00000000000E+00 -0.00000000000E+00 -0.15946764054E+03  0.15946764054E+03  0.00000000000E+00 0. -1.
         25    2    1    2    0    0 -0.17803034882E+03 -0.26313264502E+03  0.26068223089E+03  0.42957413084E+03  0.12508043176E+03 0.  0.
         23    2    1    2    0    0  0.17803034882E+03  0.26313264502E+03  0.29024287987E+03  0.44028626100E+03  0.93152929853E+02 0.  0.
          5    1    3    3  502    0 -0.15318201834E+03 -0.17851523403E+03  0.24542619519E+03  0.33997633625E+03  0.41800000000E+01 0. -1.
         -5    1    3    3    0  502 -0.24848330480E+02 -0.84617410993E+02  0.15256035702E+02  0.89597794594E+02  0.41800000000E+01 0. -1.
        -11    1    4    4    0    0  0.81216821194E+02  0.55567045863E+02  0.11838702795E+03  0.15394595486E+03  0.00000000000E+00 0. -1.
         11    1    4    4    0    0  0.96813527624E+02  0.20756559916E+03  0.17185585191E+03  0.28634030614E+03  0.00000000000E+00 0.  1.
</event>
<event>
 8    1  0.6493926E-009  0.4207678E+03  0.7561462E-02  0.1036817E+00
         -1   -1    0    0    0  501 -0.00000000000E+00  0.00000000000E+00  0.13993443463E+04  0.13993443463E+04  0.00000000000E+00 0.  1.
          1   -1    0    0  501    0  0.00000000000E+00 -0.00000000000E+00 -0.13098819308E+03  0.13098819308E+03  0.00000000000E+00 0. -1.
         25    2    1    2    0    0  0.20480662102E+03  0.36154040006E+03  0.63062550580E+03  0.76550194666E+03  0.12508992321E+03 0.  0.
         23    2    1    2    0    0 -0.20480662102E+03 -0.36154040006E+03  0.63773064739E+03  0.76483059270E+03  0.74888210080E+02 0.  0.
          5    1    3    3  502    0  0.17616203234E+03  0.22890309536E+03  0.49796511768E+03  0.57568777955E+03  0.41800000000E+01 0. -1.
         -5    1    3    3    0  502  0.28644588687E+02  0.13263730470E+03  0.13266038812E+03  0.18981416711E+03  0.41800000000E+01 0. -1.
        -11    1    4    4    0    0 -0.29958511204E+02 -0.80705250219E+02  0.18563591213E+03  0.20462536910E+03  0.00000000000E+00 0.  1.
         11    1    4    4    0    0 -0.17484810982E+03 -0.28083514984E+03  0.45209473527E+03  0.56020522360E+03  0.00000000000E+00 0. -1.
</event>
<event>
 8    1  0.6493926E-009  0.1277878E+03  0.7561462E-02  0.1230776E+00
          1   -1    0    0  501    0  0.00000000000E+00  0.00000000000E+00  0.48357861671E+03  0.48357861671E+03  0.00000000000E+00 0. -1.
         -1   -1    0    0    0  501 -0.00000000000E+00 -0.00000000000E+00 -0.43622511996E+02  0.43622511996E+02  0.00000000000E+00 0.  1.
         25    2    1    2    0    0 -0.24379001651E+02 -0.93650449400E+02  0.23585137483E+03  0.28396979948E+03  0.12509289993E+03 0.  0.
         23    2    1    2    0    0  0.24379001651E+02  0.93650449400E+02  0.20410472989E+03  0.24323132923E+03  0.90210843928E+02 0.  0.
          5    1    3    3  502    0 -0.52204491708E+02 -0.38713517949E+02  0.35182069282E+02  0.74022265741E+02  0.41800000000E+01 0.  1.
         -5    1    3    3    0  502  0.27825490057E+02 -0.54936931451E+02  0.20066930554E+03  0.20994753373E+03  0.41800000000E+01 0.  1.
        -11    1    4    4    0    0 -0.30888196040E+02  0.47815795477E+02  0.62992879431E+02  0.84903084813E+02  0.00000000000E+00 0.  1.
         11    1    4    4    0    0  0.55267197691E+02  0.45834653923E+02  0.14111185046E+03  0.15832824442E+03  0.00000000000E+00 0. -1.
</event>
<event>
 8    1  0.6493926E-009  0.1169825E+03  0.7561462E-02  0.1248160E+00
          2   -1    0    0  501    0  0.00000000000E+00  0.00000000000E+00  0.12455261458E+03  0.12455261458E+03  0.00000000000E+00 0. -1.
         -2   -1    0    0    0  501 -0.00000000000E+00 -0.00000000000E+00 -0.18631348968E+03  0.18631348968E+03  0.00000000000E+00 0.  1.
         25    2    1    2    0    0  0.10493783793E+03 -0.21831480665E+02 -0.21964600827E+02  0.16618614500E+03  0.12508728042E+03 0.  0.
         23    2    1    2    0    0 -0.10493783793E+03  0.21831480665E+02 -0.39796274273E+02  0.14467995925E+03  0.88656549600E+02 0.  0.
          5    1    3    3  502    0  0.35514455535E+02 -0.15668803273E+02  0.51637164981E+02  0.64735285241E+02  0.41800000000E+01 0. -1.
         -5    1    3    3    0  502  0.69423382392E+02 -0.61626773918E+01 -0.73601765808E+02  0.10145085976E+03  0.41800000000E+01 0. -1.
        -11    1    4    4    0    0 -0.53023025093E+02 -0.21758073734E+02 -0.50086956015E+02  0.76115426330E+02  0.00000000000E+00 0.  1.
         11    1    4    4    0    0 -0.51914812835E+02  0.43589554399E+02  0.10290681742E+02  0.68564532924E+02  0.00000000000E+00 0. -1.
</event>
<event>
 8    1  0.6493926E-009  0.1134743E+03  0.7561462E-02  0.1254268E+00
          1   -1    0    0  501    0  0.00000000000E+00  0.00000000000E+00  0.39940129190E+03  0.39940129190E+03  0.00000000000E+00 0. -1.
         -1   -1    0    0    0  501 -0.00000000000E+00 -0.00000000000E+00 -0.32797669266E+02  0.32797669266E+02  0.00000000000E+00 0.  1.
         25    2    1    2    0    0 -0.36551388589E+02 -0.51189228829E+01  0.22613463618E+03  0.26104881287E+03  0.12508957447E+03 0.  0.
         23    2    1    2    0    0  0.36551388589E+02  0.51189228829E+01  0.14046898645E+03  0.17115014829E+03  0.90546284997E+02 0.  0.
          5    1    3    3  502    0 -0.60471461758E+02 -0.49756412337E+02  0.11963126573E+03  0.14304408550E+03  0.41800000000E+01 0.  1.
         -5    1    3    3    0  502  0.23920073169E+02  0.44637489454E+02  0.10650337045E+03  0.11800472737E+03  0.41800000000E+01 0.  1.
        -11    1    4    4    0    0  0.62641308352E+02 -0.15415694747E+02  0.95720035463E+02  0.11542920924E+03  0.00000000000E+00 0.  1.
         11    1    4    4    0    0 -0.26089919763E+02  0.20534617629E+02  0.44748950987E+02  0.55720939052E+02  0.00000000000E+00 0. -1.
</event>
<event>
 8    1  0.6493926E-009  0.3594339E+03  0.7561462E-02  0.1058808E+00
          3   -1    0    0  501    0  0.00000000000E+00  0.00000000000E+00  0.32062753353E+03  0.32062753353E+03  0.00000000000E+00 0. -1.
         -3   -1    0    0    0  501 -0.00000000000E+00 -0.00000000000E+00 -0.43097858111E+03  0.43097858111E+03  0.00000000000E+00 0.  1.
         25    2    1    2    0    0 -0.26764034563E+03  0.22588273739E+03  0.45526133862E+01  0.37191785338E+03  0.12509115763E+03 0.  0.
         23    2    1    2    0    0  0.26764034563E+03 -0.22588273739E+03 -0.11490366097E+03  0.37968826125E+03  0.91137032905E+02 0.  0.
          5    1    3    3  502    0 -0.24555341959E+03  0.17117246754E+03  0.41438974720E+02  0.30221045075E+03  0.41800000000E+01 0.  1.
         -5    1    3    3    0  502 -0.22086926036E+02  0.54710269859E+02 -0.36886361334E+02  0.69707402636E+02  0.41800000000E+01 0.  1.
        -11    1    4    4    0    0  0.27269349685E+03 -0.21144235901E+03 -0.11674526322E+03  0.36427883673E+03  0.00000000000E+00 0. -1.
         11    1    4    4    0    0 -0.50531512190E+01 -0.14440378381E+02  0.18416022553E+01  0.15409424516E+02  0.00000000000E+00 0.  1.
</event>
<event>
 8    1  0.6493926E-009  0.1014439E+03  0.7561462E-02  0.1277289E+00
         -1   -1    0    0    0  501 -0.00000000000E+00  0.00000000000E+00  0.13907666105E+03  0.13907666105E+03  0.00000000000E+00 0.  1.
          1   -1    0    0  501    0  0.00000000000E+00 -0.00000000000E+00 -0.12039878576E+03  0.12039878576E+03  0.00000000000E+00 0. -1.
         25    2    1    2    0    0 -0.52881394983E+02  0.44655004280E+02 -0.45687723145E+01  0.14305656561E+03  0.12511513074E+03 0.  0.
         23    2    1    2    0    0  0.52881394983E+02 -0.44655004280E+02  0.23246647601E+02  0.11641888121E+03  0.90677659508E+02 0.  0.
          5    1    3    3  502    0  0.18649680310E+02 -0.11623482109E+02 -0.39567956698E+02  0.45453399314E+02  0.41800000000E+01 0. -1.
         -5    1    3    3    0  502 -0.71531075293E+02  0.56278486388E+02  0.34999184383E+02  0.97603166292E+02  0.41800000000E+01 0. -1.
        -11    1    4    4    0    0 -0.92108383446E+01  0.44631710567E+01  0.34922598585E+02  0.36391583241E+02  0.00000000000E+00 0.  1.
         11    1    4    4    0    0  0.62092233328E+02 -0.49118175336E+02 -0.11675950984E+02  0.80027297964E+02  0.00000000000E+00 0. -1.
</event>
<event>
 8    1  0.6493926E-009  0.1006068E+03  0.7561462E-02  0.1279025E+00
         -1   -1    0    0    0  501 -0.00000000000E+00  0.00000000000E+00  0.57827793841E+02  0.57827793841E+02  0.00000000000E+00 0.  1.
          1   -1    0    0  501    0  0.00000000000E+00 -0.00000000000E+00 -0.34588162749E+03  0.34588162749E+03  0.00000000000E+00 0. -1.
         25    2    1    2    0    0  0.54278687358E+02 -0.78751236460E+02 -0.13575636934E+03  0.20790928474E+03  0.12509414744E+03 0.  0.
         23    2    1    2    0    0 -0.54278687358E+02  0.78751236460E+02 -0.15229746431E+03  0.19580013659E+03  0.77428952631E+02 0.  0.
          5    1    3    3  502    0  0.28349376940E+02 -0.13392012527E+02 -0.13375270390E+03  0.13744195638E+03  0.41800000000E+01 0.  1.
         -5    1    3    3    0  502  0.25929310418E+02 -0.65359223934E+02 -0.20036654355E+01  0.70467328367E+02  0.41800000000E+01 0.  1.
        -11    1    4    4    0    0 -0.13228007748E+01  0.20020758387E+02 -0.97614695073E+02  0.99655452748E+02  0.00000000000E+00 0. -1.
         11    1    4    4    0    0 -0.52955886583E+02  0.58730478073E+02 -0.54682769240E+02  0.96144683838E+02  0.00000000000E+00 0.  1.
</event>
<event>
 8    1  0.6493926E-009  0.1145042E+03  0.7561462E-02  0.1252449E+00
          2   -1    0    0  501    0  0.00000000000E+00  0.00000000000E+00  0.22463314233E+03  0.22463314233E+03  0.00000000000E+00 0. -1.
         -2   -1    0    0    0  501 -0.00000000000E+00 -0.00000000000E+00 -0.64745646378E+02  0.64745646378E+02  0.00000000000E+00 0.  1.
         25    2    1    2    0    0  0.73823988487E+01  0.45717713272E+02  0.56764437419E+02  0.14495153160E+03  0.12507652073E+03 0.  0.
         23    2    1    2    0    0 -0.73823988487E+01 -0.45717713272E+02  0.10312305853E+03  0.14442725711E+03  0.89890256843E+02 0.  0.
          5    1    3    3  502    0  0.63439509666E+02  0.40541632331E+02  0.43171311697E+02  0.86887455322E+02  0.41800000000E+01 0. -1.
         -5    1    3    3    0  502 -0.56057110817E+02  0.51760809410E+01  0.13593125722E+02  0.58064076277E+02  0.41800000000E+01 0. -1.
        -11    1    4    4    0    0 -0.41601058096E+02 -0.47183907014E+02  0.46400639859E+02  0.78166415392E+02  0.00000000000E+00 0.  1.
         11    1    4    4    0    0  0.34218659248E+02  0.14661937428E+01  0.56722418674E+02  0.66260841717E+02  0.00000000000E+00 0. -1.
</event>
<event>
 8    1  0.6493926E-009  0.1338714E+03  0.7561462E-02  0.1221822E+00
         -2   -1    0    0    0  501 -0.00000000000E+00  0.00000000000E+00  0.47157554305E+03  0.47157554305E+03  0.00000000000E+00 0.  1.
          2   -1    0    0  501    0  0.00000000000E+00 -0.00000000000E+00 -0.42898636349E+02  0.42898636349E+02  0.00000000000E+00 0. -1.
         25    2    1    2    0    0  0.95599663546E+01 -0.87946144931E+02  0.18576645872E+03  0.24079530515E+03  0.12508910597E+03 0.  0.
         23    2    1    2    0    0 -0.95599663546E+01  0.87946144931E+02  0.24291044798E+03  0.27367887425E+03  0.89826071416E+02 0.  0.
          5    1    3    3  502    0  0.23562516177E+02  0.27285006808E+02  0.54951523252E+02  0.65854430928E+02  0.41800000000E+01 0. -1.
         -5    1    3    3    0  502 -0.14002549822E+02 -0.11523115174E+03  0.13081493547E+03  0.17494087422E+03  0.41800000000E+01 0. -1.
        -11    1    4    4    0    0  0.27886155426E+02  0.66578900802E+02  0.20093290532E+03  0.21350508223E+03  0.00000000000E+00 0.  1.
         11    1    4    4    0    0 -0.37446121781E+02  0.21367244129E+02  0.41977542655E+02  0.60173792015E+02  0.00000000000E+00 0. -1.
</event>
<event>
 8    1  0.6493926E-009  0.8007965E+02  0.7561462E-02  0.1328826E+00
         -1   -1    0    0    0  501 -0.00000000000E+00  0.00000000000E+00  0.19502832840E+03  0.19502832840E+03  0.00000000000E+00 0.  1.
          1   -1    0    0  501    0  0.00000000000E+00 -0.00000000000E+00 -0.58549214360E+02  0.58549214360E+02  0.00000000000E+00 0. -1.
         25    2    1    2    0    0  0.67973423330E+01  0.32617619272E+01  0.43923224657E+02  0.13279654061E+03  0.12509527800E+03 0.  0.
         23    2    1    2    0    0 -0.67973423330E+01 -0.32617619272E+01  0.92555889386E+02  0.12078100216E+03  0.77230919121E+02 0.  0.
          5    1    3    3  502    0  0.42351807544E+02 -0.11191985705E+02 -0.27298242277E+02  0.51784192354E+02  0.41800000000E+01 0.  1.
         -5    1    3    3    0  502 -0.35554465211E+02  0.14453747632E+02  0.71221466934E+02  0.81012348252E+02  0.41800000000E+01 0.  1.
        -11    1    4    4    0    0  0.10231174836E+02 -0.37735315676E+02  0.44487387942E+02  0.59226334291E+02  0.00000000000E+00 0. -1.
         11    1    4    4    0    0 -0.17028517169E+02  0.34473553748E+02  0.48068501444E+02  0.61554667866E+02  0.00000000000E+00 0.  1.
</event>
<event>
 8    1  0.6493926E-009  0.1191018E+03  0.7561462E-02  0.1244586E+00
          4   -1    0    0  501    0  0.00000000000E+00  0.00000000000E+00  0.98340565519E+02  0.98340565519E+02  0.00000000000E+00 0. -1.
         -4   -1    0    0    0  501 -0.00000000000E+00 -0.00000000000E+00 -0.47463686193E+03  0.47463686193E+03  0.00000000000E+00 0.  1.
         25    2    1    2    0    0  0.85967070869E+02 -0.13677726402E+01 -0.41348052346E+03  0.44044989735E+03  0.12505103244E+03 0.  0.
         23    2    1    2    0    0 -0.85967070869E+02  0.13677726402E+01  0.37184227059E+02  0.13252753010E+03  0.93747914194E+02 0.  0.
          5    1    3    3  502    0  0.10167713460E+03 -0.40366907719E+02 -0.29454111154E+03  0.31422868381E+03  0.41800000000E+01 0.  1.
         -5    1    3    3    0  502 -0.15710063729E+02  0.38999135079E+02 -0.11893941192E+03  0.12622121354E+03  0.41800000000E+01 0.  1.
        -11    1    4    4    0    0 -0.24610923696E+02 -0.37953388237E+01  0.61482163934E+02  0.66333691620E+02  0.00000000000E+00 0. -1.
         11    1    4    4    0    0 -0.61356147173E+02  0.51631114640E+01 -0.24297936875E+02  0.66193838476E+02  0.00000000000E+00 0.  1.
</event>
<event>
 8    1  0.6493926E-009  0.1259837E+03  0.7561462E-02  0.1233540E+00
          3   -1    0    0  501    0  0.00000000000E+00  0.00000000000E+00  0.30357655539E+03  0.30357655539E+03  0.00000000000E+00 0. -1.
         -3   -1    0    0    0  501 -0.00000000000E+00 -0.00000000000E+00 -0.78020685557E+02  0.78020685557E+02  0.00000000000E+00 0.  1.
         25    2    1    2    0    0  0.12035177096E+02  0.94945013411E+02  0.19070509984E+03  0.24733581575E+03  0.12508864692E+03 0.  0.
         23    2    1    2    0    0 -0.12035177096E+02 -0.94945013411E+02  0.34850769991E+02  0.13426142519E+03  0.87476585817E+02 0.  0.
          5    1    3    3  502    0  0.43101278356E+02  0.94069547232E+02  0.18950490307E+03  0.21595457994E+03  0.41800000000E+01 0.  1.
         -5    1    3    3    0  502 -0.31066101260E+02  0.87546617987E+00  0.12001967720E+01  0.31381235807E+02  0.41800000000E+01 0.  1.
        -11    1    4    4    0    0  0.26126681494E+02 -0.59432957407E+02  0.47712719963E+02  0.80569122859E+02  0.00000000000E+00 0. -1.
         11    1    4    4    0    0 -0.38161858590E+02 -0.35512056004E+02 -0.12861949972E+02  0.53692302333E+02  0.00000000000E+00 0.  1.
</event>
<event>
 8    1  0.6493926E-009  0.9651036E+02  0.7561462E-02  0.1287810E+00
          2   -1    0    0  501    0  0.00000000000E+00  0.00000000000E+00  0.13596637586E+03  0.13596637586E+03  0.00000000000E+00 0. -1.
         -2   -1    0    0    0  501 -0.00000000000E+00 -0.00000000000E+00 -0.14633386866E+03  0.14633386866E+03  0.00000000000E+00 0.  1.
         25    2    1    2    0    0 -0.28872544322E+02 -0.82804782145E+02 -0.25541967634E+02  0.15488579008E+03  0.12508780954E+03 0.  0.
         23    2    1    2    0    0  0.28872544322E+02  0.82804782145E+02  0.15174474835E+02  0.12741445445E+03  0.91180714814E+02 0.  0.
          5    1    3    3  502    0  0.35441232107E+01 -0.10111943366E+02  0.46224440859E+02  0.47633848686E+02  0.41800000000E+01 0. -1.
         -5    1    3    3    0  502 -0.32416667533E+02 -0.72692838779E+02 -0.71766408493E+02  0.10725194139E+03  0.41800000000E+01 0. -1.
        -11    1    4    4    0    0 -0.14981517063E+02  0.16150065262E+02 -0.28840995215E+02  0.36291506809E+02  0.00000000000E+00 0.  1.
         11    1    4    4    0    0  0.43854061385E+02  0.66654716883E+02  0.44015470050E+02  0.91122947639E+02  0.00000000000E+00 0. -1.
</event>
<event>
 8    1  0.6493926E-009  0.1136124E+03  0.7561462E-02  0.1254023E+00
         -1   -1    0    0    0  501 -0.00000000000E+00  0.00000000000E+00  0.28326095791E+02  0.28326095791E+02  0.00000000000E+00 0.  1.
          1   -1    0    0  501    0  0.00000000000E+00 -0.00000000000E+00 -0.80607772020E+03  0.80607772020E+03  0.00000000000E+00 0. -1.
         25    2    1    2    0    0  0.77731334931E+02 -0.12602916793E+02 -0.61985039397E+03  0.63722661047E+03  0.12506897398E+03 0.  0.
         23    2    1    2    0    0 -0.77731334931E+02  0.12602916793E+02 -0.15790123044E+03  0.19717720551E+03  0.88006010352E+02 0.  0.
          5    1    3    3  502    0 -0.67902854346E+01  0.43750478238E+02 -0.14751444564E+03  0.15407204936E+03  0.41800000000E+01 0.  1.
         -5    1    3    3    0  502  0.84521620366E+02 -0.56353395031E+02 -0.47233594833E+03  0.48315456111E+03  0.41800000000E+01 0.  1.
        -11    1    4    4    0    0 -0.50094424251E+02 -0.13713614752E+01 -0.17008274828E+02  0.52920821857E+02  0.00000000000E+00 0.  1.
         11    1    4    4    0    0 -0.27636910680E+02  0.13974278268E+02 -0.14089295561E+03  0.14425638366E+03  0.00000000000E+00 0. -1.
</event>
<event>
 8    1  0.6493926E-009  0.1113362E+03  0.7561462E-02  0.1258115E+00
         -1   -1    0    0    0  501 -0.00000000000E+00  0.00000000000E+00  0.28178608163E+02  0.28178608163E+02  0.00000000000E+00 0.  1.
          1   -1    0    0  501    0  0.00000000000E+00 -0.00000000000E+00 -0.74459115760E+03  0.74459115760E+03  0.00000000000E+00 0. -1.
         25    2    1    2    0    0  0.46563893601E+02  0.80666880834E+02 -0.43102465429E+03  0.45837599118E+03  0.12510377625E+03 0.  0.
         23    2    1    2    0    0 -0.46563893601E+02 -0.80666880834E+02 -0.28538789515E+03  0.31439377459E+03  0.93390861180E+02 0.  0.
          5    1    3    3  502    0  0.33851964139E+02  0.70375544971E+02 -0.43421016829E+03  0.44119679900E+03  0.41800000000E+01 0. -1.
         -5    1    3    3    0  502  0.12711929462E+02  0.10291335863E+02  0.31855139934E+01  0.17179192178E+02  0.41800000000E+01 0. -1.
        -11    1    4    4    0    0  0.26116335692E+02 -0.19533934942E+02 -0.11257118597E+03  0.11720029657E+03  0.00000000000E+00 0.  1.
         11    1    4    4    0    0 -0.72680229293E+02 -0.61132945892E+02 -0.17281670918E+03  0.19719347802E+03  0.00000000000E+00 0. -1.
</event>
<event>
 8    1  0.6493926E-009  0.1022833E+03  0.7561462E-02  0.1275567E+00
         -2   -1    0    0    0  501 -0.00000000000E+00  0.00000000000E+00  0.10793329596E+03  0.10793329596E+03  0.00000000000E+00 0.  1.
          2   -1    0    0  501    0  0.00000000000E+00 -0.00000000000E+00 -0.16189346722E+03  0.16189346722E+03  0.00000000000E+00 0. -1.
         25    2    1    2    0    0 -0.55377421472E+02 -0.22591239813E+02 -0.77504269212E+02  0.15884398634E+03  0.12508987699E+03 0.  0.
         23    2    1    2    0    0  0.55377421472E+02  0.22591239813E+02  0.23544097952E+02  0.11098277684E+03  0.90475572847E+02 0.  0.
          5    1    3    3  502    0  0.23569089322E+02 -0.43308415265E+02 -0.55191705877E+02  0.74126362394E+02  0.41800000000E+01 0.  1.
         -5    1    3    3    0  502 -0.78946510794E+02  0.20717175451E+02 -0.22312563335E+02  0.84717623950E+02  0.41800000000E+01 0.  1.
        -11    1    4    4    0    0  0.16349075247E+01 -0.10246431084E+02  0.43653381073E+02  0.44869588272E+02  0.00000000000E+00 0.  1.
         11    1    4    4    0    0  0.53742513947E+02  0.32837670897E+02 -0.20109283121E+02  0.66113188570E+02  0.00000000000E+00 0. -1.
</event>
<event>
 8    1  0.6493926E-009  0.1954365E+03  0.7561462E-02  0.1153647E+00
          2   -1    0    0  501    0  0.00000000000E+00  0.00000000000E+00  0.18576744531E+03  0.18576744531E+03  0.00000000000E+00 0.  1.
         -2   -1    0    0    0  501 -0.00000000000E+00 -0.00000000000E+00 -0.24206880231E+03  0.24206880231E+03  0.00000000000E+00 0. -1.
         25    2    1    2    0    0  0.29724232427E+02 -0.16480154245E+03  0.42440395698E+02  0.21328651386E+03  0.12508745509E+03 0.  0.
         23    2    1    2    0    0 -0.29724232427E+02  0.16480154245E+03 -0.98741752693E+02  0.21454973376E+03  0.90766602586E+02 0.  0.
          5    1    3    3  502    0  0.28730947676E+01  0.16412968177E+02  0.23443247348E+02  0.29063696326E+02  0.41800000000E+01 0.  1.
         -5    1    3    3    0  502  0.26851137659E+02 -0.18121451063E+03  0.18997148350E+02  0.18422281753E+03  0.41800000000E+01 0.  1.
        -11    1    4    4    0    0  0.27755860309E+02  0.18743519026E+02 -0.18670359276E+02  0.38344355549E+02  0.00000000000E+00 0.  1.
         11    1    4    4    0    0 -0.57480092736E+02  0.14605802342E+03 -0.80071393417E+02  0.17620537821E+03  0.00000000000E+00 0. -1.
</event>
<event>
 8    1  0.6493926E-009  0.1235406E+03  0.7561462E-02  0.1237368E+00
          2   -1    0    0  501    0  0.00000000000E+00  0.00000000000E+00  0.25796331906E+04  0.25796331906E+04  0.00000000000E+00 0. -1.
         -2   -1    0    0    0  501 -0.00000000000E+00 -0.00000000000E+00 -0.89835866573E+01  0.89835866573E+01  0.00000000000E+00 0.  1.
         25    2    1    2    0    0  0.77506041509E+01 -0.69040889717E+02  0.20743320085E+04  0.20792612946E+04  0.12509010015E+03 0.  0.
         23    2    1    2    0    0 -0.77506041509E+01  0.69040889717E+02  0.49631759543E+03  0.50935548270E+03  0.91022721961E+02 0.  0.
          5    1    3    3  502    0  0.50865282269E+02 -0.76928632307E+02  0.16675265642E+04  0.16700801197E+04  0.41800000000E+01 0.  1.
         -5    1    3    3    0  502 -0.43114678118E+02  0.78877425901E+01  0.40680544433E+03  0.40918117489E+03  0.41800000000E+01 0.  1.
        -11    1    4    4    0    0 -0.47124144158E+02  0.39937753800E+02  0.21056854951E+03  0.21944207250E+03  0.00000000000E+00 0.  1.
         11    1    4    4    0    0  0.39373540007E+02  0.29103135917E+02  0.28574904592E+03  0.28991341020E+03  0.00000000000E+00 0. -1.
</event>
<event>
 8    1  0.6493926E-009  0.8802868E+02  0.7561462E-02  0.1307697E+00
         -2   -1    0    0    0  501 -0.00000000000E+00  0.00000000000E+00  0.28516331977E+03  0.28516331977E+03  0.00000000000E+00 0.  1.
          2   -1    0    0  501    0  0.00000000000E+00 -0.00000000000E+00 -0.45045769991E+02  0.45045769991E+02  0.00000000000E+00 0. -1.
         25    2    1    2    0    0  0.83306075372E+01 -0.32836053700E+02  0.13537637345E+03  0.18740839327E+03  0.12509011925E+03 0.  0.
         23    2    1    2    0    0 -0.83306075372E+01  0.32836053700E+02  0.10474117633E+03  0.14280069649E+03  0.90959988210E+02 0.  0.
          5    1    3    3  502    0  0.94263290211E+01  0.25540424375E+02 -0.11079038959E+02  0.29688153535E+02  0.41800000000E+01 0. -1.
         -5    1    3    3    0  502 -0.10957214838E+01 -0.58376478074E+02  0.14645541241E+03  0.15772023974E+03  0.41800000000E+01 0. -1.
        -11    1    4    4    0    0 -0.45189939468E+02  0.89847157558E+01  0.26683455143E+02  0.53243427056E+02  0.00000000000E+00 0. -1.
         11    1    4    4    0    0  0.36859331930E+02  0.23851337944E+02  0.78057721182E+02  0.89557269433E+02  0.00000000000E+00 0.  1.
</event>
<event>
 8    1  0.6493926E-009  0.1250583E+03  0.7561462E-02  0.1234978E+00
          3   -1    0    0  501    0  0.00000000000E+00  0.00000000000E+00  0.29928196722E+03  0.29928196722E+03  0.00000000000E+00 0.  1.
         -3   -1    0    0    0  501 -0.00000000000E+00 -0.00000000000E+00 -0.68719605629E+02  0.68719605629E+02  0.00000000000E+00 0. -1.
         25    2    1    2    0    0 -0.45372265527E+02 -0.56760221262E+02  0.72065123905E+02  0.16162152967E+03  0.12509105313E+03 0.  0.
         23    2    1    2    0    0  0.45372265527E+02  0.56760221262E+02  0.15849723768E+03  0.20638004318E+03  0.11041278310E+03 0.  0.
          5    1    3    3  502    0 -0.62611659191E+02  0.16206366436E+02  0.54070808814E+02  0.84403737746E+02  0.41800000000E+01 0.  1.
         -5    1    3    3    0  502  0.17239393664E+02 -0.72966587698E+02  0.17994315090E+02  0.77217791925E+02  0.41800000000E+01 0.  1.
        -11    1    4    4    0    0 -0.10053378179E+02 -0.15909935859E+02 -0.46422539564E+01  0.19384194428E+02  0.00000000000E+00 0. -1.
         11    1    4    4    0    0  0.55425643706E+02  0.72670157121E+02  0.16313949164E+03  0.18699584875E+03  0.00000000000E+00 0.  1.
</event>
<event>
 8    1  0.6493926E-009  0.1158072E+03  0.7561462E-02  0.1250179E+00
         -1   -1    0    0    0  501 -0.00000000000E+00  0.00000000000E+00  0.10659649221E+03  0.10659649221E+03  0.00000000000E+00 0.  1.
          1   -1    0    0  501    0  0.00000000000E+00 -0.00000000000E+00 -0.17543672666E+03  0.17543672666E+03  0.00000000000E+00 0. -1.
         25    2    1    2    0    0  0.21713091197E+02  0.73358568595E+02 -0.44654621106E+01  0.14669864042E+03  0.12509041863E+03 0.  0.
         23    2    1    2    0    0 -0.21713091197E+02 -0.73358568595E+02 -0.64374772340E+02  0.13533457845E+03  0.91205256942E+02 0.  0.
          5    1    3    3  502    0  0.40689000665E+02  0.27876185281E+01 -0.46738360448E+02  0.62171636053E+02  0.41800000000E+01 0.  1.
         -5    1    3    3    0  502 -0.18975909467E+02  0.70570950067E+02  0.42272898337E+02  0.84527004367E+02  0.41800000000E+01 0.  1.
        -11    1    4    4    0    0  0.34391601704E+02 -0.37253428616E+02 -0.16877478021E+02  0.53436405902E+02  0.00000000000E+00 0.  1.
         11    1    4    4    0    0 -0.56104692901E+02 -0.36105139979E+02 -0.47497294319E+02  0.81898172544E+02  0.00000000000E+00 0. -1.
</event>
<event>
 8    1  0.6493926E-009  0.8618580E+02  0.7561462E-02  0.1312360E+00
         -2   -1    0    0    0  501 -0.00000000000E+00  0.00000000000E+00  0.40338219989E+02  0.40338219989E+02  0.00000000000E+00 0. -1.
          2   -1    0    0  501    0  0.00000000000E+00 -0.00000000000E+00 -0.30907778873E+03  0.30907778873E+03  0.00000000000E+00 0.  1.
         25    2    1    2    0    0  0.63091034247E+01  0.12640636258E+02 -0.18422466380E+03  0.22312636327E+03  0.12508819594E+03 0.  0.
         23    2    1    2    0    0 -0.63091034247E+01 -0.12640636258E+02 -0.84514904932E+02  0.12628964544E+03  0.92772382307E+02 0.  0.
          5    1    3    3  502    0  0.50792629761E+02  0.94333210939E+01 -0.24667647105E+02  0.57400731690E+02  0.41800000000E+01 0.  1.
         -5    1    3    3    0  502 -0.44483526336E+02  0.32073151642E+01 -0.15955701670E+03  0.16572563158E+03  0.41800000000E+01 0.  1.
        -11    1    4    4    0    0 -0.38538765034E+02  0.52341065779E+01 -0.57321057555E+01  0.39312711918E+02  0.00000000000E+00 0. -1.
         11    1    4    4    0    0  0.32229661609E+02 -0.17874742836E+02 -0.78782799176E+02  0.86976933522E+02  0.00000000000E+00 0.  1.
</event>
<event>
 8    1  0.6493926E-009  0.1321346E+03  0.7561462E-02  0.1224322E+00
          2   -1    0    0  501    0  0.00000000000E+00  0.00000000000E+00  0.17675359188E+02  0.17675359188E+02  0.00000000000E+00 0. -1.
         -2   -1    0    0    0  501 -0.00000000000E+00 -0.00000000000E+00 -0.13268880433E+04  0.13268880433E+04  0.00000000000E+00 0.  1.
         25    2    1    2    0    0 -0.46094197224E+02 -0.74591616364E+02 -0.97334485523E+03  0.98526001083E+03  0.12509395464E+03 0.  0.
         23    2    1    2    0    0  0.46094197224E+02  0.74591616364E+02 -0.33586782891E+03  0.35930339169E+03  0.92753137578E+02 0.  0.
          5    1    3    3  502    0 -0.39396254034E+02 -0.10130684400E+03 -0.53037378215E+03  0.54141385526E+03  0.41800000000E+01 0.  1.
         -5    1    3    3    0  502 -0.66979431903E+01  0.26715227635E+02 -0.44297107308E+03  0.44384615557E+03  0.41800000000E+01 0.  1.
        -11    1    4    4    0    0  0.22428374478E+02 -0.20046670377E+02 -0.77809192461E+02  0.83421648308E+02  0.00000000000E+00 0. -1.
         11    1    4    4    0    0  0.23665822747E+02  0.94638286741E+02 -0.25805863645E+03  0.27588174338E+03  0.00000000000E+00 0.  1.
</event>
<event>
 8    1  0.6493926E-009  0.1087132E+03  0.7561462E-02  0.1262971E+00
         -2   -1    0    0    0  501 -0.00000000000E+00  0.00000000000E+00  0.36995413660E+02  0.36995413660E+02  0.00000000000E+00 0.  1.
          2   -1    0    0  501    0  0.00000000000E+00 -0.00000000000E+00 -0.41427932301E+03  0.41427932301E+03  0.00000000000E+00 0. -1.
         25    2    1    2    0    0 -0.11936369128E+02  0.34686121933E+02 -0.29359990411E+03  0.32125526025E+03  0.12513366686E+03 0.  0.
         23    2    1    2    0    0  0.11936369128E+02 -0.34686121933E+02 -0.83684005235E+02  0.13001947641E+03  0.92501067843E+02 0.  0.
          5    1    3    3  502    0  0.23175979135E+02  0.73870933211E+02 -0.18033892417E+03  0.19629987456E+03  0.41800000000E+01 0.  1.
         -5    1    3    3    0  502 -0.35112348263E+02 -0.39184811279E+02 -0.11326097994E+03  0.12495538569E+03  0.41800000000E+01 0.  1.
        -11    1    4    4    0    0 -0.15158503434E+02  0.20580713190E+02 -0.57890270080E+02  0.63282140859E+02  0.00000000000E+00 0. -1.
         11    1    4    4    0    0  0.27094872562E+02 -0.55266835123E+02 -0.25793735154E+02  0.66737335554E+02  0.00000000000E+00 0.  1.
</event>
<event>
 8    1  0.6493926E-009  0.1825476E+03  0.7561462E-02  0.1165360E+00
         -2   -1    0    0    0  501 -0.00000000000E+00  0.00000000000E+00  0.48211395205E+02  0.48211395205E+02  0.00000000000E+00 0.  1.
          2   -1    0    0  501    0  0.00000000000E+00 -0.00000000000E+00 -0.72844064874E+03  0.72844064874E+03  0.00000000000E+00 0. -1.
         25    2    1    2    0    0 -0.12894273263E+03  0.82224642502E+02 -0.37138890797E+03  0.42067140184E+03  0.12509031630E+03 0.  0.
         23    2    1    2    0    0  0.12894273263E+03 -0.82224642502E+02 -0.30884034557E+03  0.35598064210E+03  0.89178127197E+02 0.  0.
          5    1    3    3  502    0 -0.14752443169E+03  0.46102458538E+02 -0.26636914164E+03  0.30799169899E+03  0.41800000000E+01 0. -1.
         -5    1    3    3    0  502  0.18581699064E+02  0.36122183964E+02 -0.10501976633E+03  0.11267970285E+03  0.41800000000E+01 0. -1.
        -11    1    4    4    0    0  0.18564135274E+02 -0.51979520541E+02 -0.56943814439E+02  0.79303818805E+02  0.00000000000E+00 0.  1.
         11    1    4    4    0    0  0.11037859736E+03 -0.30245121961E+02 -0.25189653113E+03  0.27667682330E+03  0.00000000000E+00 0. -1.
</event>
<event>
 8    1  0.6493926E-009  0.1808499E+03  0.7561462E-02  0.1166983E+00
          2   -1    0    0  501    0  0.00000000000E+00  0.00000000000E+00  0.45773560015E+03  0.45773560015E+03  0.00000000000E+00 0. -1.
         -2   -1    0    0    0  501 -0.00000000000E+00 -0.00000000000E+00 -0.85719567651E+02  0.85719567651E+02  0.00000000000E+00 0.  1.
         25    2    1    2    0    0 -0.16102196545E+03 -0.32684000561E+02  0.18375383224E+03  0.27644770634E+03  0.12514609953E+03 0.  0.
         23    2    1    2    0    0  0.16102196545E+03  0.32684000561E+02  0.18826220026E+03  0.26700746146E+03  0.94095755389E+02 0.  0.
          5    1    3    3  502    0  0.75702149671E+01 -0.12499492411E+02  0.70934840189E+02  0.72544947569E+02  0.41800000000E+01 0.  1.
         -5    1    3    3    0  502 -0.16859218041E+03 -0.20184508149E+02  0.11281899205E+03  0.20390275877E+03  0.41800000000E+01 0.  1.
        -11    1    4    4    0    0  0.72618820822E+02 -0.17911430351E+02  0.34021620443E+02  0.82169234707E+02  0.00000000000E+00 0.  1.
         11    1    4    4    0    0  0.88403144624E+02  0.50595430912E+02  0.15424057982E+03  0.18483822676E+03  0.00000000000E+00 0. -1.
</event>
<event>
 8    1  0.6493926E-009  0.9315098E+02  0.7561462E-02  0.1295396E+00
          4   -1    0    0  501    0  0.00000000000E+00  0.00000000000E+00  0.16201628029E+03  0.16201628029E+03  0.00000000000E+00 0. -1.
         -4   -1    0    0    0  501 -0.00000000000E+00 -0.00000000000E+00 -0.13636495612E+03  0.13636495612E+03  0.00000000000E+00 0.  1.
         25    2    1    2    0    0 -0.20659292481E+02  0.12596520571E-01 -0.85760399462E+02  0.15308364583E+03  0.12511174997E+03 0.  0.
         23    2    1    2    0    0  0.20659292481E+02 -0.12596520571E-01  0.11141172363E+03  0.14529759058E+03  0.90950597246E+02 0.  0.
          5    1    3    3  502    0 -0.59976666826E+02 -0.34740718379E+02 -0.68869370719E+02  0.97798674328E+02  0.41800000000E+01 0. -1.
         -5    1    3    3    0  502  0.39317374345E+02  0.34753314899E+02 -0.16891028743E+02  0.55284971501E+02  0.41800000000E+01 0. -1.
        -11    1    4    4    0    0  0.40193010728E+02  0.11167955636E+02  0.11515793523E+03  0.12248082051E+03  0.00000000000E+00 0. -1.
         11    1    4    4    0    0 -0.19533718248E+02 -0.11180552156E+02 -0.37462115987E+01  0.22816770070E+02  0.00000000000E+00 0.  1.
</event>
<event>
 8    1  0.6493926E-009  0.1049138E+03  0.7561462E-02  0.1270290E+00
          3   -1    0    0  501    0  0.00000000000E+00  0.00000000000E+00  0.16970467214E+03  0.16970467214E+03  0.00000000000E+00 0. -1.
         -3   -1    0    0    0  501 -0.00000000000E+00 -0.00000000000E+00 -0.84512769969E+02  0.84512769969E+02  0.00000000000E+00 0.  1.
         25    2    1    2    0    0 -0.26676876737E+02 -0.28826137081E+02  0.14665349497E+02  0.13192718233E+03  0.12508839686E+03 0.  0.
         23    2    1    2    0    0  0.26676876737E+02  0.28826137081E+02  0.70526552674E+02  0.12229025978E+03  0.91860280174E+02 0.  0.
          5    1    3    3  502    0  0.28342370363E+02 -0.51911382736E+02 -0.20268065203E+02  0.62660581568E+02  0.41800000000E+01 0.  1.
         -5    1    3    3    0  502 -0.55019247100E+02  0.23085245656E+02  0.34933414699E+02  0.69266600761E+02  0.41800000000E+01 0.  1.
        -11    1    4    4    0    0  0.51573478292E+02 -0.13639041010E+01  0.13851975051E+02  0.53418733702E+02  0.00000000000E+00 0. -1.
         11    1    4    4    0    0 -0.24896601555E+02  0.30190041182E+02  0.56674577624E+02  0.68871526078E+02  0.00000000000E+00 0.  1.
</event>
<event>
 8    1  0.6493926E-009  0.6861410E+02  0.7561462E-02  0.1364870E+00
         -2   -1    0    0    0  501 -0.00000000000E+00  0.00000000000E+00  0.37893404908E+02  0.37893404908E+02  0.00000000000E+00 0. -1.
          2   -1    0    0  501    0  0.00000000000E+00 -0.00000000000E+00 -0.31442711346E+03  0.31442711346E+03  0.00000000000E+00 0.  1.
         25    2    1    2    0    0  0.12305671550E+02 -0.67157685951E+01 -0.13946124178E+03  0.18786538661E+03  0.12508970552E+03 0.  0.
         23    2    1    2    0    0 -0.12305671550E+02  0.67157685951E+01 -0.13707246678E+03  0.16445513176E+03  0.89778049178E+02 0.  0.
          5    1    3    3  502    0  0.38082208547E+02 -0.25522860205E+02 -0.13493999670E+01  0.46053927966E+02  0.41800000000E+01 0.  1.
         -5    1    3    3    0  502 -0.25776536997E+02  0.18807091610E+02 -0.13811184181E+03  0.14181145865E+03  0.41800000000E+01 0.  1.
        -11    1    4    4    0    0 -0.24517195486E+02  0.26286306373E+02 -0.13673920582E+03  0.14138484072E+03  0.00000000000E+00 0.  1.
         11    1    4    4    0    0  0.12211523936E+02 -0.19570537778E+02 -0.33326095445E+00  0.23070291039E+02  0.00000000000E+00 0. -1.
</event>
<event>
 8    1  0.6493926E-009  0.1014031E+03  0.7561462E-02  0.1277373E+00
         -2   -1    0    0    0  501 -0.00000000000E+00  0.00000000000E+00  0.20220348932E+03  0.20220348932E+03  0.00000000000E+00 0.  1.
          2   -1    0    0  501    0  0.00000000000E+00 -0.00000000000E+00 -0.95869059318E+02  0.95869059318E+02  0.00000000000E+00 0. -1.
         25    2    1    2    0    0 -0.39743203885E+02  0.50679240265E+02  0.12032866829E+03  0.18513207889E+03  0.12508793136E+03 0.  0.
         23    2    1    2    0    0  0.39743203885E+02 -0.50679240265E+02 -0.13994238287E+02  0.11294046975E+03  0.91715883862E+02 0.  0.
          5    1    3    3  502    0  0.39195243141E+02  0.37018342152E+02  0.76609512905E+02  0.93771608753E+02  0.41800000000E+01 0.  1.
         -5    1    3    3    0  502 -0.78938447027E+02  0.13660898113E+02  0.43719155385E+02  0.91360470138E+02  0.41800000000E+01 0.  1.
        -11    1    4    4    0    0  0.32260896208E+02 -0.22442376397E+02 -0.51890396771E+02  0.65092541505E+02  0.00000000000E+00 0. -1.
         11    1    4    4    0    0  0.74823076771E+01 -0.28236863868E+02  0.37896158484E+02  0.47847928242E+02  0.00000000000E+00 0.  1.
</event>
<event>
 8    1  0.6493926E-009  0.1097078E+03  0.7561462E-02  0.1261112E+00
         -2   -1    0    0    0  501 -0.00000000000E+00  0.00000000000E+00  0.17706895808E+03  0.17706895808E+03  0.00000000000E+00 0. -1.
          2   -1    0    0  501    0  0.00000000000E+00 -0.00000000000E+00 -0.11938186787E+03  0.11938186787E+03  0.00000000000E+00 0.  1.
         25    2    1    2    0    0  0.92713465581E+02  0.25602462643E+02 -0.61775343360E+01  0.15790955172E+03  0.12508393901E+03 0.  0.
         23    2    1    2    0    0 -0.92713465581E+02 -0.25602462643E+02  0.63864624541E+02  0.13854127424E+03  0.76574941111E+02 0.  0.
          5    1    3    3  502    0  0.39399814463E+02 -0.19463736561E+01  0.57792996998E+02  0.70097336984E+02  0.41800000000E+01 0. -1.
         -5    1    3    3    0  502  0.53313651118E+02  0.27548836299E+02 -0.63970531334E+02  0.87812214732E+02  0.41800000000E+01 0. -1.
        -11    1    4    4    0    0 -0.92976726587E+02  0.10048770995E+01  0.35178349800E+02  0.99414273420E+02  0.00000000000E+00 0.  1.
         11    1    4    4    0    0  0.26326100610E+00 -0.26607339742E+02  0.28686274741E+02  0.39127000818E+02  0.00000000000E+00 0. -1.
</event>
<event>
 8    1  0.6493926E-009  0.9893148E+02  0.7561462E-02  0.1282559E+00
         -1   -1    0    0    0  501 -0.00000000000E+00  0.00000000000E+00  0.15427706335E+02  0.15427706335E+02  0.00000000000E+00 0.  1.
          1   -1    0    0  501    0  0.00000000000E+00 -0.00000000000E+00 -0.78124575615E+03  0.78124575615E+03  0.00000000000E+00 0. -1.
         25    2    1    2    0    0 -0.26690494400E+01  0.20396868940E+02 -0.49341721416E+03  0.50944238296E+03  0.12509131962E+03 0.  0.
         23    2    1    2    0    0  0.26690494400E+01 -0.20396868940E+02 -0.27240083566E+03  0.28723107952E+03  0.88748643310E+02 0.  0.
          5    1    3    3  502    0  0.36628928390E+02  0.53193338820E+02 -0.37235511950E+03  0.37793784820E+03  0.41800000000E+01 0.  1.
         -5    1    3    3    0  502 -0.39297977830E+02 -0.32796469880E+02 -0.12106209466E+03  0.13150453476E+03  0.41800000000E+01 0.  1.
        -11    1    4    4    0    0  0.25870894675E+02  0.21669093222E+02 -0.54538788895E+02  0.64135265545E+02  0.00000000000E+00 0.  1.
         11    1    4    4    0    0 -0.23201845235E+02 -0.42065962162E+02 -0.21786204676E+03  0.22309581398E+03  0.00000000000E+00 0. -1.
</event>
<event>
 8    1  0.6493926E-009  0.3691900E+03  0.7561462E-02  0.1055003E+00
          1   -1    0    0  501    0  0.00000000000E+00  0.00000000000E+00  0.51640211461E+03  0.51640211461E+03  0.00000000000E+00 0. -1.
         -1   -1    0    0    0  501 -0.00000000000E+00 -0.00000000000E+00 -0.30255988270E+03  0.30255988270E+03  0.00000000000E+00 0.  1.
         25    2    1    2    0    0  0.11387796244E+02  0.35860427446E+03  0.23772100356E+03  0.44820169678E+03  0.12508708126E+03 0.  0.
         23    2    1    2    0    0 -0.11387796244E+02 -0.35860427446E+03 -0.23878771658E+02  0.37076030053E+03  0.90367566891E+02 0.  0.
          5    1    3    3  502    0 -0.23487932545E+02  0.33448566152E+03  0.22466107703E+03  0.40363648580E+03  0.41800000000E+01 0. -1.
         -5    1    3    3    0  502  0.34875728789E+02  0.24118612943E+02  0.13059926532E+02  0.44565210982E+02  0.41800000000E+01 0. -1.
        -11    1    4    4    0    0 -0.23392005699E+02 -0.19641903779E+03  0.28622099196E+02  0.19986707807E+03  0.00000000000E+00 0. -1.
         11    1    4    4    0    0  0.12004209455E+02 -0.16218523668E+03 -0.52500870854E+02  0.17089322246E+03  0.00000000000E+00 0.  1.
</event>
<event>
 8    1  0.6493926E-009  0.1084824E+03  0.7561462E-02  0.1263406E+00
         -1   -1    0    0    0  501 -0.00000000000E+00  0.00000000000E+00  0.36225718313E+02  0.36225718313E+02  0.00000000000E+00 0.  1.
          1   -1    0    0  501    0  0.00000000000E+00 -0.00000000000E+00 -0.54095561723E+03  0.54095561723E+03  0.00000000000E+00 0. -1.
         25    2    1    2    0    0  0.72711477741E+02 -0.48979227588E+02 -0.28117600190E+03  0.32000586439E+03  0.12513147272E+03 0.  0.
         23    2    1    2    0    0 -0.72711477741E+02  0.48979227588E+02 -0.22355389701E+03  0.25717547115E+03  0.92070377232E+02 0.  0.
          5    1    3    3  502    0  0.46578590456E+02 -0.72554651746E+02 -0.86764250604E+02  0.12238974696E+03  0.41800000000E+01 0. -1.
         -5    1    3    3    0  502  0.26132887285E+02  0.23575424158E+02 -0.19441175130E+03  0.19761611742E+03  0.41800000000E+01 0. -1.
        -11    1    4    4    0    0 -0.99597284808E+01 -0.61224242394E+01  0.58291782861E+01  0.13063674425E+02  0.00000000000E+00 0.  1.
         11    1    4    4    0    0 -0.62751749260E+02  0.55101651828E+02 -0.22938307530E+03  0.24411179673E+03  0.00000000000E+00 0. -1.
</event>
<event>
 8    1  0.6493926E-009  0.1152677E+03  0.7561462E-02  0.1251115E+00
          2   -1    0    0  501    0  0.00000000000E+00  0.00000000000E+00  0.22491507642E+03  0.22491507642E+03  0.00000000000E+00 0. -1.
         -2   -1    0    0    0  501 -0.00000000000E+00 -0.00000000000E+00 -0.94709848801E+02  0.94709848801E+02  0.00000000000E+00 0.  1.
         25    2    1    2    0    0 -0.27998951598E+02  0.52769214737E+02  0.15439461611E+03  0.20749505148E+03  0.12509183663E+03 0.  0.
         23    2    1    2    0    0  0.27998951598E+02 -0.52769214737E+02 -0.24189388488E+02  0.11212987374E+03  0.91757565114E+02 0.  0.
          5    1    3    3  502    0 -0.59554604793E+02 -0.60142775928E+01  0.11549615137E+03  0.13015281736E+03  0.41800000000E+01 0.  1.
         -5    1    3    3    0  502  0.31555653194E+02  0.58783492330E+02  0.38898464741E+02  0.77342234117E+02  0.41800000000E+01 0.  1.
        -11    1    4    4    0    0 -0.29813398875E+02 -0.27608522555E+02 -0.27382804730E+02  0.48998849629E+02  0.00000000000E+00 0.  1.
         11    1    4    4    0    0  0.57812350473E+02 -0.25160692182E+02  0.31934162414E+01  0.63131024113E+02  0.00000000000E+00 0. -1.
</event>
<event>
 8    1  0.6493926E-009  0.1139447E+03  0.7561462E-02  0.1253435E+00
         -2   -1    0    0    0  501 -0.00000000000E+00  0.00000000000E+00  0.26640193559E+02  0.26640193559E+02  0.00000000000E+00 0. -1.
          2   -1    0    0  501    0  0.00000000000E+00 -0.00000000000E+00 -0.65495979871E+03  0.65495979871E+03  0.00000000000E+00 0.  1.
         25    2    1    2    0    0 -0.54045296935E+02 -0.23230280532E+02 -0.23276847801E+03  0.27071939526E+03  0.12508911447E+03 0.  0.
         23    2    1    2    0    0  0.54045296935E+02  0.23230280532E+02 -0.39555112714E+03  0.41088059701E+03  0.94348453956E+02 0.  0.
          5    1    3    3  502    0 -0.33567330910E+01 -0.67390792531E+02 -0.87317207402E+02  0.11042895310E+03  0.41800000000E+01 0. -1.
         -5    1    3    3    0  502 -0.50688563844E+02  0.44160511999E+02 -0.14545127061E+03  0.16029044216E+03  0.41800000000E+01 0. -1.
        -11    1    4    4    0    0  0.49679653779E+02  0.47222713655E+02 -0.36694019060E+03  0.37328696221E+03  0.00000000000E+00 0.  1.
         11    1    4    4    0    0  0.43656431556E+01 -0.23992433122E+02 -0.28610936544E+02  0.37593634796E+02  0.00000000000E+00 0. -1.
</event>
<event>
 8    1  0.6493926E-009  0.1394445E+03  0.7561462E-02  0.1214078E+00
          1   -1    0    0  501    0  0.00000000000E+00  0.00000000000E+00  0.11203899577E+03  0.11203899577E+03  0.00000000000E+00 0. -1.
         -1   -1    0    0    0  501 -0.00000000000E+00 -0.00000000000E+00 -0.19574989116E+03  0.19574989116E+03  0.00000000000E+00 0.  1.
         25    2    1    2    0    0  0.46056252323E+02 -0.74727959254E+02  0.60316269990E+01  0.15293893074E+03  0.12509392368E+03 0.  0.
         23    2    1    2    0    0 -0.46056252323E+02  0.74727959254E+02 -0.89742522386E+02  0.15484995618E+03  0.90660588642E+02 0.  0.
          5    1    3    3  502    0  0.71005533438E+02 -0.96187921055E+02  0.37960108186E+01  0.11969036734E+03  0.41800000000E+01 0.  1.
         -5    1    3    3    0  502 -0.24949281116E+02  0.21459961802E+02  0.22356161804E+01  0.33248563404E+02  0.41800000000E+01 0.  1.
        -11    1    4    4    0    0 -0.71198351524E+02  0.35666957675E+02 -0.59747150208E+02  0.99554302205E+02  0.00000000000E+00 0.  1.
         11    1    4    4    0    0  0.25142099201E+02  0.39061001578E+02 -0.29995372178E+02  0.55295653976E+02  0.00000000000E+00 0. -1.
</event>
<event>
 8    1  0.6493926E-009  0.1085987E+03  0.7561462E-02  0.1263187E+00
         -1   -1    0    0    0  501 -0.00000000000E+00  0.00000000000E+00  0.11037306586E+03  0.11037306586E+03  0.00000000000E+00 0. -1.
          1   -1    0    0  501    0  0.00000000000E+00 -0.00000000000E+00 -0.17899093429E+03  0.17899093429E+03  0.00000000000E+00 0.  1.
         25    2    1    2    0    0  0.47238162301E+02  0.47792368731E+02  0.24364314501E+02  0.14406951837E+03  0.12508737673E+03 0.  0.
         23    2    1    2    0    0 -0.47238162301E+02 -0.47792368731E+02 -0.92982182936E+02  0.14529448178E+03  0.89158541964E+02 0.  0.
          5    1    3    3  502    0 -0.31134095548E+02  0.51292281634E+02 -0.46369808113E+01  0.60325815799E+02  0.41800000000E+01 0.  1.
         -5    1    3    3    0  502  0.78372257849E+02 -0.34999129023E+01  0.29001295312E+02  0.83743702572E+02  0.41800000000E+01 0.  1.
        -11    1    4    4    0    0  0.69983740839E+01 -0.10684169444E+02 -0.76478442123E+02  0.77537609107E+02  0.00000000000E+00 0.  1.
         11    1    4    4    0    0 -0.54236536385E+02 -0.37108199287E+02 -0.16503740813E+02  0.67756872671E+02  0.00000000000E+00 0. -1.
</event>
<event>
 8    1  0.6493926E-009  0.1118465E+03  0.7561462E-02  0.1257188E+00
          1   -1    0    0  501    0  0.00000000000E+00  0.00000000000E+00  0.62771277791E+03  0.62771277791E+03  0.00000000000E+00 0. -1.
         -1   -1    0    0    0  501 -0.00000000000E+00 -0.00000000000E+00 -0.20582293523E+02  0.20582293523E+02  0.00000000000E+00 0.  1.
         25    2    1    2    0    0 -0.62153651153E+01  0.27386306456E+02  0.31585249978E+03  0.34087917654E+03  0.12508865193E+03 0.  0.
         23    2    1    2    0    0  0.62153651153E+01 -0.27386306456E+02  0.29127798461E+03  0.30741589489E+03  0.94196749237E+02 0.  0.
          5    1    3    3  502    0  0.39218129997E+02  0.59349437080E+02  0.15346830348E+03  0.16920523034E+03  0.41800000000E+01 0.  1.
         -5    1    3    3    0  502 -0.45433495112E+02 -0.31963130624E+02  0.16238419630E+03  0.17167394620E+03  0.41800000000E+01 0.  1.
        -11    1    4    4    0    0  0.47217617267E+02 -0.29489779001E+02  0.13990863218E+03  0.15057747442E+03  0.00000000000E+00 0. -1.
         11    1    4    4    0    0 -0.41002252151E+02  0.21034725453E+01  0.15136935243E+03  0.15683842047E+03  0.00000000000E+00 0.  1.
</event>
<event>
 8    1  0.6493926E-009  0.1033920E+03  0.7561462E-02  0.1273320E+00
          2   -1    0    0  501    0  0.00000000000E+00  0.00000000000E+00  0.96799122333E+03  0.96799122333E+03  0.00000000000E+00 0. -1.
         -2   -1    0    0    0  501 -0.00000000000E+00 -0.00000000000E+00 -0.12869950286E+02  0.12869950286E+02  0.00000000000E+00 0.  1.
         25    2    1    2    0    0  0.73632143986E+01  0.19776497638E+02  0.67059489275E+03  0.68248826670E+03  0.12508955679E+03 0.  0.
         23    2    1    2    0    0 -0.73632143986E+01 -0.19776497638E+02  0.28452638030E+03  0.29837290692E+03  0.87325847909E+02 0.  0.
          5    1    3    3  502    0  0.62711132068E+02  0.57299412751E+01  0.45762491404E+03  0.46195622376E+03  0.41800000000E+01 0.  1.
         -5    1    3    3    0  502 -0.55347917669E+02  0.14046556363E+02  0.21296997871E+03  0.22053204295E+03  0.41800000000E+01 0.  1.
        -11    1    4    4    0    0 -0.26719639330E+01  0.33163206050E+02  0.15175696166E+03  0.15536123403E+03  0.00000000000E+00 0. -1.
         11    1    4    4    0    0 -0.46912504656E+01 -0.52939703688E+02  0.13276941864E+03  0.14301167289E+03  0.00000000000E+00 0.  1.
</event>
<event>
 8    1  0.6493926E-009  0.9927088E+02  0.7561462E-02  0.1281837E+00
          1   -1    0    0  501    0  0.00000000000E+00  0.00000000000E+00  0.79235816510E+02  0.79235816510E+02  0.00000000000E+00 0. -1.
         -1   -1    0    0    0  501 -0.00000000000E+00 -0.00000000000E+00 -0.27335630262E+03  0.27335630262E+03  0.00000000000E+00 0.  1.
         25    2    1    2    0    0 -0.66806053405E+02 -0.24020404355E+02 -0.23173067553E+02  0.14568341159E+03  0.12508651708E+03 0.  0.
         23    2    1    2    0    0  0.66806053405E+02  0.24020404355E+02 -0.17094741855E+03  0.20690870754E+03  0.92456285607E+02 0.  0.
          5    1    3    3  502    0  0.70998532531E+01  0.11585571450E+02 -0.55587728694E+02  0.57376836471E+02  0.41800000000E+01 0. -1.
         -5    1    3    3    0  502 -0.73905906658E+02 -0.35605975805E+02  0.32414661141E+02  0.88306575117E+02  0.41800000000E+01 0. -1.
        -11    1    4    4    0    0 -0.12757277584E+02  0.18442117253E+02 -0.52743659505E+01  0.23036465795E+02  0.00000000000E+00 0. -1.
         11    1    4    4    0    0  0.79563330989E+02  0.55782871024E+01 -0.16567305260E+03  0.18387224174E+03  0.00000000000E+00 0.  1.
</event>
<event>
 8    1  0.6493926E-009  0.1188338E+03  0.7561462E-02  0.1245033E+00
         -2   -1    0    0    0  501 -0.00000000000E+00  0.00000000000E+00  0.60917199665E+02  0.60917199665E+02  0.00000000000E+00 0.  1.
          2   -1    0    0  501    0  0.00000000000E+00 -0.00000000000E+00 -0.38327943503E+03  0.38327943503E+03  0.00000000000E+00 0. -1.
         25    2    1    2    0    0  0.23704112983E+02  0.71112712855E+02 -0.28537538320E+03  0.32047651737E+03  0.12508871230E+03 0.  0.
         23    2    1    2    0    0 -0.23704112983E+02 -0.71112712855E+02 -0.36986852165E+02  0.12372011733E+03  0.91212593958E+02 0.  0.
          5    1    3    3  502    0 -0.33344154447E+02  0.80739348526E+02 -0.16026079099E+03  0.18256962662E+03  0.41800000000E+01 0. -1.
         -5    1    3    3    0  502  0.57048267431E+02 -0.96266356710E+01 -0.12511459221E+03  0.13790689075E+03  0.41800000000E+01 0. -1.
        -11    1    4    4    0    0  0.13451787110E+02 -0.44543060593E+02  0.20033726288E+02  0.50659500712E+02  0.00000000000E+00 0.  1.
         11    1    4    4    0    0 -0.37155900094E+02 -0.26569652263E+02 -0.57020578453E+02  0.73060616615E+02  0.00000000000E+00 0. -1.
</event>
<event>
 8    1  0.6493926E-009  0.1089559E+03  0.7561462E-02  0.1262516E+00
         -1   -1    0    0    0  501 -0.00000000000E+00  0.00000000000E+00  0.13497591753E+03  0.13497591753E+03  0.00000000000E+00 0.  1.
          1   -1    0    0  501    0  0.00000000000E+00 -0.00000000000E+00 -0.14377750063E+03  0.14377750063E+03  0.00000000000E+00 0. -1.
         25    2    1    2    0    0  0.27197172589E+02  0.80577150178E+02 -0.16176872216E+02  0.15212835070E+03  0.12509588549E+03 0.  0.
         23    2    1    2    0    0 -0.27197172589E+02 -0.80577150178E+02  0.73752891130E+01  0.12662506746E+03  0.93526196820E+02 0.  0.
          5    1    3    3  502    0 -0.32077719647E+02  0.61132529351E+01  0.31528952662E+02  0.45583979808E+02  0.41800000000E+01 0.  1.
         -5    1    3    3    0  502  0.59274892237E+02  0.74463897243E+02 -0.47705824878E+02  0.10654437090E+03  0.41800000000E+01 0.  1.
        -11    1    4    4    0    0 -0.20777571901E+01 -0.50471223291E+02  0.48342002211E+02  0.69918600052E+02  0.00000000000E+00 0.  1.
         11    1    4    4    0    0 -0.25119415399E+02 -0.30105926886E+02 -0.40966713098E+02  0.56706467406E+02  0.00000000000E+00 0. -1.
</event>
<event>
 8    1  0.6493926E-009  0.9308130E+02  0.7561462E-02  0.1295557E+00
          1   -1    0    0  501    0  0.00000000000E+00  0.00000000000E+00  0.18778478133E+03  0.18778478133E+03  0.00000000000E+00 0. -1.
         -1   -1    0    0    0  501 -0.00000000000E+00 -0.00000000000E+00 -0.81875821455E+02  0.81875821455E+02  0.00000000000E+00 0.  1.
         25    2    1    2    0    0 -0.46518185543E+02 -0.27121755704E+02  0.85253173182E+02  0.16066878138E+03  0.12508725976E+03 0.  0.
         23    2    1    2    0    0  0.46518185543E+02  0.27121755704E+02  0.20655786694E+02  0.10899182140E+03  0.92482562626E+02 0.  0.
          5    1    3    3  502    0 -0.76717138637E+02 -0.38571001250E+02  0.20791089038E+02  0.88447630163E+02  0.41800000000E+01 0.  1.
         -5    1    3    3    0  502  0.30198953093E+02  0.11449245546E+02  0.64462084144E+02  0.72221151221E+02  0.41800000000E+01 0.  1.
        -11    1    4    4    0    0  0.14208124421E+02 -0.10771402466E+02 -0.31928778265E+02  0.36569670386E+02  0.00000000000E+00 0.  1.
         11    1    4    4    0    0  0.32310061122E+02  0.37893158170E+02  0.52584564959E+02  0.72422151016E+02  0.00000000000E+00 0. -1.
</event>
<event>
 8    1  0.6493926E-009  0.3386464E+03  0.7561462E-02  0.1067374E+00
          1   -1    0    0  501    0  0.00000000000E+00  0.00000000000E+00  0.34040638516E+03  0.34040638516E+03  0.00000000000E+00 0. -1.
         -1   -1    0    0    0  501 -0.00000000000E+00 -0.00000000000E+00 -0.34591934978E+03  0.34591934978E+03  0.00000000000E+00 0.  1.
         25    2    1    2    0    0  0.14312722367E+03  0.29237640644E+03 -0.14084788840E+01  0.34874081571E+03  0.12509519389E+03 0.  0.
         23    2    1    2    0    0 -0.14312722367E+03 -0.29237640644E+03 -0.41044857333E+01  0.33758491923E+03  0.89316099841E+02 0.  0.
          5    1    3    3  502    0 -0.21313389036E+02  0.22180339839E+02 -0.89960494174E+01  0.32320726055E+02  0.41800000000E+01 0.  1.
         -5    1    3    3    0  502  0.16444061270E+03  0.27019606660E+03  0.75875705334E+01  0.31642008966E+03  0.41800000000E+01 0.  1.
        -11    1    4    4    0    0 -0.12064196394E+03 -0.27847574883E+03  0.16701143574E+02  0.30394432771E+03  0.00000000000E+00 0. -1.
         11    1    4    4    0    0 -0.22485259725E+02 -0.13900657609E+02 -0.20805629307E+02  0.33640591519E+02  0.00000000000E+00 0.  1.
</event>
<event>
 8    1  0.6493926E-009  0.1174840E+03  0.7561462E-02  0.1247306E+00
          1   -1    0    0  501    0  0.00000000000E+00  0.00000000000E+00  0.26468465776E+03  0.26468465776E+03  0.00000000000E+00 0. -1.
         -1   -1    0    0    0  501 -0.00000000000E+00 -0.00000000000E+00 -0.95257967843E+02  0.95257967843E+02  0.00000000000E+00 0.  1.
         25    2    1    2    0    0 -0.68339090926E+02  0.10838797619E+02 -0.18113742639E+02  0.14408679069E+03  0.12508071273E+03 0.  0.
         23    2    1    2    0    0  0.68339090926E+02 -0.10838797619E+02  0.18754043255E+03  0.21585583491E+03  0.81453156715E+02 0.  0.
          5    1    3    3  502    0 -0.91212912422E+02 -0.29636108931E+02 -0.16308619634E+02  0.97373188401E+02  0.41800000000E+01 0. -1.
         -5    1    3    3    0  502  0.22873821496E+02  0.40474906551E+02 -0.18051230043E+01  0.46713602293E+02  0.41800000000E+01 0. -1.
        -11    1    4    4    0    0  0.62797846798E+01  0.21439163946E+02  0.89707805956E+01  0.24073810476E+02  0.00000000000E+00 0.  1.
         11    1    4    4    0    0  0.62059306246E+02 -0.32277961566E+02  0.17856965196E+03  0.19178202443E+03  0.00000000000E+00 0. -1.
</event>
<event>
 7    1  0.6493926E-009  0.6340239E+02  0.7561462E-02  0.1384084E+00
         -1   -1    0    0    0  501 -0.00000000000E+00  0.00000000000E+00  0.25193681776E+02  0.25193681776E+02  0.00000000000E+00 0.  1.
          1   -1    0    0  501    0  0.00000000000E+00 -0.00000000000E+00 -0.53597306396E+03  0.53597306396E+03  0.00000000000E+00 0. -1.
         23    2    1    2    0    0  0.42665983385E+02 -0.24877426803E+01 -0.26291709275E+03  0.27987946695E+03  0.85910088796E+02 0.  0.
          5    1    1    2  502    0  0.26045454129E+00  0.15147864862E+02  0.10592749654E+02  0.18952688244E+02  0.41800000000E+01 0.  1.
         -5    1    1    2    0  502 -0.42926437926E+02 -0.12660122181E+02 -0.25845503908E+03  0.26233459054E+03  0.41800000000E+01 0.  1.
        -11    1    3    3    0    0 -0.10558350183E+02 -0.70876737667E+01 -0.12085653875E+01  0.12773977779E+02  0.00000000000E+00 0.  1.
         11    1    3    3    0    0  0.53224333567E+02  0.45999310864E+01 -0.26170852737E+03  0.26710548917E+03  0.00000000000E+00 0. -1.
</event>
<event>
 8    1  0.6493926E-009  0.9040005E+02  0.7561462E-02  0.1301886E+00
          2   -1    0    0  501    0  0.00000000000E+00  0.00000000000E+00  0.59128099134E+03  0.59128099134E+03  0.00000000000E+00 0. -1.
         -2   -1    0    0    0  501 -0.00000000000E+00 -0.00000000000E+00 -0.20284636984E+02  0.20284636984E+02  0.00000000000E+00 0.  1.
         25    2    1    2    0    0 -0.11986446049E+02 -0.87770537424E+01  0.32566844589E+03  0.34918223338E+03  0.12509030296E+03 0.  0.
         23    2    1    2    0    0  0.11986446049E+02  0.87770537424E+01  0.24532790847E+03  0.26238339495E+03  0.91861589964E+02 0.  0.
          5    1    3    3  502    0  0.41078770068E+02 -0.28810003978E+02  0.24716848402E+03  0.25224435290E+03  0.41800000000E+01 0.  1.
         -5    1    3    3    0  502 -0.53065216117E+02  0.20032950236E+02  0.78499961873E+02  0.96937880474E+02  0.41800000000E+01 0.  1.
        -11    1    4    4    0    0  0.37870876634E+02 -0.12699290093E+02  0.49106329910E+02  0.63300133516E+02  0.00000000000E+00 0.  1.
         11    1    4    4    0    0 -0.25884430585E+02  0.21476343835E+02  0.19622157856E+03  0.19908326143E+03  0.00000000000E+00 0. -1.
</event>
<event>
 8    1  0.6493926E-009  0.1756353E+03  0.7561462E-02  0.1172095E+00
          1   -1    0    0  501    0  0.00000000000E+00  0.00000000000E+00  0.36417592919E+03  0.36417592919E+03  0.00000000000E+00 0. -1.
         -1   -1    0    0    0  501 -0.00000000000E+00 -0.00000000000E+00 -0.12167981751E+03  0.12167981751E+03  0.00000000000E+00 0.  1.
         25    2    1    2    0    0 -0.95853034435E+02  0.13492432316E+03  0.44178622290E+02  0.21211374570E+03  0.12509241886E+03 0.  0.
         23    2    1    2    0    0  0.95853034435E+02 -0.13492432316E+03  0.19831748938E+03  0.27374200100E+03  0.90622730739E+02 0.  0.
          5    1    3    3  502    0  0.15405390362E+02  0.21618299380E+02 -0.26954558345E+02  0.38061759495E+02  0.41800000000E+01 0. -1.
         -5    1    3    3    0  502 -0.11125842480E+03  0.11330602378E+03  0.71133180635E+02  0.17405198620E+03  0.41800000000E+01 0. -1.
        -11    1    4    4    0    0  0.21696063454E+02 -0.28003673897E+02 -0.13125784022E+01  0.35449228245E+02  0.00000000000E+00 0.  1.
         11    1    4    4    0    0  0.74156970981E+02 -0.10692064927E+03  0.19963006779E+03  0.23829277276E+03  0.00000000000E+00 0. -1.
</event>
<event>
 8    1  0.6493926E-009  0.1402500E+03  0.7561462E-02  0.1212993E+00
         -1   -1    0    0    0  501 -0.00000000000E+00  0.00000000000E+00  0.10337249091E+03  0.10337249091E+03  0.00000000000E+00 0.  1.
          1   -1    0    0  501    0  0.00000000000E+00 -0.00000000000E+00 -0.24780537061E+03  0.24780537061E+03  0.00000000000E+00 0. -1.
         25    2    1    2    0    0  0.77343411854E+02  0.67224191186E+02 -0.13977156107E+03  0.21373941418E+03  0.12508937866E+03 0.  0.
         23    2    1    2    0    0 -0.77343411854E+02 -0.67224191186E+02 -0.46613186356E+01  0.13743844733E+03  0.91468593936E+02 0.  0.
          5    1    3    3  502    0  0.63061750651E+02 -0.10805459995E+02 -0.15034394138E+02  0.65856265974E+02  0.41800000000E+01 0. -1.
         -5    1    3    3    0  502  0.14281661202E+02  0.78029651180E+02 -0.12473716693E+03  0.14788314821E+03  0.41800000000E+01 0. -1.
        -11    1    4    4    0    0 -0.34385952193E+02  0.19956441383E+02  0.34745760851E+01  0.39908970669E+02  0.00000000000E+00 0. -1.
         11    1    4    4    0    0 -0.42957459660E+02 -0.87180632569E+02 -0.81358947207E+01  0.97529476665E+02  0.00000000000E+00 0.  1.
</event>
<event>
 8    1  0.6493926E-009  0.8944497E+02  0.7561462E-02  0.1304201E+00
          2   -1    0    0  501    0  0.00000000000E+00  0.00000000000E+00  0.58103759757E+02  0.58103759757E+02  0.00000000000E+00 0.  1.
         -2   -1    0    0    0  501 -0.00000000000E+00 -0.00000000000E+00 -0.23872840310E+03  0.23872840310E+03  0.00000000000E+00 0. -1.
         25    2    1    2    0    0 -0.41240564751E+01 -0.45228968584E+02 -0.93671236095E+02  0.16274172460E+03  0.12509157052E+03 0.  0.
         23    2    1    2    0    0  0.41240564751E+01  0.45228968584E+02 -0.86953407249E+02  0.13409043825E+03  0.91414895713E+02 0.  0.
          5    1    3    3  502    0 -0.36597395123E+02 -0.61268963260E+02 -0.10924991651E+02  0.72319312990E+02  0.41800000000E+01 0. -1.
         -5    1    3    3    0  502  0.32473338648E+02  0.16039994676E+02 -0.82746244445E+02  0.90422411613E+02  0.41800000000E+01 0. -1.
        -11    1    4    4    0    0  0.23173588938E+02  0.14750877140E+01 -0.83021663826E+02  0.86207817351E+02  0.00000000000E+00 0. -1.
         11    1    4    4    0    0 -0.19049532463E+02  0.43753880870E+02 -0.39317434232E+01  0.47882620904E+02  0.00000000000E+00 0.  1.
</event>
<event>
 8    1  0.6493926E-009  0.1107997E+03  0.7561462E-02  0.1259096E+00
         -2   -1    0    0    0  501 -0.00000000000E+00  0.00000000000E+00  0.27202820936E+02  0.27202820936E+02  0.00000000000E+00 0. -1.
          2   -1    0    0  501    0  0.00000000000E+00 -0.00000000000E+00 -0.46972562188E+03  0.46972562188E+03  0.00000000000E+00 0.  1.
         25    2    1    2    0    0  0.68595287757E+01 -0.33133379871E+02 -0.29886054058E+03  0.32574066189E+03  0.12507790411E+03 0.  0.
         23    2    1    2    0    0 -0.68595287757E+01  0.33133379871E+02 -0.14366226036E+03  0.17118778092E+03  0.86726796832E+02 0.  0.
          5    1    3    3  502    0  0.33850406412E+02  0.39128799374E+02 -0.13306498882E+03  0.14283093714E+03  0.41800000000E+01 0. -1.
         -5    1    3    3    0  502 -0.26990877636E+02 -0.72262179245E+02 -0.16579555176E+03  0.18290972475E+03  0.41800000000E+01 0. -1.
        -11    1    4    4    0    0  0.37379326782E+02  0.30288010727E+02 -0.64613406009E+02  0.80557246108E+02  0.00000000000E+00 0. -1.
         11    1    4    4    0    0 -0.44238855557E+02  0.28453691442E+01 -0.79048854353E+02  0.90630534816E+02  0.00000000000E+00 0.  1.
</event>
<event>
 8    1  0.6493926E-009  0.7241427E+02  0.7561462E-02  0.1352070E+00
         -2   -1    0    0    0  501 -0.00000000000E+00  0.00000000000E+00  0.28658847122E+02  0.28658847122E+02  0.00000000000E+00 0.  1.
          2   -1    0    0  501    0  0.00000000000E+00 -0.00000000000E+00 -0.67552886235E+03  0.67552886235E+03  0.00000000000E+00 0. -1.
         25    2    1    2    0    0 -0.26016782106E+02 -0.36618259134E+02 -0.53832232026E+03  0.55448754405E+03  0.12509095155E+03 0.  0.
         23    2    1    2    0    0  0.26016782106E+02  0.36618259134E+02 -0.10854769496E+03  0.14970016542E+03  0.92788833339E+02 0.  0.
          5    1    3    3  502    0  0.47681501504E+01 -0.54837107477E+02 -0.49535935170E+03  0.49842572498E+03  0.41800000000E+01 0.  1.
         -5    1    3    3    0  502 -0.30784932256E+02  0.18218848342E+02 -0.42962968568E+02  0.56061819067E+02  0.41800000000E+01 0.  1.
        -11    1    4    4    0    0  0.81558166071E+01  0.34701571327E+02 -0.12210043991E+03  0.12719761721E+03  0.00000000000E+00 0. -1.
         11    1    4    4    0    0  0.17860965498E+02  0.19166878075E+01  0.13552744945E+02  0.22502548216E+02  0.00000000000E+00 0.  1.
</event>
<event>
 8    1  0.6493926E-009  0.1423387E+03  0.7561462E-02  0.1210216E+00
          1   -1    0    0  501    0  0.00000000000E+00  0.00000000000E+00  0.59232907236E+03  0.59232907236E+03  0.00000000000E+00 0. -1.
         -1   -1    0    0    0  501 -0.00000000000E+00 -0.00000000000E+00 -0.59197534498E+02  0.59197534498E+02  0.00000000000E+00 0.  1.
         25    2    1    2    0    0 -0.53960839269E+02 -0.12667135389E+03  0.39427300562E+03  0.43595492021E+03  0.12509230762E+03 0.  0.
         23    2    1    2    0    0  0.53960839269E+02  0.12667135389E+03  0.13885853225E+03  0.21557168665E+03  0.90730678597E+02 0.  0.
          5    1    3    3  502    0 -0.10855062927E+02 -0.40336624035E+02  0.29305488464E+03  0.29604647176E+03  0.41800000000E+01 0.  1.
         -5    1    3    3    0  502 -0.43105776342E+02 -0.86334729852E+02  0.10121812097E+03  0.13990844844E+03  0.41800000000E+01 0.  1.
        -11    1    4    4    0    0  0.10118545604E+02 -0.18758635412E+01  0.54992232637E+02  0.55946845126E+02  0.00000000000E+00 0. -1.
         11    1    4    4    0    0  0.43842293665E+02  0.12854721743E+03  0.83866299610E+02  0.15962484153E+03  0.00000000000E+00 0.  1.
</event>
<event>
 8    1  0.6493926E-009  0.1052035E+03  0.7561462E-02  0.1269719E+00
         -1   -1    0    0    0  501 -0.00000000000E+00  0.00000000000E+00  0.36049041052E+02  0.36049041052E+02  0.00000000000E+00 0.  1.
          1   -1    0    0  501    0  0.00000000000E+00 -0.00000000000E+00 -0.39041575394E+03  0.39041575394E+03  0.00000000000E+00 0. -1.
         25    2    1    2    0    0 -0.27439095664E+02  0.29695041644E+02 -0.15276954822E+03  0.20154700486E+03  0.12509180962E+03 0.  0.
         23    2    1    2    0    0  0.27439095664E+02 -0.29695041644E+02 -0.20159716466E+03  0.22491779013E+03  0.91169600464E+02 0.  0.
          5    1    3    3  502    0  0.48705532953E+00 -0.39821755376E+02 -0.11623034154E+02  0.41696243800E+02  0.41800000000E+01 0.  1.
         -5    1    3    3    0  502 -0.27926150994E+02  0.69516797020E+02 -0.14114651407E+03  0.15985076106E+03  0.41800000000E+01 0.  1.
        -11    1    4    4    0    0 -0.34464011119E+01 -0.55180407693E+02 -0.14818054591E+03  0.15815887348E+03  0.00000000000E+00 0.  1.
         11    1    4    4    0    0  0.30885496776E+02  0.25485366049E+02 -0.53416618752E+02  0.66758916653E+02  0.00000000000E+00 0. -1.
</event>
<event>
 8    1  0.6493926E-009  0.1077668E+03  0.7561462E-02  0.1264762E+00
          1   -1    0    0  501    0  0.00000000000E+00  0.00000000000E+00  0.30936710431E+03  0.30936710431E+03  0.00000000000E+00 0. -1.
         -1   -1    0    0    0  501 -0.00000000000E+00 -0.00000000000E+00 -0.60062602075E+02  0.60062602075E+02  0.00000000000E+00 0.  1.
         25    2    1    2    0    0  0.68607573953E+02 -0.28032735127E+01  0.19865779811E+03  0.24459726399E+03  0.12509213906E+03 0.  0.
         23    2    1    2    0    0 -0.68607573953E+02  0.28032735127E+01  0.50646704122E+02  0.12483244239E+03  0.91121855169E+02 0.  0.
          5    1    3    3  502    0  0.13571998224E+02 -0.52817733973E+02  0.35397582730E+02  0.65148855868E+02  0.41800000000E+01 0. -1.
         -5    1    3    3    0  502  0.55035575728E+02  0.50014460460E+02  0.16326021539E+03  0.17944840812E+03  0.41800000000E+01 0. -1.
        -11    1    4    4    0    0 -0.49638996857E+02 -0.22691126634E+02  0.69123946656E+02  0.88074044067E+02  0.00000000000E+00 0. -1.
         11    1    4    4    0    0 -0.18968577095E+02  0.25494400147E+02 -0.18477242534E+02  0.36758398327E+02  0.00000000000E+00 0.  1.
</event>
<event>
 8    1  0.6493926E-009  0.1477325E+03  0.7561462E-02  0.1203287E+00
         -1   -1    0    0    0  501 -0.00000000000E+00  0.00000000000E+00  0.14471401654E+04  0.14471401654E+04  0.00000000000E+00 0.  1.
          1   -1    0    0  501    0  0.00000000000E+00 -0.00000000000E+00 -0.17633181879E+02  0.17633181879E+02  0.00000000000E+00 0. -1.
         25    2    1    2    0    0 -0.32013971317E+01 -0.11468796141E+03  0.88302430393E+03  0.89918998702E+03  0.12508850465E+03 0.  0.
         23    2    1    2    0    0  0.32013971317E+01  0.11468796141E+03  0.54648267959E+03  0.56558336026E+03  0.89875696756E+02 0.  0.
          5    1    3    3  502    0  0.26176539744E+02 -0.11889891635E+03  0.82436987964E+03  0.83332186723E+03  0.41800000000E+01 0. -1.
         -5    1    3    3    0  502 -0.29377936876E+02  0.42109549384E+01  0.58654424289E+02  0.65868119794E+02  0.41800000000E+01 0. -1.
        -11    1    4    4    0    0  0.35037015497E+02  0.10455049405E+03  0.45561597292E+03  0.46876893353E+03  0.00000000000E+00 0.  1.
         11    1    4    4    0    0 -0.31835618365E+02  0.10137467365E+02  0.90866706670E+02  0.96814426727E+02  0.00000000000E+00 0. -1.
</event>
<event>
 8    1  0.6493926E-009  0.2014000E+03  0.7561462E-02  0.1148563E+00
         -1   -1    0    0    0  501 -0.00000000000E+00  0.00000000000E+00  0.14628920950E+03  0.14628920950E+03  0.00000000000E+00 0.  1.
          1   -1    0    0  501    0  0.00000000000E+00 -0.00000000000E+00 -0.32712898048E+03  0.32712898048E+03  0.00000000000E+00 0. -1.
         25    2    1    2    0    0  0.12203785999E+03 -0.14129753502E+03 -0.58778900833E+02  0.23229312158E+03  0.12508757922E+03 0.  0.
         23    2    1    2    0    0 -0.12203785999E+03  0.14129753502E+03 -0.12206087015E+03  0.24112506840E+03  0.91565331407E+02 0.  0.
          5    1    3    3  502    0 -0.11466180031E+02 -0.30041040328E+02  0.23424177611E+02  0.40001273545E+02  0.41800000000E+01 0. -1.
         -5    1    3    3    0  502  0.13350404002E+03 -0.11125649469E+03 -0.82203078444E+02  0.19229184803E+03  0.41800000000E+01 0. -1.
        -11    1    4    4    0    0 -0.10086959631E+03  0.71601297624E+02 -0.36948400978E+02  0.12909920843E+03  0.00000000000E+00 0.  1.
         11    1    4    4    0    0 -0.21168263678E+02  0.69696237398E+02 -0.85112469173E+02  0.11202585998E+03  0.00000000000E+00 0. -1.
</event>
<event>
 8    1  0.6493926E-009  0.9392311E+02  0.7561462E-02  0.1293620E+00
          1   -1    0    0  501    0  0.00000000000E+00  0.00000000000E+00  0.31373841210E+03  0.31373841210E+03  0.00000000000E+00 0. -1.
         -1   -1    0    0    0  501 -0.00000000000E+00 -0.00000000000E+00 -0.48971919281E+02  0.48971919281E+02  0.00000000000E+00 0.  1.
         25    2    1    2    0    0 -0.48812656377E+02 -0.17824699407E+02  0.18254397263E+03  0.22731028150E+03  0.12508903549E+03 0.  0.
         23    2    1    2    0    0  0.48812656377E+02  0.17824699407E+02  0.82222520187E+02  0.13540004988E+03  0.94192544026E+02 0.  0.
          5    1    3    3  502    0  0.37501288355E+02  0.17699280146E+02  0.63960598777E+02  0.76341612125E+02  0.41800000000E+01 0.  1.
         -5    1    3    3    0  502 -0.86313944732E+02 -0.35523979554E+02  0.11858337386E+03  0.15096866938E+03  0.41800000000E+01 0.  1.
        -11    1    4    4    0    0  0.17356675371E+02  0.10997914329E+02  0.97591287935E+02  0.99730977035E+02  0.00000000000E+00 0. -1.
         11    1    4    4    0    0  0.31455981006E+02  0.68267850779E+01 -0.15368767748E+02  0.35669072845E+02  0.00000000000E+00 0.  1.
</event>
<event>
 8    1  0.6493926E-009  0.1706688E+03  0.7561462E-02  0.1177152E+00
          1   -1    0    0  501    0  0.00000000000E+00  0.00000000000E+00  0.22323389615E+03  0.22323389615E+03  0.00000000000E+00 0. -1.
         -1   -1    0    0    0  501 -0.00000000000E+00 -0.00000000000E+00 -0.13739870318E+03  0.13739870318E+03  0.00000000000E+00 0.  1.
         25    2    1    2    0    0 -0.58780605615E+02  0.12530322732E+03  0.43305518202E+02  0.19152110916E+03  0.12509559934E+03 0.  0.
         23    2    1    2    0    0  0.58780605615E+02 -0.12530322732E+03  0.42529674763E+02  0.16911149017E+03  0.87371989220E+02 0.  0.
          5    1    3    3  502    0  0.32226896658E+02  0.67527536742E+02  0.36689703036E+02  0.83439485829E+02  0.41800000000E+01 0. -1.
         -5    1    3    3    0  502 -0.91007502273E+02  0.57775690576E+02  0.66158151660E+01  0.10808162333E+03  0.41800000000E+01 0. -1.
        -11    1    4    4    0    0 -0.13895105486E+02 -0.26960175797E+00 -0.78565404881E+01  0.15964707014E+02  0.00000000000E+00 0. -1.
         11    1    4    4    0    0  0.72675711102E+02 -0.12503362556E+03  0.50386215251E+02  0.15314678316E+03  0.00000000000E+00 0.  1.
</event>
<event>
 8    1  0.6493926E-009  0.3943909E+03  0.7561462E-02  0.1045739E+00
         -1   -1    0    0    0  501 -0.00000000000E+00  0.00000000000E+00  0.83083338406E+03  0.83083338406E+03  0.00000000000E+00 0.  1.
          1   -1    0    0  501    0  0.00000000000E+00 -0.00000000000E+00 -0.30435983644E+03  0.30435983644E+03  0.00000000000E+00 0. -1.
         25    2    1    2    0    0  0.92233682498E+02  0.37760230804E+03  0.60317766430E+03  0.72839624772E+03  0.12508894339E+03 0.  0.
         23    2    1    2    0    0 -0.92233682498E+02 -0.37760230804E+03 -0.76704116673E+02  0.40679697278E+03  0.92248036969E+02 0.  0.
          5    1    3    3  502    0  0.76457323956E+02  0.14279236309E+03  0.16651971071E+03  0.23233955281E+03  0.41800000000E+01 0.  1.
         -5    1    3    3    0  502  0.15776358542E+02  0.23480994496E+03  0.43665795358E+03  0.49605669491E+03  0.41800000000E+01 0.  1.
        -11    1    4    4    0    0 -0.30243422116E+02 -0.21922264873E+03 -0.27008322443E+01  0.22131545087E+03  0.00000000000E+00 0.  1.
         11    1    4    4    0    0 -0.61990260382E+02 -0.15837965931E+03 -0.74003284429E+02  0.18548152192E+03  0.00000000000E+00 0. -1.
</event>
<event>
 8    1  0.6493926E-009  0.1128045E+03  0.7561462E-02  0.1255463E+00
         -2   -1    0    0    0  501 -0.00000000000E+00  0.00000000000E+00  0.77617484392E+02  0.77617484392E+02  0.00000000000E+00 0. -1.
          2   -1    0    0  501    0  0.00000000000E+00 -0.00000000000E+00 -0.20539662652E+03  0.20539662652E+03  0.00000000000E+00 0.  1.
         25    2    1    2    0    0 -0.99973638247E+01  0.44654841276E+02 -0.23304699048E+02  0.13523803963E+03  0.12510881756E+03 0.  0.
         23    2    1    2    0    0  0.99973638247E+01 -0.44654841276E+02 -0.10447444307E+03  0.14777607128E+03  0.93961991539E+02 0.  0.
          5    1    3    3  502    0 -0.24485157108E+02  0.81683006788E+02 -0.36899763218E+02  0.93009147088E+02  0.41800000000E+01 0. -1.
         -5    1    3    3    0  502  0.14487793283E+02 -0.37028165512E+02  0.13595064169E+02  0.42228892540E+02  0.41800000000E+01 0. -1.
        -11    1    4    4    0    0 -0.16528211346E+02  0.22574906208E+02 -0.12087315022E+02  0.30478046936E+02  0.00000000000E+00 0. -1.
         11    1    4    4    0    0  0.26525575171E+02 -0.67229747483E+02 -0.92387128053E+02  0.11729802434E+03  0.00000000000E+00 0.  1.
</event>
<event>
 8    1  0.6493926E-009  0.8651765E+02  0.7561462E-02  0.1311511E+00
         -2   -1    0    0    0  501 -0.00000000000E+00  0.00000000000E+00  0.30820210585E+02  0.30820210585E+02  0.00000000000E+00 0.  1.
          2   -1    0    0  501    0  0.00000000000E+00 -0.00000000000E+00 -0.48641094663E+03  0.48641094663E+03  0.00000000000E+00 0. -1.
         25    2    1    2    0    0 -0.52726792173E+02 -0.15475689461E+02 -0.28434007666E+03  0.31546126012E+03  0.12508763273E+03 0.  0.
         23    2    1    2    0    0  0.52726792173E+02  0.15475689461E+02 -0.17125065939E+03  0.20176989710E+03  0.91458687161E+02 0.  0.
          5    1    3    3  502    0 -0.40674129787E+02  0.65178955778E+01 -0.28693200126E+03  0.28990397297E+03  0.41800000000E+01 0. -1.
         -5    1    3    3    0  502 -0.12052662387E+02 -0.21993585039E+02  0.25919245961E+01  0.25557287152E+02  0.41800000000E+01 0. -1.
        -11    1    4    4    0    0 -0.20826898975E+02  0.24436524649E+02 -0.43186914581E+02  0.53814617427E+02  0.00000000000E+00 0.  1.
         11    1    4    4    0    0  0.73553691148E+02 -0.89608351875E+01 -0.12806374481E+03  0.14795527967E+03  0.00000000000E+00 0. -1.
</event>
<event>
 8    1  0.6493926E-009  0.1262230E+03  0.7561462E-02  0.1233170E+00
         -2   -1    0    0    0  501 -0.00000000000E+00  0.00000000000E+00  0.12076495087E+02  0.12076495087E+02  0.00000000000E+00 0.  1.
          2   -1    0    0  501    0  0.00000000000E+00 -0.00000000000E+00 -0.20666044851E+04  0.20666044851E+04  0.00000000000E+00 0. -1.
         25    2    1    2    0    0  0.74698687767E+02 -0.64870669304E+02 -0.15420676347E+04  0.15502928835E+04  0.12508931630E+03 0.  0.
         23    2    1    2    0    0 -0.74698687767E+02  0.64870669304E+02 -0.51246035533E+03  0.52838809667E+03  0.82403077786E+02 0.  0.
          5    1    3    3  502    0  0.57266047593E+01  0.19967952931E+02 -0.51144987818E+02  0.55360593613E+02  0.41800000000E+01 0. -1.
         -5    1    3    3    0  502  0.68972083007E+02 -0.84838622234E+02 -0.14909226469E+04  0.14949322899E+04  0.41800000000E+01 0. -1.
        -11    1    4    4    0    0 -0.32847680081E+02 -0.11458903657E+02 -0.79737631018E+02  0.86996358315E+02  0.00000000000E+00 0. -1.
         11    1    4    4    0    0 -0.41851007685E+02  0.76329572961E+02 -0.43272272431E+03  0.44139173835E+03  0.00000000000E+00 0.  1.
</event>
<event>
 8    1  0.6493926E-009  0.2103733E+03  0.7561462E-02  0.1141271E+00
         -2   -1    0    0    0  501 -0.00000000000E+00  0.00000000000E+00  0.15317974569E+03  0.15317974569E+03  0.00000000000E+00 0. -1.
          2   -1    0    0  501    0  0.00000000000E+00 -0.00000000000E+00 -0.32498295752E+03  0.32498295752E+03  0.00000000000E+00 0.  1.
         25    2    1    2    0    0 -0.68392810168E+02 -0.17905556317E+03 -0.12382955984E+03  0.26022880957E+03  0.12508717863E+03 0.  0.
         23    2    1    2    0    0  0.68392810168E+02  0.17905556317E+03 -0.47973651990E+02  0.21793389363E+03  0.91952376391E+02 0.  0.
          5    1    3    3  502    0  0.32649951423E+02 -0.77723495093E+02 -0.32675565827E+02  0.90510364155E+02  0.41800000000E+01 0.  1.
         -5    1    3    3    0  502 -0.10104276159E+03 -0.10133206808E+03 -0.91153994012E+02  0.16971844542E+03  0.41800000000E+01 0.  1.
        -11    1    4    4    0    0  0.34304879542E+02  0.12184713893E+03 -0.73777638657E+02  0.14651515277E+03  0.00000000000E+00 0.  1.
         11    1    4    4    0    0  0.34087930625E+02  0.57208424239E+02  0.25803986667E+02  0.71418740861E+02  0.00000000000E+00 0. -1.
</event>
<event>
 8    1  0.6493926E-009  0.1486738E+03  0.7561462E-02  0.1202112E+00
          2   -1    0    0  501    0  0.00000000000E+00  0.00000000000E+00  0.95627271960E+03  0.95627271960E+03  0.00000000000E+00 0.  1.
         -2   -1    0    0    0  501 -0.00000000000E+00 -0.00000000000E+00 -0.26287297957E+02  0.26287297957E+02  0.00000000000E+00 0. -1.
         25    2    1    2    0    0  0.10092561704E+03 -0.24028438731E+02  0.65319087733E+03  0.67310469722E+03  0.12509302596E+03 0.  0.
         23    2    1    2    0    0 -0.10092561704E+03  0.24028438731E+02  0.27679454431E+03  0.30945532033E+03  0.91564346130E+02 0.  0.
          5    1    3    3  502    0 -0.18825618484E+02 -0.34214376406E+02  0.11117010069E+03  0.11790373680E+03  0.41800000000E+01 0. -1.
         -5    1    3    3    0  502  0.11975123553E+03  0.10185937676E+02  0.54202077664E+03  0.55520096042E+03  0.41800000000E+01 0. -1.
        -11    1    4    4    0    0 -0.12829421444E+02  0.45389451335E+02  0.81913372652E+02  0.94522997024E+02  0.00000000000E+00 0.  1.
         11    1    4    4    0    0 -0.88096195597E+02 -0.21361012604E+02  0.19488117165E+03  0.21493232331E+03  0.00000000000E+00 0. -1.
</event>
<event>
 8    1  0.6493926E-009  0.1065701E+03  0.7561462E-02  0.1267057E+00
          2   -1    0    0  501    0  0.00000000000E+00  0.00000000000E+00  0.22966802851E+03  0.22966802851E+03  0.00000000000E+00 0. -1.
         -2   -1    0    0    0  501 -0.00000000000E+00 -0.00000000000E+00 -0.56583279698E+02  0.56583279698E+02  0.00000000000E+00 0.  1.
         25    2    1    2    0    0 -0.30853752198E+01  0.19478648028E+02  0.12962563599E+03  0.18121704722E+03  0.12509146824E+03 0.  0.
         23    2    1    2    0    0  0.30853752198E+01 -0.19478648028E+02  0.43459112816E+02  0.10503426098E+03  0.93565828295E+02 0.  0.
          5    1    3    3  502    0  0.34211412574E+02  0.55846955777E+02  0.38269838185E+02  0.75969442110E+02  0.41800000000E+01 0. -1.
         -5    1    3    3    0  502 -0.37296787794E+02 -0.36368307749E+02  0.91355797808E+02  0.10524760511E+03  0.41800000000E+01 0. -1.
        -11    1    4    4    0    0  0.46770241476E+02 -0.21600170541E+02  0.28079282906E+02  0.58672557330E+02  0.00000000000E+00 0. -1.
         11    1    4    4    0    0 -0.43684866257E+02  0.21215225136E+01  0.15379829910E+02  0.46361703654E+02  0.00000000000E+00 0.  1.
</event>
<event>
 8    1  0.6493926E-009  0.2056855E+03  0.7561462E-02  0.1145029E+00
         -1   -1    0    0    0  501 -0.00000000000E+00  0.00000000000E+00  0.10428586611E+03  0.10428586611E+03  0.00000000000E+00 0.  1.
          1   -1    0    0  501    0  0.00000000000E+00 -0.00000000000E+00 -0.45473870777E+03  0.45473870777E+03  0.00000000000E+00 0. -1.
         25    2    1    2    0    0 -0.82219710731E+02  0.16684993302E+03 -0.22292926526E+03  0.31613877962E+03  0.12508912698E+03 0.  0.
         23    2    1    2    0    0  0.82219710731E+02 -0.16684993302E+03 -0.12752357640E+03  0.24288579425E+03  0.90179074787E+02 0.  0.
          5    1    3    3  502    0 -0.25874572589E+02 -0.12552502549E+02 -0.72222964143E+01  0.29944829143E+02  0.41800000000E+01 0. -1.
         -5    1    3    3    0  502 -0.56345138142E+02  0.17940243557E+03 -0.21570696885E+03  0.28619395048E+03  0.41800000000E+01 0. -1.
        -11    1    4    4    0    0  0.67752992318E+02 -0.74323329186E+02 -0.10732447904E+03  0.14708150472E+03  0.00000000000E+00 0. -1.
         11    1    4    4    0    0  0.14466718413E+02 -0.92526603835E+02 -0.20199097363E+02  0.95804289534E+02  0.00000000000E+00 0.  1.
</event>
<event>
 8    1  0.6493926E-009  0.1344948E+03  0.7561462E-02  0.1220935E+00
          2   -1    0    0  501    0  0.00000000000E+00  0.00000000000E+00  0.84506832453E+03  0.84506832453E+03  0.00000000000E+00 0. -1.
         -2   -1    0    0    0  501 -0.00000000000E+00 -0.00000000000E+00 -0.23750938450E+02  0.23750938450E+02  0.00000000000E+00 0.  1.
         25    2    1    2    0    0  0.58214014362E+02 -0.69769963609E+02  0.43587214350E+03  0.46248120718E+03  0.12509045620E+03 0.  0.
         23    2    1    2    0    0 -0.58214014362E+02  0.69769963609E+02  0.38544524258E+03  0.40633805580E+03  0.91026706338E+02 0.  0.
          5    1    3    3  502    0  0.66027357560E+02  0.44542462096E+01  0.11255432808E+03  0.13063461036E+03  0.41800000000E+01 0.  1.
         -5    1    3    3    0  502 -0.78133431981E+01 -0.74224209819E+02  0.32331781542E+03  0.33184659682E+03  0.41800000000E+01 0.  1.
        -11    1    4    4    0    0 -0.82720698986E+02  0.53556668958E+02  0.31350342940E+03  0.32862658303E+03  0.00000000000E+00 0. -1.
         11    1    4    4    0    0  0.24506684623E+02  0.16213294651E+02  0.71941813183E+02  0.77711472761E+02  0.00000000000E+00 0.  1.
</event>
<event>
 8    1  0.6493926E-009  0.9503356E+02  0.7561462E-02  0.1291101E+00
          2   -1    0    0  501    0  0.00000000000E+00  0.00000000000E+00  0.14901264574E+03  0.14901264574E+03  0.00000000000E+00 0. -1.
         -2   -1    0    0    0  501 -0.00000000000E+00 -0.00000000000E+00 -0.11533920425E+03  0.11533920425E+03  0.00000000000E+00 0.  1.
         25    2    1    2    0    0  0.38486364979E+02 -0.43433312235E+02 -0.28475525516E+02  0.14080223515E+03  0.12508701359E+03 0.  0.
         23    2    1    2    0    0 -0.38486364979E+02  0.43433312235E+02  0.62148967008E+02  0.12354961483E+03  0.89634593344E+02 0.  0.
          5    1    3    3  502    0  0.31523694991E+02  0.18531761895E+02  0.35664402928E+02  0.51250283717E+02  0.41800000000E+01 0.  1.
         -5    1    3    3    0  502  0.69626699885E+01 -0.61965074130E+02 -0.64139928444E+02  0.89551951437E+02  0.41800000000E+01 0.  1.
        -11    1    4    4    0    0 -0.58454835327E+02  0.39120952242E+02  0.14654899765E+02  0.71848331675E+02  0.00000000000E+00 0.  1.
         11    1    4    4    0    0  0.19968470347E+02  0.43123599934E+01  0.47494067244E+02  0.51701283157E+02  0.00000000000E+00 0. -1.
</event>
<event>
 8    1  0.6493926E-009  0.3655741E+02  0.7561462E-02  0.1535190E+00
          2   -1    0    0  501    0  0.00000000000E+00  0.00000000000E+00  0.44469769931E+02  0.44469769931E+02  0.00000000000E+00 0. -1.
         -2   -1    0    0    0  501 -0.00000000000E+00 -0.00000000000E+00 -0.39682220619E+03  0.39682220619E+03  0.00000000000E+00 0.  1.
         25    2    1    2    0    0 -0.56312074287E+00  0.83520035994E+01 -0.32255451902E+03  0.34606305228E+03  0.12509254711E+03 0.  0.
         23    2    1    2    0    0  0.56312074287E+00 -0.83520035994E+01 -0.29797917240E+02  0.95228923843E+02  0.90058641981E+02 0.  0.
          5    1    3    3  502    0  0.46643559359E+01  0.17254292786E+02  0.44348575814E+01  0.18884046113E+02  0.41800000000E+01 0.  1.
         -5    1    3    3    0  502 -0.52274766788E+01 -0.89022891863E+01 -0.32698937660E+03  0.32717900617E+03  0.41800000000E+01 0.  1.
        -11    1    4    4    0    0  0.12245463642E+02 -0.22291580476E+02  0.26102270677E+02  0.36444402511E+02  0.00000000000E+00 0. -1.
         11    1    4    4    0    0 -0.11682342899E+02  0.13939576876E+02 -0.55900187917E+02  0.58784521332E+02  0.00000000000E+00 0.  1.
</event>
<event>
 7    1  0.6493926E-009  0.1049737E+03  0.7561462E-02  0.1270172E+00
         -2   -1    0    0    0  501 -0.00000000000E+00  0.00000000000E+00  0.54346164676E+02  0.54346164676E+02  0.00000000000E+00 0.  1.
          2   -1    0    0  501    0  0.00000000000E+00 -0.00000000000E+00 -0.26117462122E+03  0.26117462122E+03  0.00000000000E+00 0. -1.
         25    2    1    2    0    0 -0.62934559116E+02  0.48803935427E+02 -0.14020911957E+03  0.20408125945E+03  0.12509188784E+03 0.  0.
          5    1    3    3  502    0  0.25094033820E+01 -0.28373777134E+02 -0.82807427222E+02  0.87669326092E+02  0.41800000000E+01 0. -1.
         -5    1    3    3    0  502 -0.65443962498E+02  0.77177712561E+02 -0.57401692349E+02  0.11641193336E+03  0.41800000000E+01 0. -1.
        -11    1    1    2    0    0  0.14337089657E+02 -0.79503912330E+01 -0.38805271675E+02  0.42126119812E+02  0.00000000000E+00 0. -1.
         11    1    1    2    0    0  0.48597469459E+02 -0.40853544194E+02 -0.27814065297E+02  0.69313406635E+02  0.00000000000E+00 0.  1.
</event>
<event>
 8    1  0.6493926E-009  0.9512740E+02  0.7561462E-02  0.1290889E+00
          1   -1    0    0  501    0  0.00000000000E+00  0.00000000000E+00  0.90218946390E+02  0.90218946390E+02  0.00000000000E+00 0. -1.
         -1   -1    0    0    0  501 -0.00000000000E+00 -0.00000000000E+00 -0.14262251360E+03  0.14262251360E+03  0.00000000000E+00 0.  1.
         25    2    1    2    0    0 -0.19161634969E+02 -0.30390287589E+02 -0.15109738788E+02  0.13102231373E+03  0.12509118536E+03 0.  0.
         23    2    1    2    0    0  0.19161634969E+02  0.30390287589E+02 -0.37293828426E+02  0.10181914626E+03  0.87667388873E+02 0.  0.
          5    1    3    3  502    0  0.13054062386E+02  0.42260811461E+02 -0.24750621729E+02  0.50857156882E+02  0.41800000000E+01 0. -1.
         -5    1    3    3    0  502 -0.32215697356E+02 -0.72651099050E+02  0.96408829415E+01  0.80165156852E+02  0.41800000000E+01 0. -1.
        -11    1    4    4    0    0  0.22214357664E+02 -0.10966666812E+02  0.19478216785E+02  0.31514225304E+02  0.00000000000E+00 0. -1.
         11    1    4    4    0    0 -0.30527226942E+01  0.41356954401E+02 -0.56772045210E+02  0.70304920956E+02  0.00000000000E+00 0.  1.
</event>
<event>
 8    1  0.6493926E-009  0.1060750E+03  0.7561462E-02  0.1268016E+00
          2   -1    0    0  501    0  0.00000000000E+00  0.00000000000E+00  0.16912107613E+03  0.16912107613E+03  0.00000000000E+00 0.  1.
         -2   -1    0    0    0  501 -0.00000000000E+00 -0.00000000000E+00 -0.10517368761E+03  0.10517368761E+03  0.00000000000E+00 0. -1.
         25    2    1    2    0    0  0.31963643495E+02 -0.58032948566E+02 -0.68725744522E+01  0.14172032718E+03  0.12509165133E+03 0.  0.
         23    2    1    2    0    0 -0.31963643495E+02  0.58032948566E+02  0.70819962969E+02  0.13257443656E+03  0.90393674825E+02 0.  0.
          5    1    3    3  502    0  0.67343893653E+02 -0.37102629569E+02  0.33479912542E+02  0.83965362365E+02  0.41800000000E+01 0.  1.
         -5    1    3    3    0  502 -0.35380250158E+02 -0.20930318996E+02 -0.40352486994E+02  0.57754964818E+02  0.41800000000E+01 0.  1.
        -11    1    4    4    0    0 -0.36058232392E+02  0.41024574305E+00  0.65233350429E+02  0.74536933349E+02  0.00000000000E+00 0.  1.
         11    1    4    4    0    0  0.40945888966E+01  0.57622702823E+02  0.55866125396E+01  0.58037503207E+02  0.00000000000E+00 0. -1.
</event>
<event>
 8    1  0.6493926E-009  0.9866840E+02  0.7561462E-02  0.1283121E+00
         -1   -1    0    0    0  501 -0.00000000000E+00  0.00000000000E+00  0.16121015956E+03  0.16121015956E+03  0.00000000000E+00 0.  1.
          1   -1    0    0  501    0  0.00000000000E+00 -0.00000000000E+00 -0.93110732668E+02  0.93110732668E+02  0.00000000000E+00 0. -1.
         25    2    1    2    0    0  0.22477716333E+02  0.41627930373E+02  0.62164908816E+01  0.13388049650E+03  0.12508880952E+03 0.  0.
         23    2    1    2    0    0 -0.22477716333E+02 -0.41627930373E+02  0.61882936015E+02  0.12044039573E+03  0.91859995835E+02 0.  0.
          5    1    3    3  502    0  0.36354558758E+02 -0.25813894577E+02  0.37240400979E+02  0.58243720355E+02  0.41800000000E+01 0. -1.
         -5    1    3    3    0  502 -0.13876842426E+02  0.67441824950E+02 -0.31023910098E+02  0.75636776148E+02  0.41800000000E+01 0. -1.
        -11    1    4    4    0    0 -0.22168817573E+01  0.19267803546E+02  0.52008758566E+02  0.55507420997E+02  0.00000000000E+00 0.  1.
         11    1    4    4    0    0 -0.20260834575E+02 -0.60895733919E+02  0.98741774495E+01  0.64932974732E+02  0.00000000000E+00 0. -1.
</event>
<event>
 8    1  0.6493926E-009  0.1003578E+03  0.7561462E-02  0.1279545E+00
          2   -1    0    0  501    0  0.00000000000E+00  0.00000000000E+00  0.38655813111E+03  0.38655813111E+03  0.00000000000E+00 0. -1.
         -2   -1    0    0    0  501 -0.00000000000E+00 -0.00000000000E+00 -0.41794066217E+02  0.41794066217E+02  0.00000000000E+00 0.  1.
         25    2    1    2    0    0  0.44245981925E+02 -0.24268399765E+02  0.14316567590E+03  0.19669926381E+03  0.12509007748E+03 0.  0.
         23    2    1    2    0    0 -0.44245981925E+02  0.24268399765E+02  0.20159838899E+03  0.23165293352E+03  0.10234504882E+03 0.  0.
          5    1    3    3  502    0 -0.24039921390E+02 -0.53746133344E+02  0.49587832521E+02  0.77090791953E+02  0.41800000000E+01 0.  1.
         -5    1    3    3    0  502  0.68285903315E+02  0.29477733579E+02  0.93577843377E+02  0.11960847186E+03  0.41800000000E+01 0.  1.
        -11    1    4    4    0    0  0.13811484106E+01  0.21436398289E+02 -0.32857131961E+01  0.21730684613E+02  0.00000000000E+00 0.  1.
         11    1    4    4    0    0 -0.45627130335E+02  0.28320014762E+01  0.20488410219E+03  0.20992224890E+03  0.00000000000E+00 0. -1.
</event>
<event>
 8    1  0.6493926E-009  0.1184429E+03  0.7561462E-02  0.1245688E+00
          1   -1    0    0  501    0  0.00000000000E+00  0.00000000000E+00  0.21718485940E+03  0.21718485940E+03  0.00000000000E+00 0. -1.
         -1   -1    0    0    0  501 -0.00000000000E+00 -0.00000000000E+00 -0.78831589956E+02  0.78831589956E+02  0.00000000000E+00 0.  1.
         25    2    1    2    0    0 -0.24620834661E+01 -0.63667472591E+02  0.11622387243E+03  0.18224753614E+03  0.12508623819E+03 0.  0.
         23    2    1    2    0    0  0.24620834661E+01  0.63667472591E+02  0.22129397010E+02  0.11376891322E+03  0.91619029035E+02 0.  0.
          5    1    3    3  502    0 -0.49018475524E+02 -0.70670498164E+02  0.10070558274E+03  0.13249987565E+03  0.41800000000E+01 0.  1.
         -5    1    3    3    0  502  0.46556392058E+02  0.70030255725E+01  0.15518289694E+02  0.49747660484E+02  0.41800000000E+01 0.  1.
        -11    1    4    4    0    0  0.23379730855E+02  0.75804886348E+02  0.34615502670E+02  0.86551866728E+02  0.00000000000E+00 0. -1.
         11    1    4    4    0    0 -0.20917647389E+02 -0.12137413757E+02 -0.12486105660E+02  0.27217046488E+02  0.00000000000E+00 0.  1.
</event>
<event>
 8    1  0.6493926E-009  0.7714584E+02  0.7561462E-02  0.1337352E+00
         -2   -1    0    0    0  501 -0.00000000000E+00  0.00000000000E+00  0.10792645536E+03  0.10792645536E+03  0.00000000000E+00 0. -1.
          2   -1    0    0  501    0  0.00000000000E+00 -0.00000000000E+00 -0.12145399597E+03  0.12145399597E+03  0.00000000000E+00 0.  1.
         25    2    1    2    0    0 -0.17879933856E+02 -0.11614702336E+02  0.20508159884E+02  0.12853820794E+03  0.12508754108E+03 0.  0.
         23    2    1    2    0    0  0.17879933856E+02  0.11614702336E+02 -0.34035700496E+02  0.10084224339E+03  0.92499382692E+02 0.  0.
          5    1    3    3  502    0 -0.14601128836E+02  0.51786398282E+02 -0.14550984768E+02  0.55894790169E+02  0.41800000000E+01 0.  1.
         -5    1    3    3    0  502 -0.32788050204E+01 -0.63401100617E+02  0.35059144652E+02  0.72643417772E+02  0.41800000000E+01 0.  1.
        -11    1    4    4    0    0  0.70688361025E+01 -0.10167473749E+02 -0.62321788496E+02  0.63540154923E+02  0.00000000000E+00 0.  1.
         11    1    4    4    0    0  0.10811097754E+02  0.21782176085E+02  0.28286088000E+02  0.37302088467E+02  0.00000000000E+00 0. -1.
</event>
<event>
 8    1  0.6493926E-009  0.1848539E+03  0.7561462E-02  0.1163186E+00
         -1   -1    0    0    0  501 -0.00000000000E+00  0.00000000000E+00  0.12516185672E+03  0.12516185672E+03  0.00000000000E+00 0. -1.
          1   -1    0    0  501    0  0.00000000000E+00 -0.00000000000E+00 -0.54859776788E+03  0.54859776788E+03  0.00000000000E+00 0.  1.
         25    2    1    2    0    0  0.15694465119E+03 -0.82031703007E+02 -0.12699726680E+02  0.21718593907E+03  0.12509046820E+03 0.  0.
         23    2    1    2    0    0 -0.15694465119E+03  0.82031703007E+02 -0.41073618448E+03  0.45657368554E+03  0.91621467204E+02 0.  0.
          5    1    3    3  502    0  0.31921391855E+02 -0.64609643927E+01  0.48641189775E+02  0.58686941150E+02  0.41800000000E+01 0. -1.
         -5    1    3    3    0  502  0.12502325933E+03 -0.75570738615E+02 -0.61340916455E+02  0.15849899792E+03  0.41800000000E+01 0. -1.
        -11    1    4    4    0    0 -0.10849453123E+03  0.17294733584E+02 -0.16809167440E+03  0.20081081176E+03  0.00000000000E+00 0. -1.
         11    1    4    4    0    0 -0.48450119960E+02  0.64736969424E+02 -0.24264451008E+03  0.25576287379E+03  0.00000000000E+00 0.  1.
</event>
<event>
 8    1  0.6493926E-009  0.9626414E+02  0.7561462E-02  0.1288354E+00
          1   -1    0    0  501    0  0.00000000000E+00  0.00000000000E+00  0.32001995962E+02  0.32001995962E+02  0.00000000000E+00 0. -1.
         -1   -1    0    0    0  501 -0.00000000000E+00 -0.00000000000E+00 -0.44090507245E+03  0.44090507245E+03  0.00000000000E+00 0.  1.
         25    2    1    2    0    0 -0.64022312053E+01 -0.45851578580E+02 -0.23803146606E+03  0.27285462436E+03  0.12508921367E+03 0.  0.
         23    2    1    2    0    0  0.64022312053E+01  0.45851578580E+02 -0.17087161043E+03  0.20005244405E+03  0.93169293750E+02 0.  0.
          5    1    3    3  502    0  0.34169650863E+02 -0.18411852032E+01 -0.83579841297E+01  0.35472289210E+02  0.41800000000E+01 0. -1.
         -5    1    3    3    0  502 -0.40571882068E+02 -0.44010393376E+02 -0.22967348193E+03  0.23738233515E+03  0.41800000000E+01 0. -1.
        -11    1    4    4    0    0  0.31910368672E+02 -0.12575016472E+02 -0.94714904952E+02  0.10073388649E+03  0.00000000000E+00 0.  1.
         11    1    4    4    0    0 -0.25508137467E+02  0.58426595052E+02 -0.76156705477E+02  0.99318557558E+02  0.00000000000E+00 0. -1.
</event>
<event>
 8    1  0.6493926E-009  0.8554908E+02  0.7561462E-02  0.1314003E+00
          4   -1    0    0  501    0  0.00000000000E+00  0.00000000000E+00  0.26587746364E+03  0.26587746364E+03  0.00000000000E+00 0. -1.
         -4   -1    0    0    0  501 -0.00000000000E+00 -0.00000000000E+00 -0.61057551050E+02  0.61057551050E+02  0.00000000000E+00 0.  1.
         25    2    1    2    0    0 -0.17663669244E+02 -0.26463771867E+02  0.37110137741E+02  0.13430304921E+03  0.12509120781E+03 0.  0.
         23    2    1    2    0    0  0.17663669244E+02  0.26463771867E+02  0.16770977485E+03  0.19263196548E+03  0.89264601672E+02 0.  0.
          5    1    3    3  502    0 -0.38635068110E+02  0.16857108344E+02  0.65695994745E+02  0.78168195036E+02  0.41800000000E+01 0. -1.
         -5    1    3    3    0  502  0.20971398865E+02 -0.43320880211E+02 -0.28585857005E+02  0.56134854175E+02  0.41800000000E+01 0. -1.
        -11    1    4    4    0    0  0.45832786787E+02  0.25030242525E+02  0.52615438119E+02  0.74131921019E+02  0.00000000000E+00 0.  1.
         11    1    4    4    0    0 -0.28169117543E+02  0.14335293416E+01  0.11509433673E+03  0.11850004446E+03  0.00000000000E+00 0. -1.
</event>
<event>
 8    1  0.6493926E-009  0.1068945E+03  0.7561462E-02  0.1266431E+00
          4   -1    0    0  501    0  0.00000000000E+00  0.00000000000E+00  0.83006963906E+02  0.83006963906E+02  0.00000000000E+00 0. -1.
         -4   -1    0    0    0  501 -0.00000000000E+00 -0.00000000000E+00 -0.21134903792E+03  0.21134903792E+03  0.00000000000E+00 0.  1.
         25    2    1    2    0    0  0.62574933170E+02  0.53393934628E+01 -0.11667243421E+03  0.18221869786E+03  0.12508823111E+03 0.  0.
         23    2    1    2    0    0 -0.62574933170E+02 -0.53393934628E+01 -0.11669639804E+02  0.11213730397E+03  0.92165411429E+02 0.  0.
          5    1    3    3  502    0 -0.30634414614E+02  0.28999376225E+02 -0.24565410161E+02  0.48993499125E+02  0.41800000000E+01 0.  1.
         -5    1    3    3    0  502  0.93209347783E+02 -0.23659982762E+02 -0.92107024045E+02  0.13322519873E+03  0.41800000000E+01 0.  1.
        -11    1    4    4    0    0 -0.44263532224E+02  0.15961296043E+02  0.34325508907E+02  0.58243143957E+02  0.00000000000E+00 0. -1.
         11    1    4    4    0    0 -0.18311400946E+02 -0.21300689506E+02 -0.45995148712E+02  0.53894160009E+02  0.00000000000E+00 0.  1.
</event>
<event>
 8    1  0.6493926E-009  0.1006333E+03  0.7561462E-02  0.1278970E+00
         -3   -1    0    0    0  501 -0.00000000000E+00  0.00000000000E+00  0.10368618745E+03  0.10368618745E+03  0.00000000000E+00 0.  1.
          3   -1    0    0  501    0  0.00000000000E+00 -0.00000000000E+00 -0.11403889418E+03  0.11403889418E+03  0.00000000000E+00 0. -1.
         25    2    1    2    0    0 -0.70513169951E+01  0.96273277410E+00 -0.79975845949E+01  0.12554872232E+03  0.12509145611E+03 0.  0.
         23    2    1    2    0    0  0.70513169951E+01 -0.96273277410E+00 -0.23551221350E+01  0.92176359309E+02  0.91871032919E+02 0.  0.
          5    1    3    3  502    0  0.24798226335E+02  0.47477921050E+02  0.25891033092E+02  0.59639944761E+02  0.41800000000E+01 0.  1.
         -5    1    3    3    0  502 -0.31849543331E+02 -0.46515188276E+02 -0.33888617687E+02  0.65908777560E+02  0.41800000000E+01 0.  1.
        -11    1    4    4    0    0  0.36318790647E+02  0.30944083396E+02 -0.84384689088E+01  0.48454087638E+02  0.00000000000E+00 0. -1.
         11    1    4    4    0    0 -0.29267473652E+02 -0.31906816170E+02  0.60833467738E+01  0.43722271671E+02  0.00000000000E+00 0.  1.
</event>
<event>
 8    1  0.6493926E-009  0.1156013E+03  0.7561462E-02  0.1250535E+00
          2   -1    0    0  501    0  0.00000000000E+00  0.00000000000E+00  0.18168350917E+03  0.18168350917E+03  0.00000000000E+00 0. -1.
         -2   -1    0    0    0  501 -0.00000000000E+00 -0.00000000000E+00 -0.11907331894E+03  0.11907331894E+03  0.00000000000E+00 0.  1.
         25    2    1    2    0    0  0.27373462998E+02  0.86142908200E+02  0.72793564777E+02  0.17063501426E+03  0.12508995927E+03 0.  0.
         23    2    1    2    0    0 -0.27373462998E+02 -0.86142908200E+02 -0.10183374553E+02  0.13012181385E+03  0.93048794793E+02 0.  0.
          5    1    3    3  502    0  0.25828816319E+02  0.11163039775E+03  0.26618955539E+02  0.11770520229E+03  0.41800000000E+01 0. -1.
         -5    1    3    3    0  502  0.15446466794E+01 -0.25487489545E+02  0.46174609238E+02  0.52929811967E+02  0.41800000000E+01 0. -1.
        -11    1    4    4    0    0 -0.22081362961E+02 -0.58517602894E+02  0.38824694678E+02  0.73615578212E+02  0.00000000000E+00 0. -1.
         11    1    4    4    0    0 -0.52921000370E+01 -0.27625305307E+02 -0.49008069232E+02  0.56506235637E+02  0.00000000000E+00 0.  1.
</event>
<event>
 8    1  0.6493926E-009  0.5106424E+02  0.7561462E-02  0.1439684E+00
         -2   -1    0    0    0  501 -0.00000000000E+00  0.00000000000E+00  0.74807500748E+02  0.74807500748E+02  0.00000000000E+00 0.  1.
          2   -1    0    0  501    0  0.00000000000E+00 -0.00000000000E+00 -0.17641543360E+03  0.17641543360E+03  0.00000000000E+00 0. -1.
         25    2    1    2    0    0  0.62011603584E+01  0.31872255334E+02 -0.65559905470E+02  0.14491183275E+03  0.12508814099E+03 0.  0.
         23    2    1    2    0    0 -0.62011603584E+01 -0.31872255334E+02 -0.36048027378E+02  0.10631110159E+03  0.94595427975E+02 0.  0.
          5    1    3    3  502    0  0.17251823957E+02 -0.12135300544E+02  0.31239241148E+02  0.37924313265E+02  0.41800000000E+01 0. -1.
         -5    1    3    3    0  502 -0.11050663599E+02  0.44007555878E+02 -0.96799146618E+02  0.10698751949E+03  0.41800000000E+01 0. -1.
        -11    1    4    4    0    0 -0.98679418427E+01 -0.16236893551E+02 -0.67970712330E+02  0.70576417613E+02  0.00000000000E+00 0. -1.
         11    1    4    4    0    0  0.36667814843E+01 -0.15635361783E+02  0.31922684952E+02  0.35734683979E+02  0.00000000000E+00 0.  1.
</event>
<event>
 8    1  0.6493926E-009  0.2122398E+03  0.7561462E-02  0.1139804E+00
          1   -1    0    0  501    0  0.00000000000E+00  0.00000000000E+00  0.17741152020E+03  0.17741152020E+03  0.00000000000E+00 0. -1.
         -1   -1    0    0    0  501 -0.00000000000E+00 -0.00000000000E+00 -0.33224213454E+03  0.33224213454E+03  0.00000000000E+00 0.  1.
         25    2    1    2    0    0 -0.59362445042E+01 -0.19081266566E+03 -0.18547546859E+03  0.29409744765E+03  0.12508975534E+03 0.  0.
         23    2    1    2    0    0  0.59362445042E+01  0.19081266566E+03  0.30644854248E+02  0.21555620709E+03  0.95292491563E+02 0.  0.
          5    1    3    3  502    0  0.32333584252E+02 -0.16989289122E+03 -0.18048035394E+03  0.24999937143E+03  0.41800000000E+01 0. -1.
         -5    1    3    3    0  502 -0.38269828756E+02 -0.20919774447E+02 -0.49951146416E+01  0.44098076219E+02  0.41800000000E+01 0. -1.
        -11    1    4    4    0    0  0.31863796603E+02  0.17371929218E+03  0.74128373949E+01  0.17677286039E+03  0.00000000000E+00 0.  1.
         11    1    4    4    0    0 -0.25927552099E+02  0.17093373479E+02  0.23232016853E+02  0.38783346707E+02  0.00000000000E+00 0. -1.
</event>
<event>
 8    1  0.6493926E-009  0.1432032E+03  0.7561462E-02  0.1209083E+00
          2   -1    0    0  501    0  0.00000000000E+00  0.00000000000E+00  0.11195804466E+04  0.11195804466E+04  0.00000000000E+00 0. -1.
         -2   -1    0    0    0  501 -0.00000000000E+00 -0.00000000000E+00 -0.22737925434E+02  0.22737925434E+02  0.00000000000E+00 0.  1.
         25    2    1    2    0    0 -0.74156457439E+01 -0.11437678426E+03  0.65891585746E+03  0.68040877892E+03  0.12509579780E+03 0.  0.
         23    2    1    2    0    0  0.74156457439E+01  0.11437678426E+03  0.43792666369E+03  0.46190959310E+03  0.91889438200E+02 0.  0.
          5    1    3    3  502    0 -0.63008904670E+02 -0.87118553894E+02  0.42137405206E+03  0.43489461786E+03  0.41800000000E+01 0.  1.
         -5    1    3    3    0  502  0.55593258926E+02 -0.27258230370E+02  0.23754180541E+03  0.24551416105E+03  0.41800000000E+01 0.  1.
        -11    1    4    4    0    0  0.14950459237E+02  0.59003923042E+02  0.36496334025E+03  0.37000434983E+03  0.00000000000E+00 0. -1.
         11    1    4    4    0    0 -0.75348134926E+01  0.55372861223E+02  0.72963323434E+02  0.91905243272E+02  0.00000000000E+00 0.  1.
</event>
<event>
 8    1  0.6493926E-009  0.1065133E+03  0.7561462E-02  0.1267166E+00
         -3   -1    0    0    0  501 -0.00000000000E+00  0.00000000000E+00  0.49223980340E+03  0.49223980340E+03  0.00000000000E+00 0.  1.
          3   -1    0    0  501    0  0.00000000000E+00 -0.00000000000E+00 -0.32511016525E+02  0.32511016525E+02  0.00000000000E+00 0. -1.
         25    2    1    2    0    0 -0.25678064366E+02  0.60218017417E+02  0.23583367141E+03  0.27486542689E+03  0.12509160531E+03 0.  0.
         23    2    1    2    0    0  0.25678064366E+02 -0.60218017417E+02  0.22389511547E+03  0.24988539304E+03  0.89599745036E+02 0.  0.
          5    1    3    3  502    0  0.36082178585E+01 -0.24593652278E+02  0.14480028335E+03  0.14697775828E+03  0.41800000000E+01 0. -1.
         -5    1    3    3    0  502 -0.29286282225E+02  0.84811669695E+02  0.91033388052E+02  0.12788766861E+03  0.41800000000E+01 0. -1.
        -11    1    4    4    0    0 -0.13857306750E+02 -0.56628950678E+02  0.18630646045E+03  0.19521516388E+03  0.00000000000E+00 0.  1.
         11    1    4    4    0    0  0.39535371117E+02 -0.35890667385E+01  0.37588655025E+02  0.54670229156E+02  0.00000000000E+00 0. -1.
</event>
<event>
 8    1  0.6493926E-009  0.2622384E+03  0.7561462E-02  0.1105806E+00
          2   -1    0    0  501    0  0.00000000000E+00  0.00000000000E+00  0.22824595783E+04  0.22824595783E+04  0.00000000000E+00 0. -1.
         -2   -1    0    0    0  501 -0.00000000000E+00 -0.00000000000E+00 -0.38754445465E+02  0.38754445465E+02  0.00000000000E+00 0.  1.
         25    2    1    2    0    0  0.18243041401E+03  0.16701705014E+03  0.16321733400E+04  0.16555405226E+04  0.12509620040E+03 0.  0.
         23    2    1    2    0    0 -0.18243041401E+03 -0.16701705014E+03  0.61153179286E+03  0.66567350113E+03  0.89300198428E+02 0.  0.
          5    1    3    3  502    0  0.19239852955E+03  0.15457616601E+03  0.13167017206E+04  0.13396387120E+04  0.41800000000E+01 0. -1.
         -5    1    3    3    0  502 -0.99681155389E+01  0.12440884132E+02  0.31547161942E+03  0.31590181067E+03  0.41800000000E+01 0. -1.
        -11    1    4    4    0    0 -0.17656688944E+03 -0.11932115126E+03  0.52666849782E+03  0.56814884510E+03  0.00000000000E+00 0. -1.
         11    1    4    4    0    0 -0.58635245634E+01 -0.47695898881E+02  0.84863295034E+02  0.97524656033E+02  0.00000000000E+00 0.  1.
</event>
<event>
 8    1  0.6493926E-009  0.1274222E+03  0.7561462E-02  0.1231332E+00
          2   -1    0    0  501    0  0.00000000000E+00  0.00000000000E+00  0.46295909150E+03  0.46295909150E+03  0.00000000000E+00 0. -1.
         -2   -1    0    0    0  501 -0.00000000000E+00 -0.00000000000E+00 -0.42850818405E+02  0.42850818405E+02  0.00000000000E+00 0.  1.
         25    2    1    2    0    0  0.49502920165E+02  0.58908024841E+02  0.32768509704E+03  0.35909008903E+03  0.12508986659E+03 0.  0.
         23    2    1    2    0    0 -0.49502920165E+02 -0.58908024841E+02  0.92423176061E+02  0.14671982088E+03  0.84047414417E+02 0.  0.
          5    1    3    3  502    0  0.21856138925E+02 -0.37146908437E+02  0.66031454855E+02  0.78963339883E+02  0.41800000000E+01 0. -1.
         -5    1    3    3    0  502  0.27646781239E+02  0.96054933278E+02  0.26165364218E+03  0.28012674914E+03  0.41800000000E+01 0. -1.
        -11    1    4    4    0    0 -0.26639452011E+02 -0.77551602705E+02  0.80472084023E+02  0.11488980717E+03  0.00000000000E+00 0.  1.
         11    1    4    4    0    0 -0.22863468153E+02  0.18643577864E+02  0.11951092038E+02  0.31830013705E+02  0.00000000000E+00 0. -1.
</event>
<event>
 8    1  0.6493926E-009  0.1032363E+03  0.7561462E-02  0.1273634E+00
         -2   -1    0    0    0  501 -0.00000000000E+00  0.00000000000E+00  0.12711093328E+03  0.12711093328E+03  0.00000000000E+00 0.  1.
          2   -1    0    0  501    0  0.00000000000E+00 -0.00000000000E+00 -0.16387649112E+03  0.16387649112E+03  0.00000000000E+00 0. -1.
         25    2    1    2    0    0 -0.26318443271E+02  0.53161210899E+02  0.54255172320E+02  0.14869160709E+03  0.12508715160E+03 0.  0.
         23    2    1    2    0    0  0.26318443271E+02 -0.53161210899E+02 -0.91020730160E+02  0.14229581731E+03  0.91894240871E+02 0.  0.
          5    1    3    3  502    0 -0.18830353777E+02  0.93973631586E+02  0.30333917630E+02  0.10061433603E+03  0.41800000000E+01 0. -1.
         -5    1    3    3    0  502 -0.74880894934E+01 -0.40812420687E+02  0.23921254690E+02  0.48077271060E+02  0.41800000000E+01 0. -1.
        -11    1    4    4    0    0  0.31745965214E+02 -0.25703328119E+02  0.60301127057E+01  0.41289582742E+02  0.00000000000E+00 0.  1.
         11    1    4    4    0    0 -0.54275219432E+01 -0.27457882780E+02 -0.97050842865E+02  0.10100623457E+03  0.00000000000E+00 0. -1.
</event>
<event>
 8    1  0.6493926E-009  0.8934367E+02  0.7561462E-02  0.1304449E+00
         -2   -1    0    0    0  501 -0.00000000000E+00  0.00000000000E+00  0.40556053693E+02  0.40556053693E+02  0.00000000000E+00 0.  1.
          2   -1    0    0  501    0  0.00000000000E+00 -0.00000000000E+00 -0.40970421981E+03  0.40970421981E+03  0.00000000000E+00 0. -1.
         25    2    1    2    0    0  0.47682105257E+02 -0.44599011063E+02 -0.22907330277E+03  0.26904988393E+03  0.12510238628E+03 0.  0.
         23    2    1    2    0    0 -0.47682105257E+02  0.44599011063E+02 -0.14007486335E+03  0.18121038957E+03  0.94623374471E+02 0.  0.
          5    1    3    3  502    0  0.11301151027E+02 -0.51998116001E+02 -0.20532515894E+02  0.57188956024E+02  0.41800000000E+01 0. -1.
         -5    1    3    3    0  502  0.36380954230E+02  0.73991049374E+01 -0.20854078687E+03  0.21186092791E+03  0.41800000000E+01 0. -1.
        -11    1    4    4    0    0 -0.14793344638E+02  0.52149159870E+02 -0.22158798281E+02  0.58560996081E+02  0.00000000000E+00 0.  1.
         11    1    4    4    0    0 -0.32888760619E+02 -0.75501488066E+01 -0.11791606507E+03  0.12264939349E+03  0.00000000000E+00 0. -1.
</event>
<event>
 8    1  0.6493926E-009  0.1384320E+03  0.7561462E-02  0.1215454E+00
          1   -1    0    0  501    0  0.00000000000E+00  0.00000000000E+00  0.35855917400E+03  0.35855917400E+03  0.00000000000E+00 0. -1.
         -1   -1    0    0    0  501 -0.00000000000E+00 -0.00000000000E+00 -0.73470801286E+02  0.73470801286E+02  0.00000000000E+00 0.  1.
         25    2    1    2    0    0 -0.67716694516E+02 -0.64526039550E+02  0.25205731694E+03  0.29653725462E+03  0.12510911979E+03 0.  0.
         23    2    1    2    0    0  0.67716694516E+02  0.64526039550E+02  0.33031055765E+02  0.13549272067E+03  0.92293370359E+02 0.  0.
          5    1    3    3  502    0 -0.49550036192E+01  0.33887186243E+02  0.30370438112E+02  0.45964435855E+02  0.41800000000E+01 0. -1.
         -5    1    3    3    0  502 -0.62761690897E+02 -0.98413225793E+02  0.22168687883E+03  0.25057281876E+03  0.41800000000E+01 0. -1.
        -11    1    4    4    0    0 -0.12438738023E+02 -0.10119180728E+02 -0.87470161148E+01  0.18265549899E+02  0.00000000000E+00 0.  1.
         11    1    4    4    0    0  0.80155432539E+02  0.74645220278E+02  0.41778071880E+02  0.11722717077E+03  0.00000000000E+00 0. -1.
</event>
<event>
 8    1  0.6493926E-009  0.1065627E+03  0.7561462E-02  0.1267071E+00
         -3   -1    0    0    0  501 -0.00000000000E+00  0.00000000000E+00  0.10955426868E+04  0.10955426868E+04  0.00000000000E+00 0.  1.
          3   -1    0    0  501    0  0.00000000000E+00 -0.00000000000E+00 -0.17142538830E+02  0.17142538830E+02  0.00000000000E+00 0. -1.
         25    2    1    2    0    0 -0.31486132119E+02 -0.35476745706E+02  0.87011041476E+03  0.88033513412E+03  0.12509132061E+03 0.  0.
         23    2    1    2    0    0  0.31486132119E+02  0.35476745706E+02  0.20828973325E+03  0.23235009154E+03  0.91389146311E+02 0.  0.
          5    1    3    3  502    0  0.17377227524E+02  0.33008643670E+02  0.12600704241E+03  0.13147922167E+03  0.41800000000E+01 0. -1.
         -5    1    3    3    0  502 -0.48863359643E+02 -0.68485389376E+02  0.74410337234E+03  0.74885591245E+03  0.41800000000E+01 0. -1.
        -11    1    4    4    0    0  0.53927422277E+01 -0.24954616903E+02  0.11730545231E+03  0.12005158773E+03  0.00000000000E+00 0.  1.
         11    1    4    4    0    0  0.26093389891E+02  0.60431362609E+02  0.90984280934E+02  0.11229850382E+03  0.00000000000E+00 0. -1.
</event>
<event>
 8    1  0.6493926E-009  0.9983483E+02  0.7561462E-02  0.1280644E+00
          1   -1    0    0  501    0  0.00000000000E+00  0.00000000000E+00  0.34671553278E+02  0.34671553278E+02  0.00000000000E+00 0. -1.
         -1   -1    0    0    0  501 -0.00000000000E+00 -0.00000000000E+00 -0.37191142777E+03  0.37191142777E+03  0.00000000000E+00 0.  1.
         25    2    1    2    0    0 -0.23987359702E+02  0.20699248387E+02 -0.19659693980E+03  0.23516559768E+03  0.12509456137E+03 0.  0.
         23    2    1    2    0    0  0.23987359702E+02 -0.20699248387E+02 -0.14064293469E+03  0.17141738337E+03  0.92734200452E+02 0.  0.
          5    1    3    3  502    0 -0.60273413756E+02  0.50336040749E+02 -0.14762039964E+03  0.16725984632E+03  0.41800000000E+01 0. -1.
         -5    1    3    3    0  502  0.36286054055E+02 -0.29636792362E+02 -0.48976540167E+02  0.67905751355E+02  0.41800000000E+01 0. -1.
        -11    1    4    4    0    0  0.36391166634E+02  0.12559262144E+02 -0.12811682717E+03  0.13377583294E+03  0.00000000000E+00 0.  1.
         11    1    4    4    0    0 -0.12403806933E+02 -0.33258510531E+02 -0.12526107522E+02  0.37641550431E+02  0.00000000000E+00 0. -1.
</event>
<event>
 8    1  0.6493926E-009  0.1568470E+03  0.7561462E-02  0.1192303E+00
          2   -1    0    0  501    0  0.00000000000E+00  0.00000000000E+00  0.84679140270E+02  0.84679140270E+02  0.00000000000E+00 0. -1.
         -2   -1    0    0    0  501 -0.00000000000E+00 -0.00000000000E+00 -0.32574954021E+03  0.32574954021E+03  0.00000000000E+00 0.  1.
         25    2    1    2    0    0 -0.10566507371E+03 -0.45936167909E+02 -0.19034461698E+03  0.25525493803E+03  0.12509504726E+03 0.  0.
         23    2    1    2    0    0  0.10566507371E+03  0.45936167909E+02 -0.50725782961E+02  0.15517374245E+03  0.90722356488E+02 0.  0.
          5    1    3    3  502    0  0.20463463234E+02 -0.37090288298E+02 -0.60472648022E+02  0.73951716493E+02  0.41800000000E+01 0.  1.
         -5    1    3    3    0  502 -0.12612853694E+03 -0.88458796108E+01 -0.12987196896E+03  0.18130322153E+03  0.41800000000E+01 0.  1.
        -11    1    4    4    0    0  0.58594022742E+02 -0.21471251989E+02 -0.92414687632E+01  0.63084696305E+02  0.00000000000E+00 0. -1.
         11    1    4    4    0    0  0.47071050966E+02  0.67407419898E+02 -0.41484314198E+02  0.92089046150E+02  0.00000000000E+00 0.  1.
</event>
<event>
 8    1  0.6493926E-009  0.1827583E+03  0.7561462E-02  0.1165160E+00
          1   -1    0    0  501    0  0.00000000000E+00  0.00000000000E+00  0.36448123590E+03  0.36448123590E+03  0.00000000000E+00 0. -1.
         -1   -1    0    0    0  501 -0.00000000000E+00 -0.00000000000E+00 -0.96088713995E+02  0.96088713995E+02  0.00000000000E+00 0.  1.
         25    2    1    2    0    0  0.60478850484E+02 -0.13545348938E+03  0.97996607168E+02  0.21738456733E+03  0.12508947180E+03 0.  0.
         23    2    1    2    0    0 -0.60478850484E+02  0.13545348938E+03  0.17039591474E+03  0.24318538257E+03  0.89994574249E+02 0.  0.
          5    1    3    3  502    0  0.55594181947E+02 -0.15921669460E+03  0.91552914454E+02  0.19193769159E+03  0.41800000000E+01 0.  1.
         -5    1    3    3    0  502  0.48846685376E+01  0.23763205222E+02  0.64436927144E+01  0.25446875740E+02  0.41800000000E+01 0.  1.
        -11    1    4    4    0    0  0.18835687294E+02  0.49281865044E+01  0.10728806097E+02  0.22230101627E+02  0.00000000000E+00 0.  1.
         11    1    4    4    0    0 -0.79314537779E+02  0.13052530288E+03  0.15966710864E+03  0.22095528095E+03  0.00000000000E+00 0. -1.
</event>
<event>
 8    1  0.6493926E-009  0.1053739E+03  0.7561462E-02  0.1269385E+00
         -1   -1    0    0    0  501 -0.00000000000E+00  0.00000000000E+00  0.30487143720E+02  0.30487143720E+02  0.00000000000E+00 0.  1.
          1   -1    0    0  501    0  0.00000000000E+00 -0.00000000000E+00 -0.46509514699E+03  0.46509514699E+03  0.00000000000E+00 0. -1.
         25    2    1    2    0    0 -0.26676221043E+02 -0.35460606849E+01 -0.33674333223E+03  0.36023271282E+03  0.12508932918E+03 0.  0.
         23    2    1    2    0    0  0.26676221043E+02  0.35460606849E+01 -0.97864671049E+02  0.13534957789E+03  0.89542275382E+02 0.  0.
          5    1    3    3  502    0 -0.18783407326E+02  0.54874830385E+02 -0.23933245607E+03  0.24629567664E+03  0.41800000000E+01 0. -1.
         -5    1    3    3    0  502 -0.78928137171E+01 -0.58420891070E+02 -0.97410876153E+02  0.11393703618E+03  0.41800000000E+01 0. -1.
        -11    1    4    4    0    0  0.59362428145E+02  0.99472442278E+01 -0.62627295812E+02  0.86862096013E+02  0.00000000000E+00 0.  1.
         11    1    4    4    0    0 -0.32686207102E+02 -0.64011835428E+01 -0.35237375238E+02  0.48487481880E+02  0.00000000000E+00 0. -1.
</event>
<event>
 8    1  0.6493926E-009  0.1155899E+03  0.7561462E-02  0.1250555E+00
          1   -1    0    0  501    0  0.00000000000E+00  0.00000000000E+00  0.65502370409E+02  0.65502370409E+02  0.00000000000E+00 0. -1.
         -1   -1    0    0    0  501 -0.00000000000E+00 -0.00000000000E+00 -0.21718249818E+03  0.21718249818E+03  0.00000000000E+00 0.  1.
         25    2    1    2    0    0  0.48126467534E+02  0.13976639937E+02 -0.96228194801E+02  0.16558320705E+03  0.12508568919E+03 0.  0.
         23    2    1    2    0    0 -0.48126467534E+02 -0.13976639937E+02 -0.55451932969E+02  0.11710166154E+03  0.90146430462E+02 0.  0.
          5    1    3    3  502    0 -0.28734195125E+02 -0.32001994648E+02 -0.44692915987E+02  0.62166797974E+02  0.41800000000E+01 0. -1.
         -5    1    3    3    0  502  0.76860662659E+02  0.45978634586E+02 -0.51535278815E+02  0.10341640907E+03  0.41800000000E+01 0. -1.
        -11    1    4    4    0    0  0.21545904710E+02  0.11128025175E+02  0.54644052057E+00  0.24256082769E+02  0.00000000000E+00 0. -1.
         11    1    4    4    0    0 -0.69672372244E+02 -0.25104665112E+02 -0.55998373490E+02  0.92845578775E+02  0.00000000000E+00 0.  1.
</event>
<event>
 8    1  0.6493926E-009  0.1909821E+03  0.7561462E-02  0.1157578E+00
         -3   -1    0    0    0  501 -0.00000000000E+00  0.00000000000E+00  0.65718538186E+03  0.65718538186E+03  0.00000000000E+00 0.  1.
          3   -1    0    0  501    0  0.00000000000E+00 -0.00000000000E+00 -0.62578073156E+02  0.62578073156E+02  0.00000000000E+00 0. -1.
         25    2    1    2    0    0  0.49760274248E+02  0.16041118205E+03  0.36714698032E+03  0.42267337317E+03  0.12509213808E+03 0.  0.
         23    2    1    2    0    0 -0.49760274248E+02 -0.16041118205E+03  0.22746032839E+03  0.29709008185E+03  0.91194756015E+02 0.  0.
          5    1    3    3  502    0 -0.30756833292E+02  0.45506604480E+01  0.82735744509E+02  0.88483711066E+02  0.41800000000E+01 0. -1.
         -5    1    3    3    0  502  0.80517107540E+02  0.15586052160E+03  0.28441123581E+03  0.33418966210E+03  0.41800000000E+01 0. -1.
        -11    1    4    4    0    0 -0.23001149131E+02 -0.15461980058E+02  0.20841618936E+01  0.27793334083E+02  0.00000000000E+00 0. -1.
         11    1    4    4    0    0 -0.26759125117E+02 -0.14494920199E+03  0.22537616649E+03  0.26929674777E+03  0.00000000000E+00 0.  1.
</event>
<event>
 8    1  0.6493926E-009  0.1807512E+03  0.7561462E-02  0.1167078E+00
         -1   -1    0    0    0  501 -0.00000000000E+00  0.00000000000E+00  0.16182067114E+03  0.16182067114E+03  0.00000000000E+00 0.  1.
          1   -1    0    0  501    0  0.00000000000E+00 -0.00000000000E+00 -0.23233418541E+03  0.23233418541E+03  0.00000000000E+00 0. -1.
         25    2    1    2    0    0  0.10511505754E+03 -0.10726155399E+03 -0.93110860438E+02  0.21649226254E+03  0.12508017877E+03 0.  0.
         23    2    1    2    0    0 -0.10511505754E+03  0.10726155399E+03  0.22597346169E+02  0.17766259402E+03  0.92190785731E+02 0.  0.
          5    1    3    3  502    0  0.22334974750E+02  0.25797598648E+02 -0.35661481776E+02  0.49533633781E+02  0.41800000000E+01 0.  1.
         -5    1    3    3    0  502  0.82780082787E+02 -0.13305915264E+03 -0.57449378661E+02  0.16695862876E+03  0.41800000000E+01 0.  1.
        -11    1    4    4    0    0 -0.28209391905E+02  0.86090852754E+02  0.34641637921E+02  0.96991998626E+02  0.00000000000E+00 0.  1.
         11    1    4    4    0    0 -0.76905665632E+02  0.21170701238E+02 -0.12044291752E+02  0.80670595392E+02  0.00000000000E+00 0. -1.
</event>
<event>
 8    1  0.6493926E-009  0.1969692E+03  0.7561462E-02  0.1152322E+00
          1   -1    0    0  501    0  0.00000000000E+00  0.00000000000E+00  0.53672667529E+02  0.53672667529E+02  0.00000000000E+00 0. -1.
         -1   -1    0    0    0  501 -0.00000000000E+00 -0.00000000000E+00 -0.80011585627E+03  0.80011585627E+03  0.00000000000E+00 0.  1.
         25    2    1    2    0    0 -0.13927554839E+03 -0.10933926538E+03 -0.39430405358E+03  0.44997296713E+03  0.12508889296E+03 0.  0.
         23    2    1    2    0    0  0.13927554839E+03  0.10933926538E+03 -0.35213913516E+03  0.40381555667E+03  0.87819587590E+02 0.  0.
          5    1    3    3  502    0 -0.32101345687E+02 -0.10053763721E+03 -0.15477724910E+03  0.18738138149E+03  0.41800000000E+01 0.  1.
         -5    1    3    3    0  502 -0.10717420270E+03 -0.88016281761E+01 -0.23952680449E+03  0.26259158564E+03  0.41800000000E+01 0.  1.
        -11    1    4    4    0    0  0.79030922534E+02  0.84031683628E+02 -0.13766267183E+03  0.17960573985E+03  0.00000000000E+00 0. -1.
         11    1    4    4    0    0  0.60244625853E+02  0.25307581756E+02 -0.21447646333E+03  0.22420981682E+03  0.00000000000E+00 0.  1.
</event>
<event>
 8    1  0.6493926E-009  0.9861485E+02  0.7561462E-02  0.1283236E+00
          1   -1    0    0  501    0  0.00000000000E+00  0.00000000000E+00  0.81547971943E+03  0.81547971943E+03  0.00000000000E+00 0. -1.
         -1   -1    0    0    0  501 -0.00000000000E+00 -0.00000000000E+00 -0.19555045394E+02  0.19555045394E+02  0.00000000000E+00 0.  1.
         25    2    1    2    0    0  0.47349297229E+02 -0.44100789758E+02  0.46955806577E+03  0.49022309114E+03  0.12508823427E+03 0.  0.
         23    2    1    2    0    0 -0.47349297229E+02  0.44100789758E+02  0.32636660826E+03  0.34481167368E+03  0.90515698703E+02 0.  0.
          5    1    3    3  502    0  0.36394700403E+02 -0.65915070730E+02  0.45559183076E+03  0.46179081782E+03  0.41800000000E+01 0.  1.
         -5    1    3    3    0  502  0.10954596826E+02  0.21814280972E+02  0.13966235012E+02  0.28432273324E+02  0.41800000000E+01 0.  1.
        -11    1    4    4    0    0  0.17797383871E+02 -0.98799765172E+00  0.14320872336E+02  0.22865047484E+02  0.00000000000E+00 0.  1.
         11    1    4    4    0    0 -0.65146681100E+02  0.45088787410E+02  0.31204573593E+03  0.32194662620E+03  0.00000000000E+00 0. -1.
</event>
<event>
 8    1  0.6493926E-009  0.9362281E+02  0.7561462E-02  0.1294308E+00
         -1   -1    0    0    0  501 -0.00000000000E+00  0.00000000000E+00  0.14984460922E+02  0.14984460922E+02  0.00000000000E+00 0.  1.
          1   -1    0    0  501    0  0.00000000000E+00 -0.00000000000E+00 -0.12813940359E+04  0.12813940359E+04  0.00000000000E+00 0. -1.
         25    2    1    2    0    0 -0.73333640207E+02 -0.11639879414E+02 -0.95049232423E+03  0.96155909676E+03  0.12508768350E+03 0.  0.
         23    2    1    2    0    0  0.73333640207E+02  0.11639879414E+02 -0.31591725072E+03  0.33481940003E+03  0.82383322085E+02 0.  0.
          5    1    3    3  502    0 -0.23262663496E+02 -0.12666545084E+02 -0.32247423216E+02  0.41939975934E+02  0.41800000000E+01 0.  1.
         -5    1    3    3    0  502 -0.50070976711E+02  0.10266656701E+01 -0.91824490102E+03  0.91961912083E+03  0.41800000000E+01 0.  1.
        -11    1    4    4    0    0  0.38738269878E+02 -0.34929976717E+02 -0.16885628553E+03  0.17672917696E+03  0.00000000000E+00 0. -1.
         11    1    4    4    0    0  0.34595370329E+02  0.46569856131E+02 -0.14706096518E+03  0.15809022307E+03  0.00000000000E+00 0.  1.
</event>
<event>
 8    1  0.6493926E-009  0.1148650E+03  0.7561462E-02  0.1251817E+00
          1   -1    0    0  501    0  0.00000000000E+00  0.00000000000E+00  0.16079449512E+03  0.16079449512E+03  0.00000000000E+00 0. -1.
         -1   -1    0    0    0  501 -0.00000000000E+00 -0.00000000000E+00 -0.11228447036E+03  0.11228447036E+03  0.00000000000E+00 0.  1.
         25    2    1    2    0    0 -0.78761413486E+02 -0.17781106838E+02  0.33062350140E+02  0.15251456220E+03  0.12509214472E+03 0.  0.
         23    2    1    2    0    0  0.78761413486E+02  0.17781106838E+02  0.15447674622E+02  0.12056440329E+03  0.88190796991E+02 0.  0.
          5    1    3    3  502    0  0.26995511384E+02 -0.32008441449E+02  0.83465012557E+01  0.42900284872E+02  0.41800000000E+01 0. -1.
         -5    1    3    3    0  502 -0.10575692487E+03  0.14227334612E+02  0.24715848885E+02  0.10961427733E+03  0.41800000000E+01 0. -1.
        -11    1    4    4    0    0  0.42842813617E+02  0.74744382898E+01  0.52342001545E+02  0.68051884853E+02  0.00000000000E+00 0. -1.
         11    1    4    4    0    0  0.35918599869E+02  0.10306668548E+02 -0.36894326923E+02  0.52512518433E+02  0.00000000000E+00 0.  1.
</event>
<event>
 8    1  0.6493926E-009  0.1466633E+03  0.7561462E-02  0.1204634E+00
         -1   -1    0    0    0  501 -0.00000000000E+00  0.00000000000E+00  0.47197251733E+02  0.47197251733E+02  0.00000000000E+00 0.  1.
          1   -1    0    0  501    0  0.00000000000E+00 -0.00000000000E+00 -0.72438597734E+03  0.72438597734E+03  0.00000000000E+00 0. -1.
         25    2    1    2    0    0  0.40066935794E+02 -0.12621110530E+03 -0.50004311138E+03  0.53218665555E+03  0.12507965727E+03 0.  0.
         23    2    1    2    0    0 -0.40066935794E+02  0.12621110530E+03 -0.17714561422E+03  0.23939657352E+03  0.91627224832E+02 0.  0.
          5    1    3    3  502    0  0.28705204892E+02  0.31310654647E+01 -0.21281011110E+02  0.36112964330E+02  0.41800000000E+01 0.  1.
         -5    1    3    3    0  502  0.11361730902E+02 -0.12934217076E+03 -0.47876210027E+03  0.49607369122E+03  0.41800000000E+01 0.  1.
        -11    1    4    4    0    0 -0.69993575370E+01  0.58194202734E+02 -0.15033489243E+02  0.60510842306E+02  0.00000000000E+00 0.  1.
         11    1    4    4    0    0 -0.33067578257E+02  0.68016902561E+02 -0.16211212498E+03  0.17888573121E+03  0.00000000000E+00 0. -1.
</event>
<event>
 8    1  0.6493926E-009  0.1144946E+03  0.7561462E-02  0.1252466E+00
          1   -1    0    0  501    0  0.00000000000E+00  0.00000000000E+00  0.12591190508E+04  0.12591190508E+04  0.00000000000E+00 0. -1.
         -1   -1    0    0    0  501 -0.00000000000E+00 -0.00000000000E+00 -0.11248533573E+02  0.11248533573E+02  0.00000000000E+00 0.  1.
         25    2    1    2    0    0  0.15128653798E+02  0.36493934347E+02  0.86259652237E+03  0.87251248693E+03  0.12507835958E+03 0.  0.
         23    2    1    2    0    0 -0.15128653798E+02 -0.36493934347E+02  0.38527399485E+03  0.39785509743E+03  0.91060112221E+02 0.  0.
          5    1    3    3  502    0  0.31195804774E+02 -0.41043253431E+02  0.32022083320E+03  0.32437105497E+03  0.41800000000E+01 0.  1.
         -5    1    3    3    0  502 -0.16067150975E+02  0.77537187778E+02  0.54237568917E+03  0.54814143196E+03  0.41800000000E+01 0.  1.
        -11    1    4    4    0    0 -0.48018562162E+00  0.29939305731E+02  0.14918157345E+03  0.15215694024E+03  0.00000000000E+00 0. -1.
         11    1    4    4    0    0 -0.14648468177E+02 -0.66433240078E+02  0.23609242140E+03  0.24569815720E+03  0.00000000000E+00 0.  1.
</event>
<event>
 8    1  0.6493926E-009  0.1664650E+03  0.7561462E-02  0.1181585E+00
         -2   -1    0    0    0  501 -0.00000000000E+00  0.00000000000E+00  0.36476719745E+03  0.36476719745E+03  0.00000000000E+00 0.  1.
          2   -1    0    0  501    0  0.00000000000E+00 -0.00000000000E+00 -0.95443206735E+02  0.95443206735E+02  0.00000000000E+00 0. -1.
         25    2    1    2    0    0  0.11777046037E+03 -0.93069783417E+02  0.16292713962E+03  0.25441072182E+03  0.12509075358E+03 0.  0.
         23    2    1    2    0    0 -0.11777046037E+03  0.93069783417E+02  0.10639685109E+03  0.20579968237E+03  0.92202784228E+02 0.  0.
          5    1    3    3  502    0  0.10603521301E+03 -0.19348644092E+02  0.49796939580E+02  0.11880675073E+03  0.41800000000E+01 0.  1.
         -5    1    3    3    0  502  0.11735247353E+02 -0.73721139325E+02  0.11313020004E+03  0.13560397109E+03  0.41800000000E+01 0.  1.
        -11    1    4    4    0    0 -0.31833157961E+02  0.29524783018E+02  0.86919693777E+02  0.97160156053E+02  0.00000000000E+00 0.  1.
         11    1    4    4    0    0 -0.85937302407E+02  0.63545000400E+02  0.19477157318E+02  0.10863952632E+03  0.00000000000E+00 0. -1.
</event>
<event>
 8    1  0.6493926E-009  0.9830454E+02  0.7561462E-02  0.1283902E+00
          2   -1    0    0  501    0  0.00000000000E+00  0.00000000000E+00  0.57850135101E+02  0.57850135101E+02  0.00000000000E+00 0. -1.
         -2   -1    0    0    0  501 -0.00000000000E+00 -0.00000000000E+00 -0.54542263691E+03  0.54542263691E+03  0.00000000000E+00 0.  1.
         25    2    1    2    0    0 -0.32096561769E+02  0.42426919117E+02 -0.47808522734E+03  0.49703347768E+03  0.12508621263E+03 0.  0.
         23    2    1    2    0    0  0.32096561769E+02 -0.42426919117E+02 -0.94872744715E+01  0.10623929433E+03  0.91468828245E+02 0.  0.
          5    1    3    3  502    0  0.19783535526E+02  0.41945261341E+02 -0.61145063538E+02  0.76856908746E+02  0.41800000000E+01 0.  1.
         -5    1    3    3    0  502 -0.51880097294E+02  0.48165777608E+00 -0.41694016380E+03  0.42017656893E+03  0.41800000000E+01 0.  1.
        -11    1    4    4    0    0  0.53072306064E+02 -0.27858160236E+01  0.14892478176E+02  0.55192538880E+02  0.00000000000E+00 0. -1.
         11    1    4    4    0    0 -0.20975744295E+02 -0.39641103094E+02 -0.24379752648E+02  0.51046755454E+02  0.00000000000E+00 0.  1.
</event>
<event>
 8    1  0.6493926E-009  0.3583080E+03  0.7561462E-02  0.1059256E+00
          4   -1    0    0  501    0  0.00000000000E+00  0.00000000000E+00  0.31057840017E+03  0.31057840017E+03  0.00000000000E+00 0. -1.
         -4   -1    0    0    0  501 -0.00000000000E+00 -0.00000000000E+00 -0.48132018302E+03  0.48132018302E+03  0.00000000000E+00 0.  1.
         25    2    1    2    0    0 -0.24300764601E+03  0.23985620197E+03 -0.23424921882E+03  0.43255551523E+03  0.12509142097E+03 0.  0.
         23    2    1    2    0    0  0.24300764601E+03 -0.23985620197E+03  0.63507435969E+02  0.35934306796E+03  0.92252546989E+02 0.  0.
          5    1    3    3  502    0 -0.88176244369E+02  0.17386646924E+03 -0.13423031792E+03  0.23672737452E+03  0.41800000000E+01 0.  1.
         -5    1    3    3    0  502 -0.15483140164E+03  0.65989732728E+02 -0.10001890090E+03  0.19582814071E+03  0.41800000000E+01 0.  1.
        -11    1    4    4    0    0  0.12601726636E+03 -0.18551753215E+03  0.31842062474E+02  0.22651936583E+03  0.00000000000E+00 0. -1.
         11    1    4    4    0    0  0.11699037964E+03 -0.54338669822E+02  0.31665373495E+02  0.13282370212E+03  0.00000000000E+00 0.  1.
</event>
<event>
 8    1  0.6493926E-009  0.1391904E+03  0.7561462E-02  0.1214423E+00
          3   -1    0    0  501    0  0.00000000000E+00  0.00000000000E+00  0.69728664516E+02  0.69728664516E+02  0.00000000000E+00 0. -1.
         -3   -1    0    0    0  501 -0.00000000000E+00 -0.00000000000E+00 -0.39092512579E+03  0.39092512579E+03  0.00000000000E+00 0.  1.
         25    2    1    2    0    0 -0.88277199499E+02  0.37040299178E+02 -0.28070792571E+03  0.32188423500E+03  0.12509066101E+03 0.  0.
         23    2    1    2    0    0  0.88277199499E+02 -0.37040299178E+02 -0.40488535569E+02  0.13876955531E+03  0.91939220428E+02 0.  0.
          5    1    3    3  502    0  0.23887891172E+02 -0.18188487394E+02 -0.36057398478E+02  0.47106908233E+02  0.41800000000E+01 0. -1.
         -5    1    3    3    0  502 -0.11216509067E+03  0.55228786572E+02 -0.24465052723E+03  0.27477732677E+03  0.41800000000E+01 0. -1.
        -11    1    4    4    0    0  0.41603268556E+02 -0.58350766809E+02  0.26843782659E+01  0.71713665563E+02  0.00000000000E+00 0. -1.
         11    1    4    4    0    0  0.46673930944E+02  0.21310467631E+02 -0.43172913835E+02  0.67055889744E+02  0.00000000000E+00 0.  1.
</event>
<event>
 8    1  0.6493926E-009  0.1145718E+03  0.7561462E-02  0.1252330E+00
          2   -1    0    0  501    0  0.00000000000E+00  0.00000000000E+00  0.12497984528E+03  0.12497984528E+03  0.00000000000E+00 0. -1.
         -2   -1    0    0    0  501 -0.00000000000E+00 -0.00000000000E+00 -0.14511725483E+03  0.14511725483E+03  0.00000000000E+00 0.  1.
         25    2    1    2    0    0 -0.66349731836E+02  0.43808615489E+02 -0.16790315601E+02  0.14916863460E+03  0.12509150708E+03 0.  0.
         23    2    1    2    0    0  0.66349731836E+02 -0.43808615489E+02 -0.33470939506E+01  0.12092846551E+03  0.91054978051E+02 0.  0.
          5    1    3    3  502    0  0.72737999801E+00  0.64953555198E+02 -0.38274201704E+02  0.75510796120E+02  0.41800000000E+01 0.  1.
         -5    1    3    3    0  502 -0.67077111834E+02 -0.21144939709E+02  0.21483886103E+02  0.73657838479E+02  0.41800000000E+01 0.  1.
        -11    1    4    4    0    0  0.66083280746E+02 -0.18963969958E+02 -0.37795545444E+02  0.78454671028E+02  0.00000000000E+00 0.  1.
         11    1    4    4    0    0  0.26645109037E+00 -0.24844645531E+02  0.34448451493E+02  0.42473794486E+02  0.00000000000E+00 0. -1.
</event>
<event>
 8    1  0.6493926E-009  0.6994767E+02  0.7561462E-02  0.1360271E+00
          1   -1    0    0  501    0  0.00000000000E+00  0.00000000000E+00  0.34943930297E+03  0.34943930297E+03  0.00000000000E+00 0. -1.
         -1   -1    0    0    0  501 -0.00000000000E+00 -0.00000000000E+00 -0.63721116993E+02  0.63721116993E+02  0.00000000000E+00 0.  1.
         25    2    1    2    0    0  0.47043375703E+02  0.55246966123E+00  0.28735488069E+02  0.13669765337E+03  0.12508851163E+03 0.  0.
         23    2    1    2    0    0 -0.47043375703E+02 -0.55246966123E+00  0.25698269791E+03  0.27646276659E+03  0.90433234305E+02 0.  0.
          5    1    3    3  502    0  0.59477519742E+01  0.54301388778E+00  0.74610422700E+02  0.74965713451E+02  0.41800000000E+01 0.  1.
         -5    1    3    3    0  502  0.41095623729E+02  0.94557734487E-02 -0.45874934631E+02  0.61731939922E+02  0.41800000000E+01 0.  1.
        -11    1    4    4    0    0  0.20274858724E+02 -0.11168698137E+02  0.13286202185E+03  0.13486336257E+03  0.00000000000E+00 0. -1.
         11    1    4    4    0    0 -0.67318234427E+02  0.10616228476E+02  0.12412067606E+03  0.14159940402E+03  0.00000000000E+00 0.  1.
</event>
<event>
 8    1  0.6493926E-009  0.8543875E+02  0.7561462E-02  0.1314289E+00
         -3   -1    0    0    0  501 -0.00000000000E+00  0.00000000000E+00  0.21465403979E+03  0.21465403979E+03  0.00000000000E+00 0.  1.
          3   -1    0    0  501    0  0.00000000000E+00 -0.00000000000E+00 -0.71475350639E+02  0.71475350639E+02  0.00000000000E+00 0. -1.
         25    2    1    2    0    0 -0.33426348244E+02 -0.23605564554E+02  0.29529277101E+02  0.13488346576E+03  0.12508807975E+03 0.  0.
         23    2    1    2    0    0  0.33426348244E+02  0.23605564554E+02  0.11364941205E+03  0.15124592466E+03  0.91019763969E+02 0.  0.
          5    1    3    3  502    0  0.40263559868E+02  0.17324687477E+02 -0.36848550804E+01  0.44185400375E+02  0.41800000000E+01 0. -1.
         -5    1    3    3    0  502 -0.73689908112E+02 -0.40930252031E+02  0.33214132181E+02  0.90698065389E+02  0.41800000000E+01 0. -1.
        -11    1    4    4    0    0  0.24252053708E+02  0.10445004558E+02  0.12740546861E+03  0.13011308028E+03  0.00000000000E+00 0.  1.
         11    1    4    4    0    0  0.91742945359E+01  0.13160559997E+02 -0.13756056557E+02  0.21132844382E+02  0.00000000000E+00 0. -1.
</event>
<event>
 8    1  0.6493926E-009  0.5856715E+02  0.7561462E-02  0.1403945E+00
          1   -1    0    0  501    0  0.00000000000E+00  0.00000000000E+00  0.14898926888E+03  0.14898926888E+03  0.00000000000E+00 0. -1.
         -1   -1    0    0    0  501 -0.00000000000E+00 -0.00000000000E+00 -0.96094988478E+02  0.96094988478E+02  0.00000000000E+00 0.  1.
         25    2    1    2    0    0 -0.46261056810E+02 -0.18544722533E+02  0.27959028612E+02  0.13752336996E+03  0.12508788068E+03 0.  0.
         23    2    1    2    0    0  0.46261056810E+02  0.18544722533E+02  0.24935251792E+02  0.10756088740E+03  0.91997747830E+02 0.  0.
          5    1    3    3  502    0 -0.53241158535E+02 -0.14363409763E+02 -0.40442587776E+02  0.68512800324E+02  0.41800000000E+01 0. -1.
         -5    1    3    3    0  502  0.69801017252E+01 -0.41813127701E+01  0.68401616389E+02  0.69010569634E+02  0.41800000000E+01 0. -1.
        -11    1    4    4    0    0  0.32449967723E+02  0.41149126555E+01 -0.32888072313E+02  0.46384892065E+02  0.00000000000E+00 0.  1.
         11    1    4    4    0    0  0.13811089087E+02  0.14429809878E+02  0.57823324105E+02  0.61175995337E+02  0.00000000000E+00 0. -1.
</event>
<event>
 8    1  0.6493926E-009  0.7231640E+02  0.7561462E-02  0.1352389E+00
         -1   -1    0    0    0  501 -0.00000000000E+00  0.00000000000E+00  0.51661336538E+03  0.51661336538E+03  0.00000000000E+00 0.  1.
          1   -1    0    0  501    0  0.00000000000E+00 -0.00000000000E+00 -0.26281254374E+02  0.26281254374E+02  0.00000000000E+00 0. -1.
         25    2    1    2    0    0 -0.30411305237E+02 -0.24208012852E+02  0.32159028071E+03  0.34724258131E+03  0.12508487620E+03 0.  0.
         23    2    1    2    0    0  0.30411305237E+02  0.24208012852E+02  0.16874183030E+03  0.19565203845E+03  0.91077107356E+02 0.  0.
          5    1    3    3  502    0 -0.36562205786E+02 -0.21732030173E+02  0.22970630407E+02  0.48520081293E+02  0.41800000000E+01 0.  1.
         -5    1    3    3    0  502  0.61509005491E+01 -0.24759826797E+01  0.29861965030E+03  0.29872250001E+03  0.41800000000E+01 0.  1.
        -11    1    4    4    0    0  0.86306491719E+01 -0.32333173964E+02  0.32991598746E+02  0.46993274322E+02  0.00000000000E+00 0. -1.
         11    1    4    4    0    0  0.21780656065E+02  0.56541186816E+02  0.13575023155E+03  0.14865876413E+03  0.00000000000E+00 0.  1.
</event>
<event>
 7    1  0.6493926E-009  0.1498536E+03  0.7561462E-02  0.1200653E+00
          1   -1    0    0  501    0  0.00000000000E+00  0.00000000000E+00  0.58848462390E+03  0.58848462390E+03  0.00000000000E+00 0. -1.
         -1   -1    0    0    0  501 -0.00000000000E+00 -0.00000000000E+00 -0.40326719225E+02  0.40326719225E+02  0.00000000000E+00 0.  1.
         23    2    1    2    0    0 -0.67046700293E+02  0.94863467414E+02  0.22958536471E+03  0.26736119616E+03  0.72651442198E+02 0.  0.
          5    1    1    2  502    0 -0.93856453391E+01 -0.90738570742E+02  0.20510000800E+03  0.22451072188E+03  0.41800000000E+01 0. -1.
         -5    1    1    2    0  502  0.76432345632E+02 -0.41248966720E+01  0.11347253197E+03  0.13693942509E+03  0.41800000000E+01 0. -1.
        -11    1    3    3    0    0  0.42536788596E+00  0.51552777257E+02  0.55788446610E+02  0.75961967826E+02  0.00000000000E+00 0.  1.
         11    1    3    3    0    0 -0.67472068179E+02  0.43310690157E+02  0.17379691810E+03  0.19139922833E+03  0.00000000000E+00 0. -1.
</event>
<event>
 8    1  0.6493926E-009  0.1131805E+03  0.7561462E-02  0.1254791E+00
         -1   -1    0    0    0  501 -0.00000000000E+00  0.00000000000E+00  0.50313814331E+02  0.50313814331E+02  0.00000000000E+00 0.  1.
          1   -1    0    0  501    0  0.00000000000E+00 -0.00000000000E+00 -0.29127154395E+03  0.29127154395E+03  0.00000000000E+00 0. -1.
         25    2    1    2    0    0  0.13658173507E+02  0.21824859051E+02 -0.19262195847E+03  0.23111509432E+03  0.12509235693E+03 0.  0.
         23    2    1    2    0    0 -0.13658173507E+02 -0.21824859051E+02 -0.48335771145E+02  0.11047026395E+03  0.95939888836E+02 0.  0.
          5    1    3    3  502    0  0.39580714300E+02  0.65182142961E+02 -0.10414695225E+03  0.12914876990E+03  0.41800000000E+01 0.  1.
         -5    1    3    3    0  502 -0.25922540793E+02 -0.43357283911E+02 -0.88475006225E+02  0.10196632442E+03  0.41800000000E+01 0.  1.
        -11    1    4    4    0    0 -0.27213847515E+02  0.33028773716E+02 -0.19387763072E+02  0.46982749459E+02  0.00000000000E+00 0.  1.
         11    1    4    4    0    0  0.13555674008E+02 -0.54853632767E+02 -0.28948008073E+02  0.63487514496E+02  0.00000000000E+00 0. -1.
</event>
<event>
 8    1  0.6493926E-009  0.1400795E+03  0.7561462E-02  0.1213222E+00
          2   -1    0    0  501    0  0.00000000000E+00  0.00000000000E+00  0.92046525551E+03  0.92046525551E+03  0.00000000000E+00 0. -1.
         -2   -1    0    0    0  501 -0.00000000000E+00 -0.00000000000E+00 -0.29690380384E+02  0.29690380384E+02  0.00000000000E+00 0.  1.
         25    2    1    2    0    0  0.26231668617E+02 -0.10250068946E+03  0.28967656280E+03  0.33279850347E+03  0.12509133105E+03 0.  0.
         23    2    1    2    0    0 -0.26231668617E+02  0.10250068946E+03  0.60109831233E+03  0.61735713242E+03  0.92823251856E+02 0.  0.
          5    1    3    3  502    0  0.50074388088E+02  0.42043492236E+01  0.12803505987E+03  0.13760657633E+03  0.41800000000E+01 0. -1.
         -5    1    3    3    0  502 -0.23842719471E+02 -0.10670503868E+03  0.16164150293E+03  0.19519192714E+03  0.41800000000E+01 0. -1.
        -11    1    4    4    0    0 -0.12447075464E+02 -0.38883041431E+01  0.95584051780E+01  0.16168231390E+02  0.00000000000E+00 0.  1.
         11    1    4    4    0    0 -0.13784593152E+02  0.10638899360E+03  0.59153990716E+03  0.60118890103E+03  0.00000000000E+00 0. -1.
</event>
<event>
 8    1  0.6493926E-009  0.8541549E+02  0.7561462E-02  0.1314350E+00
         -3   -1    0    0    0  501 -0.00000000000E+00  0.00000000000E+00  0.26154461279E+03  0.26154461279E+03  0.00000000000E+00 0.  1.
          3   -1    0    0  501    0  0.00000000000E+00 -0.00000000000E+00 -0.51131340633E+02  0.51131340633E+02  0.00000000000E+00 0. -1.
         25    2    1    2    0    0  0.38594728769E+02 -0.19865897113E+02  0.11150148939E+03  0.17310386002E+03  0.12509259475E+03 0.  0.
         23    2    1    2    0    0 -0.38594728769E+02  0.19865897113E+02  0.98911782772E+02  0.13957209341E+03  0.88389035124E+02 0.  0.
          5    1    3    3  502    0 -0.59055420207E+01  0.36431721274E+02  0.91101141612E+02  0.98382092602E+02  0.41800000000E+01 0.  1.
         -5    1    3    3    0  502  0.44500270790E+02 -0.56297618387E+02  0.20400347776E+02  0.74721767416E+02  0.41800000000E+01 0.  1.
        -11    1    4    4    0    0 -0.24436704524E+02  0.33952901512E+02  0.10931998126E+03  0.11705046071E+03  0.00000000000E+00 0.  1.
         11    1    4    4    0    0 -0.14158024245E+02 -0.14087004399E+02 -0.10408198492E+02  0.22521632697E+02  0.00000000000E+00 0. -1.
</event>
<event>
 8    1  0.6493926E-009  0.1145348E+03  0.7561462E-02  0.1252395E+00
         -2   -1    0    0    0  501 -0.00000000000E+00  0.00000000000E+00  0.24505289046E+02  0.24505289046E+02  0.00000000000E+00 0.  1.
          2   -1    0    0  501    0  0.00000000000E+00 -0.00000000000E+00 -0.71740861164E+03  0.71740861164E+03  0.00000000000E+00 0. -1.
         25    2    1    2    0    0  0.46246179334E+02  0.58816254052E+02 -0.47336706100E+03  0.49529894548E+03  0.12508641058E+03 0.  0.
         23    2    1    2    0    0 -0.46246179334E+02 -0.58816254052E+02 -0.21953626159E+03  0.24661495520E+03  0.83813514017E+02 0.  0.
          5    1    3    3  502    0  0.42544012344E+02 -0.22238828414E+02 -0.78110994589E+02  0.91778855687E+02  0.41800000000E+01 0. -1.
         -5    1    3    3    0  502  0.37021669896E+01  0.81055082466E+02 -0.39525606641E+03  0.40352008980E+03  0.41800000000E+01 0. -1.
        -11    1    4    4    0    0 -0.33028881082E+02 -0.73074937369E+02 -0.21033797392E+03  0.22510645644E+03  0.00000000000E+00 0. -1.
         11    1    4    4    0    0 -0.13217298252E+02  0.14258683317E+02 -0.91982876725E+01  0.21508498765E+02  0.00000000000E+00 0.  1.
</event>
<event>
 8    1  0.6493926E-009  0.9816749E+02  0.7561462E-02  0.1284197E+00
         -1   -1    0    0    0  501 -0.00000000000E+00  0.00000000000E+00  0.17446665818E+03  0.17446665818E+03  0.00000000000E+00 0.  1.
          1   -1    0    0  501    0  0.00000000000E+00 -0.00000000000E+00 -0.93311251520E+02  0.93311251520E+02  0.00000000000E+00 0. -1.
         25    2    1    2    0    0  0.48409182587E+02  0.26915342224E+02  0.41892220250E+01  0.13687100546E+03  0.12509291726E+03 0.  0.
         23    2    1    2    0    0 -0.48409182587E+02 -0.26915342224E+02  0.76966184632E+02  0.13090690424E+03  0.90249317975E+02 0.  0.
          5    1    3    3  502    0  0.18704125078E+02 -0.24413092426E+02  0.52014457455E+02  0.60570781414E+02  0.41800000000E+01 0. -1.
         -5    1    3    3    0  502  0.29705057509E+02  0.51328434650E+02 -0.47825235430E+02  0.76300224044E+02  0.41800000000E+01 0. -1.
        -11    1    4    4    0    0 -0.66478832418E+02 -0.45003185104E+02  0.56735875528E+02  0.98304025356E+02  0.00000000000E+00 0.  1.
         11    1    4    4    0    0  0.18069649831E+02  0.18087842880E+02  0.20230309104E+02  0.32602878884E+02  0.00000000000E+00 0. -1.
</event>
<event>
 8    1  0.6493926E-009  0.1259151E+03  0.7561462E-02  0.1233646E+00
         -3   -1    0    0    0  501 -0.00000000000E+00  0.00000000000E+00  0.28729664524E+03  0.28729664524E+03  0.00000000000E+00 0.  1.
          3   -1    0    0  501    0  0.00000000000E+00 -0.00000000000E+00 -0.86461651112E+02  0.86461651112E+02  0.00000000000E+00 0. -1.
         25    2    1    2    0    0  0.69356020278E+02 -0.91336356060E+02  0.15319326633E+03  0.22860995531E+03  0.12506697139E+03 0.  0.
         23    2    1    2    0    0 -0.69356020278E+02  0.91336356060E+02  0.47641727793E+02  0.14514834103E+03  0.75138000977E+02 0.  0.
          5    1    3    3  502    0  0.42668756509E+02 -0.33078800473E+02  0.15518721954E+03  0.16436354623E+03  0.41800000000E+01 0.  1.
         -5    1    3    3    0  502  0.26687263768E+02 -0.58257555587E+02 -0.19939532058E+01  0.64246409081E+02  0.41800000000E+01 0.  1.
        -11    1    4    4    0    0 -0.84134286513E+01  0.67505541277E+02  0.40874307510E+02  0.79363044922E+02  0.00000000000E+00 0.  1.
         11    1    4    4    0    0 -0.60942591626E+02  0.23830814782E+02  0.67674202831E+01  0.65785296113E+02  0.00000000000E+00 0. -1.
</event>
<event>
 8    1  0.6493926E-009  0.1426939E+03  0.7561462E-02  0.1209749E+00
         -1   -1    0    0    0  501 -0.00000000000E+00  0.00000000000E+00  0.30004139359E+03  0.30004139359E+03  0.00000000000E+00 0. -1.
          1   -1    0    0  501    0  0.00000000000E+00 -0.00000000000E+00 -0.16944503865E+03  0.16944503865E+03  0.00000000000E+00 0.  1.
         25    2    1    2    0    0  0.34744516993E+01  0.93824823868E+02  0.24756661320E+03  0.29283494567E+03  0.12509159861E+03 0.  0.
         23    2    1    2    0    0 -0.34744516993E+01 -0.93824823868E+02 -0.11697025826E+03  0.17665148658E+03  0.93319542453E+02 0.  0.
          5    1    3    3  502    0 -0.79779630288E+01 -0.29622432131E+02  0.66465458209E+02  0.73323024449E+02  0.41800000000E+01 0.  1.
         -5    1    3    3    0  502  0.11452414728E+02  0.12344725600E+03  0.18110115499E+03  0.21951192122E+03  0.41800000000E+01 0.  1.
        -11    1    4    4    0    0  0.39884176710E+02 -0.70860812545E+02 -0.57689036484E+02  0.99699685239E+02  0.00000000000E+00 0.  1.
         11    1    4    4    0    0 -0.43358628409E+02 -0.22964011322E+02 -0.59281221780E+02  0.76951801339E+02  0.00000000000E+00 0. -1.
</event>
<event>
 8    1  0.6493926E-009  0.5675472E+02  0.7561462E-02  0.1411978E+00
         -2   -1    0    0    0  501 -0.00000000000E+00  0.00000000000E+00  0.24298121882E+02  0.24298121882E+02  0.00000000000E+00 0.  1.
          2   -1    0    0  501    0  0.00000000000E+00 -0.00000000000E+00 -0.56457359958E+03  0.56457359958E+03  0.00000000000E+00 0. -1.
         25    2    1    2    0    0  0.39423214043E+02  0.10369827461E+02 -0.36104764133E+03  0.38427124055E+03  0.12508902382E+03 0.  0.
         23    2    1    2    0    0 -0.39423214043E+02 -0.10369827461E+02 -0.17922783637E+03  0.20460048091E+03  0.89872222245E+02 0.  0.
          5    1    3    3  502    0  0.40844070367E+02  0.29765084460E+02 -0.45604239562E+02  0.68201300597E+02  0.41800000000E+01 0.  1.
         -5    1    3    3    0  502 -0.14208563232E+01 -0.19395256999E+02 -0.31544340176E+03  0.31606993996E+03  0.41800000000E+01 0.  1.
        -11    1    4    4    0    0 -0.29377365040E+02 -0.13574271924E+02 -0.18807322653E+03  0.19083717921E+03  0.00000000000E+00 0. -1.
         11    1    4    4    0    0 -0.10045849003E+02  0.32044444632E+01  0.88453901558E+01  0.13763301694E+02  0.00000000000E+00 0.  1.
</event>
<event>
 8    1  0.6493926E-009  0.1006783E+03  0.7561462E-02  0.1278876E+00
         -2   -1    0    0    0  501 -0.00000000000E+00  0.00000000000E+00  0.95602361905E+02  0.95602361905E+02  0.00000000000E+00 0.  1.
          2   -1    0    0  501    0  0.00000000000E+00 -0.00000000000E+00 -0.15481504253E+03  0.15481504253E+03  0.00000000000E+00 0. -1.
         25    2    1    2    0    0  0.16033619188E+01  0.41173901048E+02  0.22203680362E+01  0.13172337838E+03  0.12509299533E+03 0.  0.
         23    2    1    2    0    0 -0.16033619188E+01 -0.41173901048E+02 -0.61433048666E+02  0.11869402606E+03  0.92824519691E+02 0.  0.
          5    1    3    3  502    0  0.34467840412E+02  0.69146795765E+02  0.26797007157E+02  0.81883230150E+02  0.41800000000E+01 0. -1.
         -5    1    3    3    0  502 -0.32864478493E+02 -0.27972894717E+02 -0.24576639121E+02  0.49840148234E+02  0.41800000000E+01 0. -1.
        -11    1    4    4    0    0 -0.23586119810E+02 -0.51268087851E+02 -0.42358780287E+01  0.56592089044E+02  0.00000000000E+00 0.  1.
         11    1    4    4    0    0  0.21982757892E+02  0.10094186803E+02 -0.57197170637E+02  0.62101937012E+02  0.00000000000E+00 0. -1.
</event>
<event>
 8    1  0.6493926E-009  0.1527756E+03  0.7561462E-02  0.1197103E+00
         -1   -1    0    0    0  501 -0.00000000000E+00  0.00000000000E+00  0.28824591232E+03  0.28824591232E+03  0.00000000000E+00 0.  1.
          1   -1    0    0  501    0  0.00000000000E+00 -0.00000000000E+00 -0.83519604449E+02  0.83519604449E+02  0.00000000000E+00 0. -1.
         25    2    1    2    0    0  0.42967799533E+02  0.10118466266E+03  0.93110773209E+02  0.19079328793E+03  0.12509154600E+03 0.  0.
         23    2    1    2    0    0 -0.42967799533E+02 -0.10118466266E+03  0.11161553466E+03  0.18097222884E+03  0.90599957387E+02 0.  0.
          5    1    3    3  502    0 -0.44285077130E+02  0.37008827043E+02  0.37656164310E+02  0.69038253498E+02  0.41800000000E+01 0.  1.
         -5    1    3    3    0  502  0.87252876663E+02  0.64175835612E+02  0.55454608899E+02  0.12175503444E+03  0.41800000000E+01 0.  1.
        -11    1    4    4    0    0  0.26350825843E+02 -0.25673049291E+02  0.13819245494E+02  0.39299402394E+02  0.00000000000E+00 0.  1.
         11    1    4    4    0    0 -0.69318625376E+02 -0.75511613365E+02  0.97796289170E+02  0.14167282644E+03  0.00000000000E+00 0. -1.
</event>
<event>
 8    1  0.6493926E-009  0.7874915E+02  0.7561462E-02  0.1332639E+00
         -2   -1    0    0    0  501 -0.00000000000E+00  0.00000000000E+00  0.58069545625E+02  0.58069545625E+02  0.00000000000E+00 0.  1.
          2   -1    0    0  501    0  0.00000000000E+00 -0.00000000000E+00 -0.23417799032E+03  0.23417799032E+03  0.00000000000E+00 0. -1.
         25    2    1    2    0    0  0.12597076561E+02  0.11769502329E+02 -0.14338548550E+03  0.19106103468E+03  0.12509082300E+03 0.  0.
         23    2    1    2    0    0 -0.12597076561E+02 -0.11769502329E+02 -0.32722959203E+02  0.10118650127E+03  0.94184438512E+02 0.  0.
          5    1    3    3  502    0 -0.36420734559E+02 -0.18863113958E+02 -0.12283948884E+03  0.12957352890E+03  0.41800000000E+01 0.  1.
         -5    1    3    3    0  502  0.49017811120E+02  0.30632616287E+02 -0.20545996654E+02  0.61487505772E+02  0.41800000000E+01 0.  1.
        -11    1    4    4    0    0 -0.29325575772E+02 -0.23753510956E+02 -0.57624512220E+02  0.68882531063E+02  0.00000000000E+00 0. -1.
         11    1    4    4    0    0  0.16728499211E+02  0.11984008627E+02  0.24901553017E+02  0.32303970209E+02  0.00000000000E+00 0.  1.
</event>
<event>
 8    1  0.6493926E-009  0.1153829E+03  0.7561462E-02  0.1250914E+00
         -2   -1    0    0    0  501 -0.00000000000E+00  0.00000000000E+00  0.20554999816E+02  0.20554999816E+02  0.00000000000E+00 0.  1.
          2   -1    0    0  501    0  0.00000000000E+00 -0.00000000000E+00 -0.82735779077E+03  0.82735779077E+03  0.00000000000E+00 0. -1.
         25    2    1    2    0    0  0.17560604267E+02 -0.47081677412E+02 -0.61558548934E+03  0.63017260160E+03  0.12508778500E+03 0.  0.
         23    2    1    2    0    0 -0.17560604267E+02  0.47081677412E+02 -0.19121730161E+03  0.21774018898E+03  0.91223211361E+02 0.  0.
          5    1    3    3  502    0 -0.55340511046E+01  0.39602083866E+02 -0.12113112721E+03  0.12762904508E+03  0.41800000000E+01 0.  1.
         -5    1    3    3    0  502  0.23094655371E+02 -0.86683761278E+02 -0.49445436213E+03  0.50254355653E+03  0.41800000000E+01 0.  1.
        -11    1    4    4    0    0  0.34900165542E+02  0.28643683924E+02 -0.58903907130E+02  0.74216928384E+02  0.00000000000E+00 0.  1.
         11    1    4    4    0    0 -0.52460769808E+02  0.18437993488E+02 -0.13231339448E+03  0.14352326059E+03  0.00000000000E+00 0. -1.
</event>
<event>
 8    1  0.6493926E-009  0.8378509E+02  0.7561462E-02  0.1318641E+00
         -2   -1    0    0    0  501 -0.00000000000E+00  0.00000000000E+00  0.30141345076E+03  0.30141345076E+03  0.00000000000E+00 0. -1.
          2   -1    0    0  501    0  0.00000000000E+00 -0.00000000000E+00 -0.72031043591E+02  0.72031043591E+02  0.00000000000E+00 0.  1.
         25    2    1    2    0    0 -0.20086365828E+02  0.50352814538E+02  0.18814527289E+02  0.13761644286E+03  0.12508169684E+03 0.  0.
         23    2    1    2    0    0  0.20086365828E+02 -0.50352814538E+02  0.21056787988E+03  0.23582805149E+03  0.91308103733E+02 0.  0.
          5    1    3    3  502    0 -0.55505292433E+01  0.77305617908E+02  0.51095350034E+02  0.92925637636E+02  0.41800000000E+01 0. -1.
         -5    1    3    3    0  502 -0.14535836585E+02 -0.26952803369E+02 -0.32280822745E+02  0.44690805226E+02  0.41800000000E+01 0. -1.
        -11    1    4    4    0    0  0.15852699561E+01 -0.34913294200E+02  0.20875777471E+03  0.21166308061E+03  0.00000000000E+00 0. -1.
         11    1    4    4    0    0  0.18501095872E+02 -0.15439520338E+02  0.18101051719E+01  0.24164970877E+02  0.00000000000E+00 0.  1.
</event>
<event>
 8    1  0.6493926E-009  0.1374061E+03  0.7561462E-02  0.1216862E+00
          1   -1    0    0  501    0  0.00000000000E+00  0.00000000000E+00  0.55683414429E+03  0.55683414429E+03  0.00000000000E+00 0. -1.
         -1   -1    0    0    0  501 -0.00000000000E+00 -0.00000000000E+00 -0.51124432227E+02  0.51124432227E+02  0.00000000000E+00 0.  1.
         25    2    1    2    0    0 -0.33355447010E+01  0.12018354231E+03  0.35080251089E+03  0.39136342232E+03  0.12509083493E+03 0.  0.
         23    2    1    2    0    0  0.33355447010E+01 -0.12018354231E+03  0.15490720117E+03  0.21659515419E+03  0.91989184937E+02 0.  0.
          5    1    3    3  502    0 -0.19845056361E+02  0.12868405215E+03  0.34866811835E+03  0.37221007602E+03  0.41800000000E+01 0. -1.
         -5    1    3    3    0  502  0.16509511660E+02 -0.85005098472E+01  0.21343925422E+01  0.19153346299E+02  0.41800000000E+01 0. -1.
        -11    1    4    4    0    0 -0.12135212781E+02 -0.96219956772E+02  0.16050280043E+03  0.18752784438E+03  0.00000000000E+00 0. -1.
         11    1    4    4    0    0  0.15470757482E+02 -0.23963585535E+02 -0.55955992623E+01  0.29067309814E+02  0.00000000000E+00 0.  1.
</event>
<event>
 8    1  0.6493926E-009  0.1255865E+03  0.7561462E-02  0.1234155E+00
         -2   -1    0    0    0  501 -0.00000000000E+00  0.00000000000E+00  0.26598733440E+02  0.26598733440E+02  0.00000000000E+00 0.  1.
          2   -1    0    0  501    0  0.00000000000E+00 -0.00000000000E+00 -0.76381368297E+03  0.76381368297E+03  0.00000000000E+00 0. -1.
         25    2    1    2    0    0 -0.72089596372E+02  0.41159240682E+02 -0.29253046413E+03  0.32880521507E+03  0.12509118280E+03 0.  0.
         23    2    1    2    0    0  0.72089596372E+02 -0.41159240682E+02 -0.44468448541E+03  0.46160720134E+03  0.91901707129E+02 0.  0.
          5    1    3    3  502    0  0.31800159022E+02  0.17565261051E+02 -0.37465525289E+02  0.52353858452E+02  0.41800000000E+01 0.  1.
         -5    1    3    3    0  502 -0.10388975539E+03  0.23593979631E+02 -0.25506493884E+03  0.27645135662E+03  0.41800000000E+01 0.  1.
        -11    1    4    4    0    0  0.11156309127E+02 -0.45549658225E+02 -0.87873647313E+02  0.99604279476E+02  0.00000000000E+00 0.  1.
         11    1    4    4    0    0  0.60933287245E+02  0.43904175435E+01 -0.35681083809E+03  0.36200292187E+03  0.00000000000E+00 0. -1.
</event>
<event>
 8    1  0.6493926E-009  0.8483369E+02  0.7561462E-02  0.1315868E+00
         -2   -1    0    0    0  501 -0.00000000000E+00  0.00000000000E+00  0.45620622986E+02  0.45620622986E+02  0.00000000000E+00 0.  1.
          2   -1    0    0  501    0  0.00000000000E+00 -0.00000000000E+00 -0.32957816308E+03  0.32957816308E+03  0.00000000000E+00 0. -1.
         25    2    1    2    0    0 -0.31981964501E+01  0.34342325143E+02 -0.93428935921E+02  0.15989504518E+03  0.12509130925E+03 0.  0.
         23    2    1    2    0    0  0.31981964501E+01 -0.34342325143E+02 -0.19052860417E+03  0.21530374089E+03  0.94153747000E+02 0.  0.
          5    1    3    3  502    0  0.33035965576E+02 -0.26706922295E+02 -0.75216134776E+02  0.86484530702E+02  0.41800000000E+01 0. -1.
         -5    1    3    3    0  502 -0.36234162026E+02  0.61049247438E+02 -0.18212801145E+02  0.73410514479E+02  0.41800000000E+01 0. -1.
        -11    1    4    4    0    0 -0.82768739158E+01 -0.41515964688E+02 -0.19613797196E+03  0.20065439444E+03  0.00000000000E+00 0. -1.
         11    1    4    4    0    0  0.11475070366E+02  0.71736395444E+01  0.56093677849E+01  0.14649346441E+02  0.00000000000E+00 0.  1.
</event>
<event>
 8    1  0.6493926E-009  0.8194331E+02  0.7561462E-02  0.1323625E+00
         -2   -1    0    0    0  501 -0.00000000000E+00  0.00000000000E+00  0.41396850213E+02  0.41396850213E+02  0.00000000000E+00 0.  1.
          2   -1    0    0  501    0  0.00000000000E+00 -0.00000000000E+00 -0.32615685951E+03  0.32615685951E+03  0.00000000000E+00 0. -1.
         25    2    1    2    0    0  0.13920909424E+02  0.28303092572E+02 -0.19449971558E+03  0.23339246363E+03  0.12508815271E+03 0.  0.
         23    2    1    2    0    0 -0.13920909424E+02 -0.28303092572E+02 -0.90260293720E+02  0.13416124610E+03  0.94114093332E+02 0.  0.
          5    1    3    3  502    0 -0.16937393928E+02 -0.32096807535E+02 -0.14444407983E+03  0.14899209698E+03  0.41800000000E+01 0.  1.
         -5    1    3    3    0  502  0.30858303353E+02  0.60399900107E+02 -0.50055635751E+02  0.84400366641E+02  0.41800000000E+01 0.  1.
        -11    1    4    4    0    0 -0.24616910069E+02  0.43870662787E+01 -0.96076854182E+02  0.99277391794E+02  0.00000000000E+00 0. -1.
         11    1    4    4    0    0  0.10696000644E+02 -0.32690158851E+02  0.58165604621E+01  0.34883854304E+02  0.00000000000E+00 0.  1.
</event>
<event>
 8    1  0.6493926E-009  0.1148910E+03  0.7561462E-02  0.1251771E+00
          1   -1    0    0  501    0  0.00000000000E+00  0.00000000000E+00  0.96549813544E+02  0.96549813544E+02  0.00000000000E+00 0. -1.
         -1   -1    0    0    0  501 -0.00000000000E+00 -0.00000000000E+00 -0.13733821934E+03  0.13733821934E+03  0.00000000000E+00 0.  1.
         25    2    1    2    0    0  0.35422440269E+02 -0.16283260214E+02 -0.18522934461E+02  0.13233587715E+03  0.12509912647E+03 0.  0.
         23    2    1    2    0    0 -0.35422440269E+02  0.16283260214E+02 -0.22265471332E+02  0.10155215573E+03  0.91088941600E+02 0.  0.
          5    1    3    3  502    0  0.31211807374E+02  0.52738730397E+02 -0.13404447205E+02  0.62870519390E+02  0.41800000000E+01 0. -1.
         -5    1    3    3    0  502  0.42106328950E+01 -0.69021990611E+02 -0.51184872560E+01  0.69465357762E+02  0.41800000000E+01 0. -1.
        -11    1    4    4    0    0 -0.66569159711E+02  0.10217198498E+02 -0.14966833275E+02  0.68991668106E+02  0.00000000000E+00 0.  1.
         11    1    4    4    0    0  0.31146719442E+02  0.60660617158E+01 -0.72986380572E+01  0.32560487623E+02  0.00000000000E+00 0. -1.
</event>
<event>
 8    1  0.6493926E-009  0.2055090E+03  0.7561462E-02  0.1145173E+00
          1   -1    0    0  501    0  0.00000000000E+00  0.00000000000E+00  0.39094099948E+03  0.39094099948E+03  0.00000000000E+00 0. -1.
         -1   -1    0    0    0  501 -0.00000000000E+00 -0.00000000000E+00 -0.18133318824E+03  0.18133318824E+03  0.00000000000E+00 0.  1.
         25    2    1    2    0    0 -0.23309537523E+02  0.19774146345E+03  0.25561207021E+03  0.34731883593E+03  0.12509125648E+03 0.  0.
         23    2    1    2    0    0  0.23309537523E+02 -0.19774146345E+03 -0.46004258971E+02  0.22495535179E+03  0.94039872129E+02 0.  0.
          5    1    3    3  502    0 -0.30415710729E+02  0.27815240488E+02  0.14244161971E+01  0.41452435683E+02  0.41800000000E+01 0.  1.
         -5    1    3    3    0  502  0.71061732065E+01  0.16992622296E+03  0.25418765401E+03  0.30586640024E+03  0.41800000000E+01 0.  1.
        -11    1    4    4    0    0  0.99841215140E+01 -0.13249895105E+03 -0.74715016160E+02  0.15244011399E+03  0.00000000000E+00 0.  1.
         11    1    4    4    0    0  0.13325416009E+02 -0.65242512395E+02  0.28710757190E+02  0.72515237804E+02  0.00000000000E+00 0. -1.
</event>
<event>
 8    1  0.6493926E-009  0.2531834E+03  0.7561462E-02  0.1111309E+00
          2   -1    0    0  501    0  0.00000000000E+00  0.00000000000E+00  0.30060353191E+03  0.30060353191E+03  0.00000000000E+00 0. -1.
         -2   -1    0    0    0  501 -0.00000000000E+00 -0.00000000000E+00 -0.23182783196E+03  0.23182783196E+03  0.00000000000E+00 0.  1.
         25    2    1    2    0    0  0.22463755121E+03 -0.62426811700E+02 -0.22634085978E+02  0.26555544259E+03  0.12509298545E+03 0.  0.
         23    2    1    2    0    0 -0.22463755121E+03  0.62426811700E+02  0.91409785924E+02  0.26687592127E+03  0.92238127468E+02 0.  0.
          5    1    3    3  502    0  0.94002276121E+02 -0.86439570756E+02 -0.33889445016E+02  0.13218999278E+03  0.41800000000E+01 0.  1.
         -5    1    3    3    0  502  0.13063527509E+03  0.24012759056E+02  0.11255359038E+02  0.13336544981E+03  0.41800000000E+01 0.  1.
        -11    1    4    4    0    0 -0.14414702326E+03  0.49840706022E+00  0.27110723876E+02  0.14667516515E+03  0.00000000000E+00 0.  1.
         11    1    4    4    0    0 -0.80490527958E+02  0.61928404640E+02  0.64299062048E+02  0.12020075612E+03  0.00000000000E+00 0. -1.
</event>
<event>
 8    1  0.6493926E-009  0.8349524E+02  0.7561462E-02  0.1319415E+00
          2   -1    0    0  501    0  0.00000000000E+00  0.00000000000E+00  0.16829347613E+03  0.16829347613E+03  0.00000000000E+00 0. -1.
         -2   -1    0    0    0  501 -0.00000000000E+00 -0.00000000000E+00 -0.94470299124E+02  0.94470299124E+02  0.00000000000E+00 0.  1.
         25    2    1    2    0    0  0.63137685819E+02 -0.13902524711E+02  0.19752979969E+02  0.14218811486E+03  0.12509049614E+03 0.  0.
         23    2    1    2    0    0 -0.63137685819E+02  0.13902524711E+02  0.54070197032E+02  0.12057566039E+03  0.86227931137E+02 0.  0.
          5    1    3    3  502    0  0.79787683776E+01 -0.16692213419E+02 -0.49791914477E+02  0.53282247334E+02  0.41800000000E+01 0. -1.
         -5    1    3    3    0  502  0.55158917442E+02  0.27896887085E+01  0.69544894446E+02  0.88905867522E+02  0.41800000000E+01 0. -1.
        -11    1    4    4    0    0 -0.61064684780E+02  0.35703491935E+02  0.65030770988E+02  0.96086608010E+02  0.00000000000E+00 0. -1.
         11    1    4    4    0    0 -0.20730010397E+01 -0.21800967224E+02 -0.10960573955E+02  0.24489052383E+02  0.00000000000E+00 0.  1.
</event>
<event>
 8    1  0.6493926E-009  0.1555033E+03  0.7561462E-02  0.1193869E+00
         -1   -1    0    0    0  501 -0.00000000000E+00  0.00000000000E+00  0.10747938886E+03  0.10747938886E+03  0.00000000000E+00 0.  1.
          1   -1    0    0  501    0  0.00000000000E+00 -0.00000000000E+00 -0.30060985800E+03  0.30060985800E+03  0.00000000000E+00 0. -1.
         25    2    1    2    0    0  0.73580748058E+02 -0.97776901386E+02 -0.19126708999E+03  0.25923834111E+03  0.12508784456E+03 0.  0.
         23    2    1    2    0    0 -0.73580748058E+02  0.97776901386E+02 -0.18633791418E+01  0.14885090575E+03  0.84727038380E+02 0.  0.
          5    1    3    3  502    0  0.86792081988E+01  0.30008231789E+02 -0.37726139150E+02  0.49158484570E+02  0.41800000000E+01 0. -1.
         -5    1    3    3    0  502  0.64901539859E+02 -0.12778513317E+03 -0.15354095084E+03  0.21007985654E+03  0.41800000000E+01 0. -1.
        -11    1    4    4    0    0 -0.57193496459E+02  0.26615875512E+02  0.29177012628E+02  0.69503949041E+02  0.00000000000E+00 0.  1.
         11    1    4    4    0    0 -0.16387251599E+02  0.71161025874E+02 -0.31040391769E+02  0.79346956713E+02  0.00000000000E+00 0. -1.
</event>
<event>
 7    1  0.9046221E-009  0.8090435E+02  0.7561462E-02  0.1326504E+00
         -2   -1    0    0    0  501 -0.00000000000E+00  0.00000000000E+00  0.10807220938E+02  0.10807220938E+02  0.00000000000E+00 0. -1.
          2   -1    0    0  501    0  0.00000000000E+00 -0.00000000000E+00 -0.78372620402E+03  0.78372620402E+03  0.00000000000E+00 0.  1.
         25    2    1    2    0    0 -0.19295262167E+02  0.21606524610E+02 -0.67065603498E+03  0.68283622472E+03  0.12508654397E+03 0.  0.
          5    1    3    3  502    0 -0.42415114187E+02  0.63953003526E+02 -0.48066802619E+03  0.48677330696E+03  0.41800000000E+01 0.  1.
         -5    1    3    3    0  502  0.23119852020E+02 -0.42346478916E+02 -0.18998800880E+03  0.19606291776E+03  0.41800000000E+01 0.  1.
        -11    1    1    2    0    0  0.13090180185E+02  0.95808245147E+00 -0.73277721686E+02  0.74443906633E+02  0.00000000000E+00 0. -1.
         11    1    1    2    0    0  0.62050819819E+01 -0.22564607061E+02 -0.28985226415E+02  0.37253293607E+02  0.00000000000E+00 0.  1.
</event>
<event>
 8    1  0.6493926E-009  0.1679242E+03  0.7561462E-02  0.1180030E+00
          1   -1    0    0  501    0  0.00000000000E+00  0.00000000000E+00  0.10314557482E+03  0.10314557482E+03  0.00000000000E+00 0. -1.
         -1   -1    0    0    0  501 -0.00000000000E+00 -0.00000000000E+00 -0.40742877607E+03  0.40742877607E+03  0.00000000000E+00 0.  1.
         25    2    1    2    0    0  0.39277032227E+01  0.15885619712E+03 -0.71288277926E+02  0.21442830746E+03  0.12508701872E+03 0.  0.
         23    2    1    2    0    0 -0.39277032227E+01 -0.15885619712E+03 -0.23299492333E+03  0.29614604344E+03  0.90361089690E+02 0.  0.
          5    1    3    3  502    0  0.22431147015E+02  0.78526540635E+02  0.26966199426E+02  0.86105878150E+02  0.41800000000E+01 0.  1.
         -5    1    3    3    0  502 -0.18503443792E+02  0.80329656485E+02 -0.98254477352E+02  0.12832242931E+03  0.41800000000E+01 0.  1.
        -11    1    4    4    0    0 -0.14349455187E+02 -0.16036387894E+03 -0.23554282422E+03  0.28531193907E+03  0.00000000000E+00 0.  1.
         11    1    4    4    0    0  0.10421751964E+02  0.15076818209E+01  0.25479008930E+01  0.10834104367E+02  0.00000000000E+00 0. -1.
</event>
<event>
 8    1  0.6493926E-009  0.7733949E+02  0.7561462E-02  0.1336776E+00
         -2   -1    0    0    0  501 -0.00000000000E+00  0.00000000000E+00  0.61036395459E+02  0.61036395459E+02  0.00000000000E+00 0.  1.
          2   -1    0    0  501    0  0.00000000000E+00 -0.00000000000E+00 -0.21259477639E+03  0.21259477639E+03  0.00000000000E+00 0. -1.
         25    2    1    2    0    0 -0.94618111263E+01  0.31909138793E+02 -0.81450029670E+02  0.15293518381E+03  0.12508934449E+03 0.  0.
         23    2    1    2    0    0  0.94618111263E+01 -0.31909138793E+02 -0.70108351258E+02  0.12069598804E+03  0.92437122432E+02 0.  0.
          5    1    3    3  502    0  0.15494610292E+02 -0.11225918822E+02  0.27090126712E+02  0.33428304874E+02  0.41800000000E+01 0. -1.
         -5    1    3    3    0  502 -0.24956421419E+02  0.43135057615E+02 -0.10854015638E+03  0.11950687894E+03  0.41800000000E+01 0. -1.
        -11    1    4    4    0    0  0.43781956631E+02 -0.11953388958E+02 -0.66879508013E+01  0.45874523648E+02  0.00000000000E+00 0. -1.
         11    1    4    4    0    0 -0.34320145505E+02 -0.19955749835E+02 -0.63420400457E+02  0.74821464387E+02  0.00000000000E+00 0.  1.
</event>
<event>
 8    1  0.6493926E-009  0.1126333E+03  0.7561462E-02  0.1255770E+00
         -4   -1    0    0    0  501 -0.00000000000E+00  0.00000000000E+00  0.49600797353E+03  0.49600797353E+03  0.00000000000E+00 0.  1.
          4   -1    0    0  501    0  0.00000000000E+00 -0.00000000000E+00 -0.29444465619E+02  0.29444465619E+02  0.00000000000E+00 0. -1.
         25    2    1    2    0    0 -0.40204768997E+02  0.19904510793E+02  0.32644481881E+03  0.35245846037E+03  0.12509250000E+03 0.  0.
         23    2    1    2    0    0  0.40204768997E+02 -0.19904510793E+02  0.14011868909E+03  0.17299397878E+03  0.91000311314E+02 0.  0.
          5    1    3    3  502    0 -0.43910505498E+02  0.69854463394E+02  0.20019504511E+03  0.21657171338E+03  0.41800000000E+01 0.  1.
         -5    1    3    3    0  502  0.37057365012E+01 -0.49949952601E+02  0.12624977370E+03  0.13588674699E+03  0.41800000000E+01 0.  1.
        -11    1    4    4    0    0  0.43641871497E+02  0.23011314346E+02  0.38336215932E+02  0.62480388825E+02  0.00000000000E+00 0. -1.
         11    1    4    4    0    0 -0.34371025003E+01 -0.42915825139E+02  0.10178247316E+03  0.11051358995E+03  0.00000000000E+00 0.  1.
</event>
<event>
 7    1  0.6493926E-009  0.8453302E+02  0.7561462E-02  0.1316658E+00
         -1   -1    0    0    0  501 -0.00000000000E+00  0.00000000000E+00  0.30420589522E+02  0.30420589522E+02  0.00000000000E+00 0.  1.
          1   -1    0    0  501    0  0.00000000000E+00 -0.00000000000E+00 -0.40367103774E+03  0.40367103774E+03  0.00000000000E+00 0. -1.
         23    2    1    2    0    0  0.12991101924E+02  0.14434414723E+01 -0.20119563968E+03  0.22090832975E+03  0.90277087194E+02 0.  0.
          5    1    1    2  502    0 -0.18720719243E+01 -0.54662083170E+02 -0.33474080327E+02  0.64260675716E+02  0.41800000000E+01 0. -1.
         -5    1    1    2    0  502 -0.11119030000E+02  0.53218641698E+02 -0.13858072821E+03  0.14892262180E+03  0.41800000000E+01 0. -1.
        -11    1    3    3    0    0 -0.69511634630E+01  0.26650696925E+02 -0.13855758051E+02  0.30831158773E+02  0.00000000000E+00 0.  1.
         11    1    3    3    0    0  0.19942265387E+02 -0.25207255453E+02 -0.18733988163E+03  0.19007717097E+03  0.00000000000E+00 0. -1.
</event>
<event>
 8    1  0.6493926E-009  0.1438879E+03  0.7561462E-02  0.1208191E+00
         -2   -1    0    0    0  501 -0.00000000000E+00  0.00000000000E+00  0.31599935634E+03  0.31599935634E+03  0.00000000000E+00 0.  1.
          2   -1    0    0  501    0  0.00000000000E+00 -0.00000000000E+00 -0.68623411384E+02  0.68623411384E+02  0.00000000000E+00 0. -1.
         25    2    1    2    0    0 -0.38270687490E+02 -0.90295661601E+02  0.15716181738E+03  0.22352987951E+03  0.12509123937E+03 0.  0.
         23    2    1    2    0    0  0.38270687490E+02  0.90295661601E+02  0.90214127580E+02  0.16109288822E+03  0.90522802622E+02 0.  0.
          5    1    3    3  502    0 -0.77208091711E+02 -0.22969494201E+02  0.71984477532E+02  0.10811070481E+03  0.41800000000E+01 0. -1.
         -5    1    3    3    0  502  0.38937404221E+02 -0.67326167401E+02  0.85177339849E+02  0.11541917470E+03  0.41800000000E+01 0. -1.
        -11    1    4    4    0    0 -0.22313722157E+02  0.54422689097E+02  0.61368095180E+02  0.85004555120E+02  0.00000000000E+00 0.  1.
         11    1    4    4    0    0  0.60584409647E+02  0.35872972504E+02  0.28846032399E+02  0.76088333098E+02  0.00000000000E+00 0. -1.
</event>
<event>
 8    1  0.6493926E-009  0.1067153E+03  0.7561462E-02  0.1266776E+00
         -2   -1    0    0    0  501 -0.00000000000E+00  0.00000000000E+00  0.90843697031E+02  0.90843697031E+02  0.00000000000E+00 0.  1.
          2   -1    0    0  501    0  0.00000000000E+00 -0.00000000000E+00 -0.16467628397E+03  0.16467628397E+03  0.00000000000E+00 0. -1.
         25    2    1    2    0    0 -0.41925875146E+02  0.21907260590E+02 -0.72123884714E+02  0.15193725203E+03  0.12508144040E+03 0.  0.
         23    2    1    2    0    0  0.41925875146E+02 -0.21907260590E+02 -0.17087022235E+01  0.10358272897E+03  0.92134439841E+02 0.  0.
          5    1    3    3  502    0 -0.22225631304E+02  0.71168917590E+02 -0.19691810481E+02  0.77228448889E+02  0.41800000000E+01 0. -1.
         -5    1    3    3    0  502 -0.19700243842E+02 -0.49261657000E+02 -0.52432074233E+02  0.74708803137E+02  0.41800000000E+01 0. -1.
        -11    1    4    4    0    0  0.51813631471E+02 -0.39636394789E+02 -0.27470755670E+02  0.70783745416E+02  0.00000000000E+00 0. -1.
         11    1    4    4    0    0 -0.98877563243E+01  0.17729134198E+02  0.25762053447E+02  0.32798983557E+02  0.00000000000E+00 0.  1.
</event>
<event>
 8    1  0.6493926E-009  0.1423355E+03  0.7561462E-02  0.1210221E+00
         -1   -1    0    0    0  501 -0.00000000000E+00  0.00000000000E+00  0.34893138320E+03  0.34893138320E+03  0.00000000000E+00 0.  1.
          1   -1    0    0  501    0  0.00000000000E+00 -0.00000000000E+00 -0.70245633085E+02  0.70245633085E+02  0.00000000000E+00 0. -1.
         25    2    1    2    0    0  0.10861991909E+03  0.21740289975E+02  0.17498717901E+03  0.24194478793E+03  0.12508333446E+03 0.  0.
         23    2    1    2    0    0 -0.10861991909E+03 -0.21740289975E+02  0.10369857111E+03  0.17723222836E+03  0.91580249442E+02 0.  0.
          5    1    3    3  502    0 -0.71057295473E+01  0.28523424671E+02  0.98795340823E+02  0.10316040382E+03  0.41800000000E+01 0.  1.
         -5    1    3    3    0  502  0.11572564863E+03 -0.67831346957E+01  0.76191838189E+02  0.13878438412E+03  0.41800000000E+01 0.  1.
        -11    1    4    4    0    0 -0.12168280489E+03 -0.11203217364E+02  0.73265556141E+02  0.14247827484E+03  0.00000000000E+00 0.  1.
         11    1    4    4    0    0  0.13062885806E+02 -0.10537072611E+02  0.30433014966E+02  0.34753953512E+02  0.00000000000E+00 0. -1.
</event>
<event>
 8    1  0.6493926E-009  0.1335586E+03  0.7561462E-02  0.1222269E+00
          1   -1    0    0  501    0  0.00000000000E+00  0.00000000000E+00  0.60902219144E+03  0.60902219144E+03  0.00000000000E+00 0. -1.
         -1   -1    0    0    0  501 -0.00000000000E+00 -0.00000000000E+00 -0.39515489474E+02  0.39515489474E+02  0.00000000000E+00 0.  1.
         25    2    1    2    0    0  0.10399815718E+03 -0.30399776715E+02  0.20701380125E+03  0.26501945590E+03  0.12506332385E+03 0.  0.
         23    2    1    2    0    0 -0.10399815718E+03  0.30399776715E+02  0.36249290072E+03  0.38351822502E+03  0.62812122497E+02 0.  0.
          5    1    3    3  502    0  0.20823942773E+02 -0.56906712952E+02  0.30308398085E+02  0.67882854729E+02  0.41800000000E+01 0.  1.
         -5    1    3    3    0  502  0.83174214407E+02  0.26506936237E+02  0.17670540317E+03  0.19713660117E+03  0.41800000000E+01 0.  1.
        -11    1    4    4    0    0 -0.43745392766E+02  0.38387735889E+02  0.11784518550E+03  0.13143350182E+03  0.00000000000E+00 0.  1.
         11    1    4    4    0    0 -0.60252764414E+02 -0.79879591734E+01  0.24464771522E+03  0.25208472320E+03  0.00000000000E+00 0. -1.
</event>
<event>
 8    1  0.6493926E-009  0.1181494E+03  0.7561462E-02  0.1246182E+00
          2   -1    0    0  501    0  0.00000000000E+00  0.00000000000E+00  0.32296835505E+03  0.32296835505E+03  0.00000000000E+00 0. -1.
         -2   -1    0    0    0  501 -0.00000000000E+00 -0.00000000000E+00 -0.67304128120E+02  0.67304128120E+02  0.00000000000E+00 0.  1.
         25    2    1    2    0    0  0.36719514086E+01  0.98695758359E+02  0.13958152630E+03  0.21186424514E+03  0.12509644256E+03 0.  0.
         23    2    1    2    0    0 -0.36719514086E+01 -0.98695758359E+02  0.11608270063E+03  0.17840823802E+03  0.92736023557E+02 0.  0.
          5    1    3    3  502    0  0.34592736389E+02  0.83094750077E+02  0.15041283635E+03  0.17533650116E+03  0.41800000000E+01 0.  1.
         -5    1    3    3    0  502 -0.30920784981E+02  0.15601008282E+02 -0.10831310045E+02  0.36527743983E+02  0.41800000000E+01 0.  1.
        -11    1    4    4    0    0 -0.27164908214E+02 -0.62618125652E+02  0.16948857604E+02  0.70329408305E+02  0.00000000000E+00 0. -1.
         11    1    4    4    0    0  0.23492956806E+02 -0.36077632707E+02  0.99133843021E+02  0.10807882972E+03  0.00000000000E+00 0.  1.
</event>
<event>
 8    1  0.6493926E-009  0.1593037E+03  0.7561462E-02  0.1189485E+00
         -2   -1    0    0    0  501 -0.00000000000E+00  0.00000000000E+00  0.41200762300E+02  0.41200762300E+02  0.00000000000E+00 0.  1.
          2   -1    0    0  501    0  0.00000000000E+00 -0.00000000000E+00 -0.77533145367E+03  0.77533145367E+03  0.00000000000E+00 0. -1.
         25    2    1    2    0    0 -0.48958651469E+02 -0.12620636791E+03 -0.29101058795E+03  0.34446971237E+03  0.12508886275E+03 0.  0.
         23    2    1    2    0    0  0.48958651469E+02  0.12620636791E+03 -0.44312010342E+03  0.47206250360E+03  0.90347022075E+02 0.  0.
          5    1    3    3  502    0 -0.65195651830E+02 -0.14425309924E+03 -0.26450189747E+03  0.30828259086E+03  0.41800000000E+01 0.  1.
         -5    1    3    3    0  502  0.16237000361E+02  0.18046731331E+02 -0.26508690477E+02  0.36187121511E+02  0.41800000000E+01 0.  1.
        -11    1    4    4    0    0  0.15530173091E+02  0.51094755064E+02 -0.31730345199E+03  0.32176597228E+03  0.00000000000E+00 0. -1.
         11    1    4    4    0    0  0.33428478378E+02  0.75111612846E+02 -0.12581665143E+03  0.15029653132E+03  0.00000000000E+00 0.  1.
</event>
<event>
 8    1  0.6493926E-009  0.1559604E+03  0.7561462E-02  0.1193334E+00
          1   -1    0    0  501    0  0.00000000000E+00  0.00000000000E+00  0.40962644195E+03  0.40962644195E+03  0.00000000000E+00 0. -1.
         -1   -1    0    0    0  501 -0.00000000000E+00 -0.00000000000E+00 -0.89539439821E+02  0.89539439821E+02  0.00000000000E+00 0.  1.
         25    2    1    2    0    0 -0.11601266747E+03 -0.60990625675E+02  0.54631115087E+02  0.18923782959E+03  0.12509037525E+03 0.  0.
         23    2    1    2    0    0  0.11601266747E+03  0.60990625675E+02  0.26545588704E+03  0.30992805218E+03  0.91704820652E+02 0.  0.
          5    1    3    3  502    0  0.24619190600E+02  0.45728901107E+01  0.13049649477E+02  0.28544379854E+02  0.41800000000E+01 0. -1.
         -5    1    3    3    0  502 -0.14063185807E+03 -0.65563515786E+02  0.41581465610E+02  0.16069344974E+03  0.41800000000E+01 0. -1.
        -11    1    4    4    0    0  0.55288659872E+02  0.24544094936E+02  0.37379525037E+02  0.71108912231E+02  0.00000000000E+00 0.  1.
         11    1    4    4    0    0  0.60724007596E+02  0.36446530740E+02  0.22807636201E+03  0.23881913995E+03  0.00000000000E+00 0. -1.
</event>
<event>
 8    1  0.6493926E-009  0.9569154E+02  0.7561462E-02  0.1289626E+00
          1   -1    0    0  501    0  0.00000000000E+00  0.00000000000E+00  0.11984318670E+03  0.11984318670E+03  0.00000000000E+00 0. -1.
         -1   -1    0    0    0  501 -0.00000000000E+00 -0.00000000000E+00 -0.15129545801E+03  0.15129545801E+03  0.00000000000E+00 0.  1.
         25    2    1    2    0    0  0.57429729846E+02  0.52784677396E+02 -0.31080001821E+02  0.15066382468E+03  0.12509686454E+03 0.  0.
         23    2    1    2    0    0 -0.57429729846E+02 -0.52784677396E+02 -0.37226948201E+00  0.12047482003E+03  0.91813112559E+02 0.  0.
          5    1    3    3  502    0  0.50645216955E+02  0.65993451630E+02  0.29337799252E+02  0.88307714971E+02  0.41800000000E+01 0. -1.
         -5    1    3    3    0  502  0.67845128907E+01 -0.13208774234E+02 -0.60417801074E+02  0.62356109713E+02  0.41800000000E+01 0. -1.
        -11    1    4    4    0    0 -0.19443699589E+02 -0.51063127133E+02  0.37920912593E+02  0.66509367898E+02  0.00000000000E+00 0. -1.
         11    1    4    4    0    0 -0.37986030257E+02 -0.17215502629E+01 -0.38293182075E+02  0.53965452128E+02  0.00000000000E+00 0.  1.
</event>
<event>
 8    1  0.6493926E-009  0.1016348E+03  0.7561462E-02  0.1276895E+00
         -2   -1    0    0    0  501 -0.00000000000E+00  0.00000000000E+00  0.33015373997E+02  0.33015373997E+02  0.00000000000E+00 0.  1.
          2   -1    0    0  501    0  0.00000000000E+00 -0.00000000000E+00 -0.37845458780E+03  0.37845458780E+03  0.00000000000E+00 0. -1.
         25    2    1    2    0    0 -0.28066078199E+02  0.24222928638E+02 -0.21819769830E+03  0.25422820412E+03  0.12508912506E+03 0.  0.
         23    2    1    2    0    0  0.28066078199E+02 -0.24222928638E+02 -0.12724151550E+03  0.15724175768E+03  0.84617445444E+02 0.  0.
          5    1    3    3  502    0 -0.73691917051E+02  0.86494570737E+01 -0.87161960737E+02  0.11454253160E+03  0.41800000000E+01 0. -1.
         -5    1    3    3    0  502  0.45625838851E+02  0.15573471564E+02 -0.13103573756E+03  0.13968567251E+03  0.41800000000E+01 0. -1.
        -11    1    4    4    0    0  0.47807640022E+02  0.18687887120E+01 -0.34745920994E+02  0.59129872666E+02  0.00000000000E+00 0.  1.
         11    1    4    4    0    0 -0.19741561823E+02 -0.26091717350E+02 -0.92495594506E+02  0.98111885011E+02  0.00000000000E+00 0. -1.
</event>
<event>
 8    1  0.6493926E-009  0.8799088E+02  0.7561462E-02  0.1307791E+00
         -2   -1    0    0    0  501 -0.00000000000E+00  0.00000000000E+00  0.31730523903E+03  0.31730523903E+03  0.00000000000E+00 0.  1.
          2   -1    0    0  501    0  0.00000000000E+00 -0.00000000000E+00 -0.41596723281E+02  0.41596723281E+02  0.00000000000E+00 0. -1.
         25    2    1    2    0    0  0.24474581260E+01 -0.28765632920E+02  0.19410257107E+03  0.23271087990E+03  0.12508034953E+03 0.  0.
         23    2    1    2    0    0 -0.24474581260E+01  0.28765632920E+02  0.81605944677E+02  0.12619108241E+03  0.91821606310E+02 0.  0.
          5    1    3    3  502    0 -0.21082449345E+02  0.33156829831E+02  0.14462236267E+03  0.14992313103E+03  0.41800000000E+01 0.  1.
         -5    1    3    3    0  502  0.23529907471E+02 -0.61922462751E+02  0.49480208406E+02  0.82787748868E+02  0.41800000000E+01 0.  1.
        -11    1    4    4    0    0 -0.32455112542E+02  0.22355651829E+02  0.86559985978E+02  0.95109098783E+02  0.00000000000E+00 0.  1.
         11    1    4    4    0    0  0.30007654416E+02  0.64099810904E+01 -0.49540413018E+01  0.31081983629E+02  0.00000000000E+00 0. -1.
</event>
<event>
 8    1  0.6493926E-009  0.1686299E+03  0.7561462E-02  0.1179284E+00
         -2   -1    0    0    0  501 -0.00000000000E+00  0.00000000000E+00  0.35222145644E+02  0.35222145644E+02  0.00000000000E+00 0.  1.
          2   -1    0    0  501    0  0.00000000000E+00 -0.00000000000E+00 -0.99688105772E+03  0.99688105772E+03  0.00000000000E+00 0. -1.
         25    2    1    2    0    0  0.26358035404E+02 -0.13458890825E+03 -0.33225375938E+03  0.38058942782E+03  0.12508729627E+03 0.  0.
         23    2    1    2    0    0 -0.26358035404E+02  0.13458890825E+03 -0.62940515270E+03  0.65151377555E+03  0.97521450133E+02 0.  0.
          5    1    3    3  502    0  0.73627301654E+02 -0.93168214200E+02 -0.17848081863E+03  0.21441588259E+03  0.41800000000E+01 0. -1.
         -5    1    3    3    0  502 -0.47269266250E+02 -0.41420694048E+02 -0.15377294075E+03  0.16617354523E+03  0.41800000000E+01 0. -1.
        -11    1    4    4    0    0 -0.51151031561E+02  0.73751723236E+02 -0.23276694195E+03  0.24947183002E+03  0.00000000000E+00 0.  1.
         11    1    4    4    0    0  0.24792996157E+02  0.60837185012E+02 -0.39663821075E+03  0.40204194553E+03  0.00000000000E+00 0. -1.
</event>
<event>
 8    1  0.6493926E-009  0.1026168E+03  0.7561462E-02  0.1274888E+00
          1   -1    0    0  501    0  0.00000000000E+00  0.00000000000E+00  0.75959954397E+03  0.75959954397E+03  0.00000000000E+00 0. -1.
         -1   -1    0    0    0  501 -0.00000000000E+00 -0.00000000000E+00 -0.25919841411E+02  0.25919841411E+02  0.00000000000E+00 0.  1.
         25    2    1    2    0    0  0.29345242404E+01 -0.22486820284E+02  0.62494001168E+03  0.63773914890E+03  0.12508771049E+03 0.  0.
         23    2    1    2    0    0 -0.29345242404E+01  0.22486820284E+02  0.10873969088E+03  0.14778023649E+03  0.97470043627E+02 0.  0.
          5    1    3    3  502    0  0.57925850388E+02 -0.36444541805E+02  0.28943941519E+03  0.29744958604E+03  0.41800000000E+01 0.  1.
         -5    1    3    3    0  502 -0.54991326147E+02  0.13957721521E+02  0.33550059649E+03  0.34028956285E+03  0.41800000000E+01 0.  1.
        -11    1    4    4    0    0 -0.17492347089E+02 -0.24774579132E+02  0.89870875370E+02  0.94850072312E+02  0.00000000000E+00 0. -1.
         11    1    4    4    0    0  0.14557822849E+02  0.47261399416E+02  0.18868815508E+02  0.52930164174E+02  0.00000000000E+00 0.  1.
</event>
<event>
 8    1  0.6493926E-009  0.9122869E+02  0.7561462E-02  0.1299903E+00
         -2   -1    0    0    0  501 -0.00000000000E+00  0.00000000000E+00  0.33970921282E+02  0.33970921282E+02  0.00000000000E+00 0.  1.
          2   -1    0    0  501    0  0.00000000000E+00 -0.00000000000E+00 -0.38408180672E+03  0.38408180672E+03  0.00000000000E+00 0. -1.
         25    2    1    2    0    0  0.52036335639E+01  0.87861642592E+01 -0.29003300725E+03  0.31602338757E+03  0.12508941487E+03 0.  0.
         23    2    1    2    0    0 -0.52036335639E+01 -0.87861642592E+01 -0.60077878193E+02  0.10202934044E+03  0.81831292163E+02 0.  0.
          5    1    3    3  502    0 -0.82567856914E+00 -0.57895885669E+02 -0.12254059226E+03  0.13559603414E+03  0.41800000000E+01 0.  1.
         -5    1    3    3    0  502  0.60293121331E+01  0.66682049928E+02 -0.16749241499E+03  0.18042735343E+03  0.41800000000E+01 0.  1.
        -11    1    4    4    0    0 -0.16901756440E+02  0.20037192910E+02  0.78113859414E+01  0.27352810107E+02  0.00000000000E+00 0.  1.
         11    1    4    4    0    0  0.11698122876E+02 -0.28823357169E+02 -0.67889264135E+02  0.74676530330E+02  0.00000000000E+00 0. -1.
</event>
<event>
 8    1  0.6493926E-009  0.1626662E+03  0.7561462E-02  0.1185719E+00
          1   -1    0    0  501    0  0.00000000000E+00  0.00000000000E+00  0.12076162774E+04  0.12076162774E+04  0.00000000000E+00 0. -1.
         -1   -1    0    0    0  501 -0.00000000000E+00 -0.00000000000E+00 -0.41942958911E+02  0.41942958911E+02  0.00000000000E+00 0.  1.
         25    2    1    2    0    0 -0.24962341936E+02 -0.13506066575E+03  0.99864656773E+03  0.10157788287E+04  0.12508860744E+03 0.  0.
         23    2    1    2    0    0  0.24962341936E+02  0.13506066575E+03  0.16702675077E+03  0.23378040759E+03  0.88830408933E+02 0.  0.
          5    1    3    3  502    0  0.50947297461E+02 -0.47434558780E+02  0.38350684938E+03  0.38979563928E+03  0.41800000000E+01 0. -1.
         -5    1    3    3    0  502 -0.75909639398E+02 -0.87626106974E+02  0.61513971835E+03  0.62598318945E+03  0.41800000000E+01 0. -1.
        -11    1    4    4    0    0  0.77014849558E+01  0.71228835255E+01 -0.10125378790E+02  0.14579836621E+02  0.00000000000E+00 0.  1.
         11    1    4    4    0    0  0.17260856981E+02  0.12793778223E+03  0.17715212956E+03  0.21920057097E+03  0.00000000000E+00 0. -1.
</event>
<event>
 8    1  0.6493926E-009  0.2240968E+03  0.7561462E-02  0.1130865E+00
         -3   -1    0    0    0  501 -0.00000000000E+00  0.00000000000E+00  0.39211555810E+03  0.39211555810E+03  0.00000000000E+00 0.  1.
          3   -1    0    0  501    0  0.00000000000E+00 -0.00000000000E+00 -0.13373621876E+03  0.13373621876E+03  0.00000000000E+00 0. -1.
         25    2    1    2    0    0  0.19151778327E+03 -0.57964096606E+02  0.10769636415E+03  0.25939394470E+03  0.12509122229E+03 0.  0.
         23    2    1    2    0    0 -0.19151778327E+03  0.57964096606E+02  0.15068297519E+03  0.26645783216E+03  0.90859889409E+02 0.  0.
          5    1    3    3  502    0  0.13850306668E+02  0.32783438237E+02  0.99221384017E+01  0.37182066214E+02  0.41800000000E+01 0.  1.
         -5    1    3    3    0  502  0.17766747660E+03 -0.90747534844E+02  0.97774225751E+02  0.22221187849E+03  0.41800000000E+01 0.  1.
        -11    1    4    4    0    0 -0.73288590209E+02  0.59771032121E+02  0.34446306943E+02  0.10064959909E+03  0.00000000000E+00 0. -1.
         11    1    4    4    0    0 -0.11822919306E+03 -0.18069355143E+01  0.11623666824E+03  0.16580823306E+03  0.00000000000E+00 0.  1.
</event>
<event>
 8    1  0.6493926E-009  0.1506058E+03  0.7561462E-02  0.1199731E+00
          1   -1    0    0  501    0  0.00000000000E+00  0.00000000000E+00  0.10055970271E+04  0.10055970271E+04  0.00000000000E+00 0. -1.
         -1   -1    0    0    0  501 -0.00000000000E+00 -0.00000000000E+00 -0.39339390579E+02  0.39339390579E+02  0.00000000000E+00 0.  1.
         25    2    1    2    0    0  0.10183432944E+03  0.50367024596E+02  0.84006500295E+03  0.85689198654E+03  0.12509036570E+03 0.  0.
         23    2    1    2    0    0 -0.10183432944E+03 -0.50367024596E+02  0.12619263360E+03  0.18804443117E+03  0.80802595871E+02 0.  0.
          5    1    3    3  502    0  0.55474965459E+02  0.91157595949E+02  0.55594043458E+03  0.56610460014E+03  0.41800000000E+01 0.  1.
         -5    1    3    3    0  502  0.46359363982E+02 -0.40790571353E+02  0.28412456837E+03  0.29078738640E+03  0.41800000000E+01 0.  1.
        -11    1    4    4    0    0 -0.93931816060E+02 -0.13588305193E+02  0.61139230346E+02  0.11289744724E+03  0.00000000000E+00 0.  1.
         11    1    4    4    0    0 -0.79025133818E+01 -0.36778719403E+02  0.65053403250E+02  0.75146983926E+02  0.00000000000E+00 0. -1.
</event>
<event>
 8    1  0.6493926E-009  0.1071881E+03  0.7561462E-02  0.1265868E+00
          2   -1    0    0  501    0  0.00000000000E+00  0.00000000000E+00  0.65648202175E+03  0.65648202175E+03  0.00000000000E+00 0. -1.
         -2   -1    0    0    0  501 -0.00000000000E+00 -0.00000000000E+00 -0.19148796476E+02  0.19148796476E+02  0.00000000000E+00 0.  1.
         25    2    1    2    0    0  0.43717818350E+01 -0.28713023250E+02  0.39078621705E+03  0.41134383821E+03  0.12508531336E+03 0.  0.
         23    2    1    2    0    0 -0.43717818350E+01  0.28713023250E+02  0.24654700823E+03  0.26428698001E+03  0.90656661970E+02 0.  0.
          5    1    3    3  502    0  0.45441419909E+02 -0.58220552178E+02  0.27790673821E+03  0.28758334945E+03  0.41800000000E+01 0.  1.
         -5    1    3    3    0  502 -0.41069638074E+02  0.29507528929E+02  0.11287947883E+03  0.12376048876E+03  0.41800000000E+01 0.  1.
        -11    1    4    4    0    0 -0.41101347774E+02  0.32960852843E+02  0.98638721556E+02  0.11182725964E+03  0.00000000000E+00 0.  1.
         11    1    4    4    0    0  0.36729565939E+02 -0.42478295935E+01  0.14790828667E+03  0.15245972037E+03  0.00000000000E+00 0. -1.
</event>
<event>
 8    1  0.6493926E-009  0.9572141E+02  0.7561462E-02  0.1289560E+00
          1   -1    0    0  501    0  0.00000000000E+00  0.00000000000E+00  0.33314309478E+03  0.33314309478E+03  0.00000000000E+00 0. -1.
         -1   -1    0    0    0  501 -0.00000000000E+00 -0.00000000000E+00 -0.55255894474E+02  0.55255894474E+02  0.00000000000E+00 0.  1.
         25    2    1    2    0    0 -0.69679984978E+02  0.22827587427E+02  0.10247745740E+03  0.17756069559E+03  0.12509904992E+03 0.  0.
         23    2    1    2    0    0  0.69679984978E+02 -0.22827587427E+02  0.17540974291E+03  0.21083829366E+03  0.91147183783E+02 0.  0.
          5    1    3    3  502    0 -0.26392928267E+02  0.27509449289E+02 -0.22971727043E+02  0.44704911431E+02  0.41800000000E+01 0. -1.
         -5    1    3    3    0  502 -0.43287056710E+02 -0.46818618623E+01  0.12544918444E+03  0.13285578416E+03  0.41800000000E+01 0. -1.
        -11    1    4    4    0    0  0.23715312317E+02 -0.50435700969E+02  0.51748968621E+02  0.76053479367E+02  0.00000000000E+00 0.  1.
         11    1    4    4    0    0  0.45964672660E+02  0.27608113542E+02  0.12366077429E+03  0.13478481429E+03  0.00000000000E+00 0. -1.
</event>
<event>
 8    1  0.6493926E-009  0.7279115E+02  0.7561462E-02  0.1350851E+00
         -1   -1    0    0    0  501 -0.00000000000E+00  0.00000000000E+00  0.14600729952E+03  0.14600729952E+03  0.00000000000E+00 0.  1.
          1   -1    0    0  501    0  0.00000000000E+00 -0.00000000000E+00 -0.84068191644E+02  0.84068191644E+02  0.00000000000E+00 0. -1.
         25    2    1    2    0    0 -0.16144234990E+02  0.18001976453E+01  0.39709046613E+02  0.13224306393E+03  0.12509013766E+03 0.  0.
         23    2    1    2    0    0  0.16144234990E+02 -0.18001976453E+01  0.22230061259E+02  0.97832427227E+02  0.93878278417E+02 0.  0.
          5    1    3    3  502    0 -0.10144076960E+02  0.32951432076E+02  0.76181110087E+02  0.83724148890E+02  0.41800000000E+01 0. -1.
         -5    1    3    3    0  502 -0.60001580303E+01 -0.31151234431E+02 -0.36472063474E+02  0.48518915044E+02  0.41800000000E+01 0. -1.
        -11    1    4    4    0    0 -0.27712353663E+02  0.15448764666E+02  0.36720098185E+02  0.48528388454E+02  0.00000000000E+00 0.  1.
         11    1    4    4    0    0  0.43856588654E+02 -0.17248962311E+02 -0.14490036926E+02  0.49304038772E+02  0.00000000000E+00 0. -1.
</event>
<event>
 7    1  0.6493926E-009  0.9672376E+02  0.7561462E-02  0.1287340E+00
         -1   -1    0    0    0  501 -0.00000000000E+00  0.00000000000E+00  0.24603322410E+02  0.24603322410E+02  0.00000000000E+00 0.  1.
          1   -1    0    0  501    0  0.00000000000E+00 -0.00000000000E+00 -0.43309950751E+03  0.43309950751E+03  0.00000000000E+00 0. -1.
         25    2    1    2    0    0 -0.42374853620E+02 -0.31092492690E+02 -0.23190813552E+03  0.26868162420E+03  0.12508421380E+03 0.  0.
          5    1    3    3  502    0 -0.79357460415E+02 -0.43567000514E+02 -0.12202300408E+03  0.15199597357E+03  0.41800000000E+01 0. -1.
         -5    1    3    3    0  502  0.36982606795E+02  0.12474507823E+02 -0.10988513145E+03  0.11668565063E+03  0.41800000000E+01 0. -1.
        -11    1    1    2    0    0 -0.28807178970E+01  0.15402780862E+02 -0.20837528630E+02  0.26071954152E+02  0.00000000000E+00 0.  1.
         11    1    1    2    0    0  0.45255571517E+02  0.15689711828E+02 -0.15575052095E+03  0.16294925157E+03  0.00000000000E+00 0. -1.
</event>
<event>
 8    1  0.6493926E-009  0.1524593E+03  0.7561462E-02  0.1197483E+00
          2   -1    0    0  501    0  0.00000000000E+00  0.00000000000E+00  0.76252499337E+02  0.76252499337E+02  0.00000000000E+00 0. -1.
         -2   -1    0    0    0  501 -0.00000000000E+00 -0.00000000000E+00 -0.47944185544E+03  0.47944185544E+03  0.00000000000E+00 0.  1.
         25    2    1    2    0    0  0.34755749479E+02  0.14635256669E+03 -0.27830214410E+03  0.34018575979E+03  0.12508889580E+03 0.  0.
         23    2    1    2    0    0 -0.34755749479E+02 -0.14635256669E+03 -0.12488721200E+03  0.21550859499E+03  0.90664783095E+02 0.  0.
          5    1    3    3  502    0  0.13761535325E+02  0.17855888777E+02  0.90777453391E+01  0.24659490647E+02  0.41800000000E+01 0. -1.
         -5    1    3    3    0  502  0.20994214154E+02  0.12849667792E+03 -0.28737988944E+03  0.31552626914E+03  0.41800000000E+01 0. -1.
        -11    1    4    4    0    0 -0.20387888715E+02 -0.11989455025E+03 -0.44219163762E+02  0.12940519167E+03  0.00000000000E+00 0.  1.
         11    1    4    4    0    0 -0.14367860764E+02 -0.26458016439E+02 -0.80668048241E+02  0.86103403324E+02  0.00000000000E+00 0. -1.
</event>
<event>
 8    1  0.6493926E-009  0.2977167E+03  0.7561462E-02  0.1086388E+00
         -1   -1    0    0    0  501 -0.00000000000E+00  0.00000000000E+00  0.10141067677E+04  0.10141067677E+04  0.00000000000E+00 0.  1.
          1   -1    0    0  501    0  0.00000000000E+00 -0.00000000000E+00 -0.12559949677E+03  0.12559949677E+03  0.00000000000E+00 0. -1.
         25    2    1    2    0    0 -0.12725230141E+03  0.25352351032E+03  0.75529068372E+03  0.81644329115E+03  0.12509321420E+03 0.  0.
         23    2    1    2    0    0  0.12725230141E+03 -0.25352351032E+03  0.13321658721E+03  0.32326297334E+03  0.79277817340E+02 0.  0.
          5    1    3    3  502    0  0.22654768117E+02  0.65522103963E+02  0.17728664222E+03  0.19040590993E+03  0.41800000000E+01 0.  1.
         -5    1    3    3    0  502 -0.14990706953E+03  0.18800140636E+03  0.57800404150E+03  0.62603738121E+03  0.41800000000E+01 0.  1.
        -11    1    4    4    0    0  0.69018087380E+02 -0.10193224400E+03  0.97388721146E+02  0.15696573434E+03  0.00000000000E+00 0.  1.
         11    1    4    4    0    0  0.58234214032E+02 -0.15159126632E+03  0.35827866064E+02  0.16629723899E+03  0.00000000000E+00 0. -1.
</event>
<event>
 8    1  0.6493926E-009  0.1116295E+03  0.7561462E-02  0.1257582E+00
          2   -1    0    0  501    0  0.00000000000E+00  0.00000000000E+00  0.26819257107E+02  0.26819257107E+02  0.00000000000E+00 0. -1.
         -2   -1    0    0    0  501 -0.00000000000E+00 -0.00000000000E+00 -0.89467042825E+03  0.89467042825E+03  0.00000000000E+00 0.  1.
         25    2    1    2    0    0  0.10522199881E+02 -0.85944561585E+02 -0.67332448210E+03  0.69029708570E+03  0.12508806488E+03 0.  0.
         23    2    1    2    0    0 -0.10522199881E+02  0.85944561585E+02 -0.19452668904E+03  0.23119259965E+03  0.90067757990E+02 0.  0.
          5    1    3    3  502    0 -0.47733507654E+01 -0.10567310251E+03 -0.63866560739E+03  0.64737996566E+03  0.41800000000E+01 0.  1.
         -5    1    3    3    0  502  0.15295550647E+02  0.19728540928E+02 -0.34658874714E+02  0.42917120047E+02  0.41800000000E+01 0.  1.
        -11    1    4    4    0    0  0.97883533725E+01  0.48584024958E+02 -0.17930132987E+03  0.18602469255E+03  0.00000000000E+00 0.  1.
         11    1    4    4    0    0 -0.20310553254E+02  0.37360536627E+02 -0.15225359165E+02  0.45167907105E+02  0.00000000000E+00 0. -1.
</event>
<event>
 8    1  0.6493926E-009  0.2138480E+03  0.7561462E-02  0.1138554E+00
          1   -1    0    0  501    0  0.00000000000E+00  0.00000000000E+00  0.20185326292E+03  0.20185326292E+03  0.00000000000E+00 0. -1.
         -1   -1    0    0    0  501 -0.00000000000E+00 -0.00000000000E+00 -0.34441300053E+03  0.34441300053E+03  0.00000000000E+00 0.  1.
         25    2    1    2    0    0  0.45759253026E+02 -0.20473797335E+03  0.46419495864E+02  0.24862608285E+03  0.12509441437E+03 0.  0.
         23    2    1    2    0    0 -0.45759253026E+02  0.20473797335E+03 -0.18897923347E+03  0.29764018060E+03  0.94154019869E+02 0.  0.
          5    1    3    3  502    0  0.17431771194E+01 -0.31876909109E+02 -0.39194299673E+02  0.50723185306E+02  0.41800000000E+01 0. -1.
         -5    1    3    3    0  502  0.44016075906E+02 -0.17286106424E+03  0.85613795537E+02  0.19790289754E+03  0.41800000000E+01 0. -1.
        -11    1    4    4    0    0 -0.56043184733E+02  0.12910654672E+03 -0.16661207444E+03  0.21810300849E+03  0.00000000000E+00 0.  1.
         11    1    4    4    0    0  0.10283931707E+02  0.75631426630E+02 -0.22367159029E+02  0.79537172118E+02  0.00000000000E+00 0. -1.
</event>
<event>
 8    1  0.6493926E-009  0.1081336E+03  0.7561462E-02  0.1264066E+00
         -2   -1    0    0    0  501 -0.00000000000E+00  0.00000000000E+00  0.55641354060E+02  0.55641354060E+02  0.00000000000E+00 0.  1.
          2   -1    0    0  501    0  0.00000000000E+00 -0.00000000000E+00 -0.30139275722E+03  0.30139275722E+03  0.00000000000E+00 0. -1.
         25    2    1    2    0    0  0.65650019470E+02  0.19035144230E+02 -0.10945005021E+03  0.17972001387E+03  0.12509079951E+03 0.  0.
         23    2    1    2    0    0 -0.65650019470E+02 -0.19035144230E+02 -0.13630135295E+03  0.17731409741E+03  0.90498445021E+02 0.  0.
          5    1    3    3  502    0  0.46014772352E+02  0.67372246939E+02 -0.95256216886E+02  0.12548943457E+03  0.41800000000E+01 0. -1.
         -5    1    3    3    0  502  0.19635247119E+02 -0.48337102709E+02 -0.14193833327E+02  0.54230579309E+02  0.41800000000E+01 0. -1.
        -11    1    4    4    0    0 -0.42777112686E+01 -0.20402328096E+02 -0.10750610936E+03  0.10950852640E+03  0.00000000000E+00 0. -1.
         11    1    4    4    0    0 -0.61372308202E+02  0.13671838663E+01 -0.28795243589E+02  0.67805571003E+02  0.00000000000E+00 0.  1.
</event>
<event>
 8    1  0.6493926E-009  0.1206598E+03  0.7561462E-02  0.1242012E+00
         -1   -1    0    0    0  501 -0.00000000000E+00  0.00000000000E+00  0.52227263685E+02  0.52227263685E+02  0.00000000000E+00 0.  1.
          1   -1    0    0  501    0  0.00000000000E+00 -0.00000000000E+00 -0.41976055168E+03  0.41976055168E+03  0.00000000000E+00 0. -1.
         25    2    1    2    0    0 -0.35367743586E+02 -0.55274778750E+02 -0.78710102110E+02  0.16170478628E+03  0.12508788622E+03 0.  0.
         23    2    1    2    0    0  0.35367743586E+02  0.55274778750E+02 -0.28882318588E+03  0.31028302908E+03  0.92469167729E+02 0.  0.
          5    1    3    3  502    0 -0.72184526900E+02 -0.44016294766E+01 -0.64924244419E+02  0.97275948616E+02  0.41800000000E+01 0.  1.
         -5    1    3    3    0  502  0.36816783314E+02 -0.50873149274E+02 -0.13785857692E+02  0.64428837665E+02  0.41800000000E+01 0.  1.
        -11    1    4    4    0    0 -0.15461706480E+02 -0.13430272065E+02 -0.21776133135E+02  0.29893754353E+02  0.00000000000E+00 0.  1.
         11    1    4    4    0    0  0.50829450067E+02  0.68705050815E+02 -0.26704705275E+03  0.28038927473E+03  0.00000000000E+00 0. -1.
</event>
<event>
 8    1  0.6493926E-009  0.1184519E+03  0.7561462E-02  0.1245673E+00
         -1   -1    0    0    0  501 -0.00000000000E+00  0.00000000000E+00  0.33575049167E+03  0.33575049167E+03  0.00000000000E+00 0.  1.
          1   -1    0    0  501    0  0.00000000000E+00 -0.00000000000E+00 -0.49098188830E+02  0.49098188830E+02  0.00000000000E+00 0. -1.
         25    2    1    2    0    0  0.33150683128E+02 -0.60042383540E+02  0.16879552032E+03  0.22100845825E+03  0.12509498520E+03 0.  0.
         23    2    1    2    0    0 -0.33150683128E+02  0.60042383540E+02  0.11785678252E+03  0.16384022225E+03  0.90825886345E+02 0.  0.
          5    1    3    3  502    0  0.69551951544E+02 -0.24681985470E+02  0.43519914201E+02  0.85779541281E+02  0.41800000000E+01 0. -1.
         -5    1    3    3    0  502 -0.36401268417E+02 -0.35360398070E+02  0.12527560612E+03  0.13522891697E+03  0.41800000000E+01 0. -1.
        -11    1    4    4    0    0 -0.50418517305E+02  0.87306157395E+00  0.38974410769E+02  0.63732203936E+02  0.00000000000E+00 0. -1.
         11    1    4    4    0    0  0.17267834178E+02  0.59169321966E+02  0.78882371748E+02  0.10010801832E+03  0.00000000000E+00 0.  1.
</event>
<event>
 8    1  0.6493926E-009  0.8009172E+02  0.7561462E-02  0.1328791E+00
          2   -1    0    0  501    0  0.00000000000E+00  0.00000000000E+00  0.28834086720E+02  0.28834086720E+02  0.00000000000E+00 0. -1.
         -2   -1    0    0    0  501 -0.00000000000E+00 -0.00000000000E+00 -0.45663454207E+03  0.45663454207E+03  0.00000000000E+00 0.  1.
         25    2    1    2    0    0 -0.43322959388E+02 -0.11452572722E+02 -0.19275472492E+03  0.23411541531E+03  0.12509038122E+03 0.  0.
         23    2    1    2    0    0  0.43322959388E+02  0.11452572722E+02 -0.23504573044E+03  0.25135321349E+03  0.76966890946E+02 0.  0.
          5    1    3    3  502    0  0.13117717573E+02 -0.53262827606E+01 -0.17334361564E+03  0.17397104726E+03  0.41800000000E+01 0.  1.
         -5    1    3    3    0  502 -0.56440676961E+02 -0.61262899617E+01 -0.19411109283E+02  0.60144368050E+02  0.41800000000E+01 0.  1.
        -11    1    4    4    0    0  0.21657117948E+02 -0.32753278690E+02 -0.90402617027E+02  0.98561864775E+02  0.00000000000E+00 0.  1.
         11    1    4    4    0    0  0.21665841440E+02  0.44205851412E+02 -0.14464311341E+03  0.15279134871E+03  0.00000000000E+00 0. -1.
</event>
<event>
 8    1  0.6493926E-009  0.1086825E+03  0.7561462E-02  0.1263029E+00
         -2   -1    0    0    0  501 -0.00000000000E+00  0.00000000000E+00  0.12080087233E+02  0.12080087233E+02  0.00000000000E+00 0.  1.
          2   -1    0    0  501    0  0.00000000000E+00 -0.00000000000E+00 -0.11223175878E+04  0.11223175878E+04  0.00000000000E+00 0. -1.
         25    2    1    2    0    0  0.15549256610E+02  0.15295913231E+02 -0.81248917638E+03  0.82235169310E+03  0.12509157075E+03 0.  0.
         23    2    1    2    0    0 -0.15549256610E+02 -0.15295913231E+02 -0.29774832421E+03  0.31204598195E+03  0.90790340564E+02 0.  0.
          5    1    3    3  502    0 -0.53436965807E+02  0.79682454425E+00 -0.43742843901E+03  0.44070086895E+03  0.41800000000E+01 0. -1.
         -5    1    3    3    0  502  0.68986222417E+02  0.14499088687E+02 -0.37506073737E+03  0.38165082415E+03  0.41800000000E+01 0. -1.
        -11    1    4    4    0    0 -0.53643862236E+02 -0.64194255744E+01 -0.16174130849E+03  0.17052602104E+03  0.00000000000E+00 0.  1.
         11    1    4    4    0    0  0.38094605626E+02 -0.88764876570E+01 -0.13600701572E+03  0.14151996091E+03  0.00000000000E+00 0. -1.
</event>
<event>
 8    1  0.6493926E-009  0.8018824E+02  0.7561462E-02  0.1328518E+00
          1   -1    0    0  501    0  0.00000000000E+00  0.00000000000E+00  0.67260030463E+02  0.67260030463E+02  0.00000000000E+00 0.  1.
         -1   -1    0    0    0  501 -0.00000000000E+00 -0.00000000000E+00 -0.22984678845E+03  0.22984678845E+03  0.00000000000E+00 0. -1.
         25    2    1    2    0    0 -0.51691422700E+02 -0.26496579310E+02 -0.90937183357E+02  0.16519892728E+03  0.12508813837E+03 0.  0.
         23    2    1    2    0    0  0.51691422700E+02  0.26496579310E+02 -0.71649574625E+02  0.13190789163E+03  0.94297181474E+02 0.  0.
          5    1    3    3  502    0 -0.32324916752E+02 -0.56994797142E+02 -0.10692280296E+03  0.12547216957E+03  0.41800000000E+01 0. -1.
         -5    1    3    3    0  502 -0.19366505949E+02  0.30498217832E+02  0.15985619606E+02  0.39726757705E+02  0.41800000000E+01 0. -1.
        -11    1    4    4    0    0  0.17299944228E+02  0.11859474966E+02 -0.88468837942E+02  0.90921232414E+02  0.00000000000E+00 0. -1.
         11    1    4    4    0    0  0.34391478472E+02  0.14637104343E+02  0.16819263317E+02  0.40986659215E+02  0.00000000000E+00 0.  1.
</event>
<event>
 8    1  0.6493926E-009  0.1055821E+03  0.7561462E-02  0.1268977E+00
          2   -1    0    0  501    0  0.00000000000E+00  0.00000000000E+00  0.48395859724E+03  0.48395859724E+03  0.00000000000E+00 0. -1.
         -2   -1    0    0    0  501 -0.00000000000E+00 -0.00000000000E+00 -0.37523519384E+02  0.37523519384E+02  0.00000000000E+00 0.  1.
         25    2    1    2    0    0 -0.49446978179E+01 -0.58857096192E+01  0.39864411211E+03  0.41788044051E+03  0.12509133793E+03 0.  0.
         23    2    1    2    0    0  0.49446978179E+01  0.58857096192E+01  0.47790965746E+02  0.10360167612E+03  0.91598249290E+02 0.  0.
          5    1    3    3  502    0 -0.61885734066E+02  0.65299495153E+01  0.14972802419E+03  0.16219876063E+03  0.41800000000E+01 0. -1.
         -5    1    3    3    0  502  0.56941036248E+02 -0.12415659135E+02  0.24891608791E+03  0.25568167987E+03  0.41800000000E+01 0. -1.
        -11    1    4    4    0    0 -0.42585117392E+02  0.11462815804E+01  0.32045844565E+02  0.53307995072E+02  0.00000000000E+00 0.  1.
         11    1    4    4    0    0  0.47529815210E+02  0.47394280388E+01  0.15745121181E+02  0.50293681045E+02  0.00000000000E+00 0. -1.
</event>
<event>
 8    1  0.6493926E-009  0.9285940E+02  0.7561462E-02  0.1296071E+00
         -2   -1    0    0    0  501 -0.00000000000E+00  0.00000000000E+00  0.12736659411E+02  0.12736659411E+02  0.00000000000E+00 0.  1.
          2   -1    0    0  501    0  0.00000000000E+00 -0.00000000000E+00 -0.99718784459E+03  0.99718784459E+03  0.00000000000E+00 0. -1.
         25    2    1    2    0    0 -0.17965200222E+02  0.18762116706E+02 -0.67669969131E+03  0.68865445308E+03  0.12509083934E+03 0.  0.
         23    2    1    2    0    0  0.17965200222E+02 -0.18762116706E+02 -0.30775149386E+03  0.32127005091E+03  0.88479931041E+02 0.  0.
          5    1    3    3  502    0 -0.37378028669E+02 -0.25928982197E+02 -0.56342343397E+03  0.56527238345E+03  0.41800000000E+01 0. -1.
         -5    1    3    3    0  502  0.19412828447E+02  0.44691098902E+02 -0.11327625734E+03  0.12338206964E+03  0.41800000000E+01 0. -1.
        -11    1    4    4    0    0  0.40131429328E+02  0.21235004115E+02 -0.12880073144E+03  0.13656897685E+03  0.00000000000E+00 0. -1.
         11    1    4    4    0    0 -0.22166229107E+02 -0.39997120821E+02 -0.17895076243E+03  0.18470107406E+03  0.00000000000E+00 0.  1.
</event>
<event>
 8    1  0.6493926E-009  0.1220028E+03  0.7561462E-02  0.1239829E+00
          2   -1    0    0  501    0  0.00000000000E+00  0.00000000000E+00  0.62597559977E+03  0.62597559977E+03  0.00000000000E+00 0. -1.
         -2   -1    0    0    0  501 -0.00000000000E+00 -0.00000000000E+00 -0.66963492557E+02  0.66963492557E+02  0.00000000000E+00 0.  1.
         25    2    1    2    0    0  0.17181376022E+02 -0.10781312486E+03  0.50063729372E+03  0.52745144598E+03  0.12509379852E+03 0.  0.
         23    2    1    2    0    0 -0.17181376022E+02  0.10781312486E+03  0.58374813491E+02  0.16548764635E+03  0.10981654097E+03 0.  0.
          5    1    3    3  502    0 -0.27424520953E+01 -0.10842147739E+02  0.32937605150E+03  0.32959236780E+03  0.41800000000E+01 0. -1.
         -5    1    3    3    0  502  0.19923828118E+02 -0.96970977118E+02  0.17126124222E+03  0.19785907818E+03  0.41800000000E+01 0. -1.
        -11    1    4    4    0    0 -0.34971470997E+02  0.14284939628E+02  0.59262074758E+02  0.70278423349E+02  0.00000000000E+00 0. -1.
         11    1    4    4    0    0  0.17790094974E+02  0.93528185228E+02 -0.88726126693E+00  0.95209222998E+02  0.00000000000E+00 0.  1.
</event>
<event>
 8    1  0.6493926E-009  0.1275441E+03  0.7561462E-02  0.1231146E+00
         -1   -1    0    0    0  501 -0.00000000000E+00  0.00000000000E+00  0.14484227972E+03  0.14484227972E+03  0.00000000000E+00 0.  1.
          1   -1    0    0  501    0  0.00000000000E+00 -0.00000000000E+00 -0.13086527980E+03  0.13086527980E+03  0.00000000000E+00 0. -1.
         25    2    1    2    0    0 -0.34719400243E+02  0.61685358244E+02  0.54158894945E+02  0.15359561072E+03  0.12509158867E+03 0.  0.
         23    2    1    2    0    0  0.34719400243E+02 -0.61685358244E+02 -0.40181895034E+02  0.12211194880E+03  0.91028694252E+02 0.  0.
          5    1    3    3  502    0 -0.51402252718E+02 -0.22571209365E+02  0.10924984791E+02  0.57345259345E+02  0.41800000000E+01 0. -1.
         -5    1    3    3    0  502  0.16682852475E+02  0.84256567609E+02  0.43233910155E+02  0.96250351372E+02  0.41800000000E+01 0. -1.
        -11    1    4    4    0    0  0.14385463140E+02 -0.82474104698E+02 -0.40565629432E+02  0.93029510300E+02  0.00000000000E+00 0.  1.
         11    1    4    4    0    0  0.20333937103E+02  0.20788746454E+02  0.38373439805E+00  0.29082438504E+02  0.00000000000E+00 0. -1.
</event>
<event>
 8    1  0.6493926E-009  0.8911533E+02  0.7561462E-02  0.1305008E+00
          1   -1    0    0  501    0  0.00000000000E+00  0.00000000000E+00  0.14711171216E+03  0.14711171216E+03  0.00000000000E+00 0. -1.
         -1   -1    0    0    0  501 -0.00000000000E+00 -0.00000000000E+00 -0.11284958047E+03  0.11284958047E+03  0.00000000000E+00 0.  1.
         25    2    1    2    0    0 -0.44558644631E+02  0.47536385772E+02  0.42262015047E+02  0.14723743962E+03  0.12509038703E+03 0.  0.
         23    2    1    2    0    0  0.44558644631E+02 -0.47536385772E+02 -0.79998833576E+01  0.11272385301E+03  0.91637809447E+02 0.  0.
          5    1    3    3  502    0  0.55151658192E+00 -0.23448276634E+02  0.56972108889E+02  0.61752890126E+02  0.41800000000E+01 0. -1.
         -5    1    3    3    0  502 -0.45110161213E+02  0.70984662406E+02 -0.14710093843E+02  0.85484549495E+02  0.41800000000E+01 0. -1.
        -11    1    4    4    0    0  0.18467765881E+02 -0.31850451900E+01  0.38850399135E+02  0.43134167460E+02  0.00000000000E+00 0. -1.
         11    1    4    4    0    0  0.26090878750E+02 -0.44351340582E+02 -0.46850282493E+02  0.69589685551E+02  0.00000000000E+00 0.  1.
</event>
<event>
 8    1  0.6493926E-009  0.2106877E+03  0.7561462E-02  0.1141023E+00
          2   -1    0    0  501    0  0.00000000000E+00  0.00000000000E+00  0.17681528529E+03  0.17681528529E+03  0.00000000000E+00 0.  1.
         -2   -1    0    0    0  501 -0.00000000000E+00 -0.00000000000E+00 -0.28677080839E+03  0.28677080839E+03  0.00000000000E+00 0. -1.
         25    2    1    2    0    0 -0.18295232718E+03  0.10243809816E+02 -0.13136708429E+03  0.25784141958E+03  0.12509355361E+03 0.  0.
         23    2    1    2    0    0  0.18295232718E+03 -0.10243809816E+02  0.21411561195E+02  0.20574467410E+03  0.91081975770E+02 0.  0.
          5    1    3    3  502    0 -0.30641268596E+02  0.54704785196E+02 -0.31260356393E+02  0.70186773300E+02  0.41800000000E+01 0. -1.
         -5    1    3    3    0  502 -0.15231105858E+03 -0.44460975379E+02 -0.10010672790E+03  0.18765464628E+03  0.41800000000E+01 0. -1.
        -11    1    4    4    0    0  0.18148938797E+03  0.78498934892E+01  0.32399035969E+02  0.18452565216E+03  0.00000000000E+00 0.  1.
         11    1    4    4    0    0  0.14629392098E+01 -0.18093703306E+02 -0.10987474774E+02  0.21219021946E+02  0.00000000000E+00 0. -1.
</event>
<event>
 8    1  0.6493926E-009  0.1544614E+03  0.7561462E-02  0.1195096E+00
          2   -1    0    0  501    0  0.00000000000E+00  0.00000000000E+00  0.45974806296E+03  0.45974806296E+03  0.00000000000E+00 0. -1.
         -2   -1    0    0    0  501 -0.00000000000E+00 -0.00000000000E+00 -0.69313859605E+02  0.69313859605E+02  0.00000000000E+00 0.  1.
         25    2    1    2    0    0  0.91737280666E+02  0.10225047957E+03  0.15889352397E+03  0.24446989082E+03  0.12508991296E+03 0.  0.
         23    2    1    2    0    0 -0.91737280666E+02 -0.10225047957E+03  0.23154067939E+03  0.28459203175E+03  0.92253179279E+02 0.  0.
          5    1    3    3  502    0  0.74205853130E+02  0.47606070307E+02  0.15039398685E+02  0.89534923251E+02  0.41800000000E+01 0.  1.
         -5    1    3    3    0  502  0.17531427536E+02  0.54644409258E+02  0.14385412528E+03  0.15493496757E+03  0.41800000000E+01 0.  1.
        -11    1    4    4    0    0 -0.72741142451E+02 -0.15578135091E+02  0.82056984993E+02  0.11075784796E+03  0.00000000000E+00 0.  1.
         11    1    4    4    0    0 -0.18996138215E+02 -0.86672344474E+02  0.14948369440E+03  0.17383418379E+03  0.00000000000E+00 0. -1.
</event>
<event>
 8    1  0.6493926E-009  0.1090913E+03  0.7561462E-02  0.1262262E+00
          2   -1    0    0  501    0  0.00000000000E+00  0.00000000000E+00  0.34586677945E+02  0.34586677945E+02  0.00000000000E+00 0. -1.
         -2   -1    0    0    0  501 -0.00000000000E+00 -0.00000000000E+00 -0.54943625411E+03  0.54943625411E+03  0.00000000000E+00 0.  1.
         25    2    1    2    0    0 -0.65701950650E+01 -0.67923733246E+02 -0.17135681885E+03  0.22286288325E+03  0.12509158389E+03 0.  0.
         23    2    1    2    0    0  0.65701950650E+01  0.67923733246E+02 -0.34349275731E+03  0.36116004881E+03  0.88275169377E+02 0.  0.
          5    1    3    3  502    0 -0.61543752168E+02 -0.19648001857E+02 -0.10835873710E+03  0.12622505977E+03  0.41800000000E+01 0. -1.
         -5    1    3    3    0  502  0.54973557103E+02 -0.48275731389E+02 -0.62998081749E+02  0.96637823473E+02  0.41800000000E+01 0. -1.
        -11    1    4    4    0    0  0.20015419524E+02  0.62564968158E+02 -0.33997770650E+03  0.34626555297E+03  0.00000000000E+00 0.  1.
         11    1    4    4    0    0 -0.13445224459E+02  0.53587650874E+01 -0.35150508142E+01  0.14894495837E+02  0.00000000000E+00 0. -1.
</event>
<event>
 8    1  0.6493926E-009  0.1083930E+03  0.7561462E-02  0.1263575E+00
          1   -1    0    0  501    0  0.00000000000E+00  0.00000000000E+00  0.23637311826E+02  0.23637311826E+02  0.00000000000E+00 0. -1.
         -1   -1    0    0    0  501 -0.00000000000E+00 -0.00000000000E+00 -0.57943886302E+03  0.57943886302E+03  0.00000000000E+00 0.  1.
         25    2    1    2    0    0 -0.41525283214E+02  0.41516043908E+01 -0.30865637799E+03  0.33564386195E+03  0.12508580024E+03 0.  0.
         23    2    1    2    0    0  0.41525283214E+02 -0.41516043908E+01 -0.24714517320E+03  0.26743231290E+03  0.93261569691E+02 0.  0.
          5    1    3    3  502    0 -0.73107703759E+02  0.34787142590E+02 -0.24564486832E+03  0.25867693243E+03  0.41800000000E+01 0.  1.
         -5    1    3    3    0  502  0.31582420545E+02 -0.30635538199E+02 -0.63011509668E+02  0.76966929514E+02  0.41800000000E+01 0.  1.
        -11    1    4    4    0    0 -0.74803481050E+01 -0.33547855211E+02 -0.15685841087E+03  0.16058012100E+03  0.00000000000E+00 0.  1.
         11    1    4    4    0    0  0.49005631319E+02  0.29396250820E+02 -0.90286762329E+02  0.10685219191E+03  0.00000000000E+00 0. -1.
</event>
<event>
 8    1  0.6493926E-009  0.1675827E+03  0.7561462E-02  0.1180392E+00
         -2   -1    0    0    0  501 -0.00000000000E+00  0.00000000000E+00  0.49917014256E+02  0.49917014256E+02  0.00000000000E+00 0.  1.
          2   -1    0    0  501    0  0.00000000000E+00 -0.00000000000E+00 -0.67359355382E+03  0.67359355382E+03  0.00000000000E+00 0. -1.
         25    2    1    2    0    0 -0.98631126045E+02  0.10741640027E+03 -0.37483042656E+03  0.42120251774E+03  0.12508928894E+03 0.  0.
         23    2    1    2    0    0  0.98631126045E+02 -0.10741640027E+03 -0.24884611301E+03  0.30230805034E+03  0.90550468071E+02 0.  0.
          5    1    3    3  502    0 -0.32786081073E+02  0.11745760597E+03 -0.27802107079E+03  0.30361884744E+03  0.41800000000E+01 0.  1.
         -5    1    3    3    0  502 -0.65845044971E+02 -0.10041205703E+02 -0.96809355763E+02  0.11758367031E+03  0.41800000000E+01 0.  1.
        -11    1    4    4    0    0  0.20043017662E+02 -0.14634752826E+02 -0.12976727726E+03  0.13211905538E+03  0.00000000000E+00 0. -1.
         11    1    4    4    0    0  0.78588108383E+02 -0.92781647441E+02 -0.11907883575E+03  0.17018899496E+03  0.00000000000E+00 0.  1.
</event>
<event>
 8    1  0.6493926E-009  0.1097033E+03  0.7561462E-02  0.1261120E+00
          2   -1    0    0  501    0  0.00000000000E+00  0.00000000000E+00  0.75660579973E+02  0.75660579973E+02  0.00000000000E+00 0. -1.
         -2   -1    0    0    0  501 -0.00000000000E+00 -0.00000000000E+00 -0.28905454207E+03  0.28905454207E+03  0.00000000000E+00 0.  1.
         25    2    1    2    0    0 -0.42920542194E+02  0.42474197711E+02 -0.21424246737E+03  0.25533117658E+03  0.12509174432E+03 0.  0.
         23    2    1    2    0    0  0.42920542194E+02 -0.42474197711E+02  0.84850526834E+00  0.10938394546E+03  0.91202506273E+02 0.  0.
          5    1    3    3  502    0 -0.11279569540E+02 -0.44493898210E+02 -0.65272218889E+02  0.79905385461E+02  0.41800000000E+01 0. -1.
         -5    1    3    3    0  502 -0.31640972654E+02  0.86968095921E+02 -0.14897024848E+03  0.17542579112E+03  0.41800000000E+01 0. -1.
        -11    1    4    4    0    0 -0.71841165965E+01  0.71643328119E+01 -0.30542686510E+02  0.32183767573E+02  0.00000000000E+00 0.  1.
         11    1    4    4    0    0  0.50104658790E+02 -0.49638530523E+02  0.31391191779E+02  0.77200177890E+02  0.00000000000E+00 0. -1.
</event>
<event>
 8    1  0.6493926E-009  0.1086048E+03  0.7561462E-02  0.1263176E+00
          2   -1    0    0  501    0  0.00000000000E+00  0.00000000000E+00  0.46458291704E+03  0.46458291704E+03  0.00000000000E+00 0. -1.
         -2   -1    0    0    0  501 -0.00000000000E+00 -0.00000000000E+00 -0.35626986148E+02  0.35626986148E+02  0.00000000000E+00 0.  1.
         25    2    1    2    0    0 -0.33195500802E+02  0.33008057265E+02  0.13482257253E+03  0.18977790174E+03  0.12508818013E+03 0.  0.
         23    2    1    2    0    0  0.33195500802E+02 -0.33008057265E+02  0.29413335836E+03  0.31043200145E+03  0.87533547305E+02 0.  0.
          5    1    3    3  502    0  0.35549405217E+02 -0.17440049533E+02  0.76944174643E+02  0.86635985309E+02  0.41800000000E+01 0. -1.
         -5    1    3    3    0  502 -0.68744906018E+02  0.50448106798E+02  0.57878397884E+02  0.10314191643E+03  0.41800000000E+01 0. -1.
        -11    1    4    4    0    0 -0.25613481475E+02 -0.24063769169E+01  0.14447457436E+03  0.14674721027E+03  0.00000000000E+00 0. -1.
         11    1    4    4    0    0  0.58808982277E+02 -0.30601680348E+02  0.14965878400E+03  0.16368479118E+03  0.00000000000E+00 0.  1.
</event>
<event>
 8    1  0.6493926E-009  0.9380772E+02  0.7561462E-02  0.1293884E+00
         -1   -1    0    0    0  501 -0.00000000000E+00  0.00000000000E+00  0.56123440833E+02  0.56123440833E+02  0.00000000000E+00 0.  1.
          1   -1    0    0  501    0  0.00000000000E+00 -0.00000000000E+00 -0.22498122884E+03  0.22498122884E+03  0.00000000000E+00 0. -1.
         25    2    1    2    0    0 -0.14907075867E+01 -0.20441442105E+02 -0.66932083797E+02  0.14334438322E+03  0.12509050161E+03 0.  0.
         23    2    1    2    0    0  0.14907075867E+01  0.20441442105E+02 -0.10192570421E+03  0.13776028646E+03  0.90382368755E+02 0.  0.
          5    1    3    3  502    0 -0.19770532218E+02  0.46181440646E+02 -0.52230763919E+02  0.72588735379E+02  0.41800000000E+01 0. -1.
         -5    1    3    3    0  502  0.18279824631E+02 -0.66622882752E+02 -0.14701319878E+02  0.70755647837E+02  0.41800000000E+01 0. -1.
        -11    1    4    4    0    0 -0.12954907866E+02  0.40926929990E+02 -0.12242536029E+02  0.44639925231E+02  0.00000000000E+00 0.  1.
         11    1    4    4    0    0  0.14445615453E+02 -0.20485487885E+02 -0.89683168186E+02  0.93120361230E+02  0.00000000000E+00 0. -1.
</event>
<event>
 8    1  0.6493926E-009  0.1452075E+03  0.7561462E-02  0.1206489E+00
         -3   -1    0    0    0  501 -0.00000000000E+00  0.00000000000E+00  0.54668804401E+03  0.54668804401E+03  0.00000000000E+00 0.  1.
          3   -1    0    0  501    0  0.00000000000E+00 -0.00000000000E+00 -0.44430841997E+02  0.44430841997E+02  0.00000000000E+00 0. -1.
         25    2    1    2    0    0 -0.28432931824E+02 -0.93797874770E+02  0.16932291467E+03  0.23221645913E+03  0.12509101300E+03 0.  0.
         23    2    1    2    0    0  0.28432931824E+02  0.93797874770E+02  0.33293428734E+03  0.35890242687E+03  0.91428876221E+02 0.  0.
          5    1    3    3  502    0  0.28198259004E+02 -0.95459033229E+02  0.87430831783E+02  0.13254882716E+03  0.41800000000E+01 0.  1.
         -5    1    3    3    0  502 -0.56631190828E+02  0.16611584596E+01  0.81892082891E+02  0.99667631969E+02  0.41800000000E+01 0.  1.
        -11    1    4    4    0    0 -0.33445957214E+02  0.38444934060E+02  0.13165790099E+03  0.14117523827E+03  0.00000000000E+00 0. -1.
         11    1    4    4    0    0  0.61878889038E+02  0.55352940710E+02  0.20127638635E+03  0.21772718860E+03  0.00000000000E+00 0.  1.
</event>
<event>
 8    1  0.6493926E-009  0.6225447E+02  0.7561462E-02  0.1388607E+00
          2   -1    0    0  501    0  0.00000000000E+00  0.00000000000E+00  0.58465359780E+03  0.58465359780E+03  0.00000000000E+00 0. -1.
         -2   -1    0    0    0  501 -0.00000000000E+00 -0.00000000000E+00 -0.23938552156E+02  0.23938552156E+02  0.00000000000E+00 0.  1.
         25    2    1    2    0    0  0.11689866717E+02 -0.30174254087E+02  0.42354414675E+03  0.44280997125E+03  0.12507552838E+03 0.  0.
         23    2    1    2    0    0 -0.11689866717E+02  0.30174254087E+02  0.13717089889E+03  0.16578217870E+03  0.87296830861E+02 0.  0.
          5    1    3    3  502    0 -0.47842195909E+01  0.16854885569E+02  0.36653339974E+03  0.36697572324E+03  0.41800000000E+01 0. -1.
         -5    1    3    3    0  502  0.16474086307E+02 -0.47029139656E+02  0.57010747010E+02  0.75834248010E+02  0.41800000000E+01 0. -1.
        -11    1    4    4    0    0  0.17674397595E+02  0.16179962699E+02 -0.85290486454E+00  0.23977134315E+02  0.00000000000E+00 0.  1.
         11    1    4    4    0    0 -0.29364264311E+02  0.13994291388E+02  0.13802380375E+03  0.14180504438E+03  0.00000000000E+00 0. -1.
</event>
<event>
 7    1  0.6493926E-009  0.9244646E+02  0.7561462E-02  0.1297033E+00
          1   -1    0    0  501    0  0.00000000000E+00  0.00000000000E+00  0.24759968605E+03  0.24759968605E+03  0.00000000000E+00 0. -1.
         -1   -1    0    0    0  501 -0.00000000000E+00 -0.00000000000E+00 -0.56649455900E+02  0.56649455900E+02  0.00000000000E+00 0.  1.
         23    2    1    2    0    0  0.41088044489E+02 -0.22301359854E+00  0.74801482872E+02  0.12772336165E+03  0.95024829057E+02 0.  0.
          5    1    1    2  502    0 -0.16341677675E+02 -0.56672132744E+02  0.20779481105E+02  0.62674079921E+02  0.41800000000E+01 0.  1.
         -5    1    1    2    0  502 -0.24746366814E+02  0.56895146342E+02  0.95369266169E+02  0.11385170037E+03  0.41800000000E+01 0.  1.
        -11    1    3    3    0    0 -0.10997465352E+02  0.29841154517E+01 -0.17972181285E+02  0.21280237060E+02  0.00000000000E+00 0.  1.
         11    1    3    3    0    0  0.52085509841E+02 -0.32071290502E+01  0.92773664157E+02  0.10644312459E+03  0.00000000000E+00 0. -1.
</event>
<event>
 8    1  0.6493926E-009  0.1750605E+03  0.7561462E-02  0.1172671E+00
          2   -1    0    0  501    0  0.00000000000E+00  0.00000000000E+00  0.11579445026E+04  0.11579445026E+04  0.00000000000E+00 0. -1.
         -2   -1    0    0    0  501 -0.00000000000E+00 -0.00000000000E+00 -0.32082459188E+02  0.32082459188E+02  0.00000000000E+00 0.  1.
         25    2    1    2    0    0 -0.70691933724E+02  0.12190318495E+03  0.82327286609E+03  0.84455812280E+03  0.12506987951E+03 0.  0.
         23    2    1    2    0    0  0.70691933724E+02 -0.12190318495E+03  0.30258917729E+03  0.34546883895E+03  0.89054884645E+02 0.  0.
          5    1    3    3  502    0 -0.12939848668E+02  0.12873665082E+03  0.59916275627E+03  0.61298780236E+03  0.41800000000E+01 0.  1.
         -5    1    3    3    0  502 -0.57752085056E+02 -0.68334658753E+01  0.22411010982E+03  0.23157032044E+03  0.41800000000E+01 0.  1.
        -11    1    4    4    0    0 -0.11954277964E+02 -0.54269103698E+02  0.14325970160E+03  0.15365995731E+03  0.00000000000E+00 0. -1.
         11    1    4    4    0    0  0.82646211689E+02 -0.67634081249E+02  0.15932947569E+03  0.19180888164E+03  0.00000000000E+00 0.  1.
</event>
<event>
 8    1  0.6493926E-009  0.1057949E+03  0.7561462E-02  0.1268561E+00
          1   -1    0    0  501    0  0.00000000000E+00  0.00000000000E+00  0.13274714476E+03  0.13274714476E+03  0.00000000000E+00 0. -1.
         -1   -1    0    0    0  501 -0.00000000000E+00 -0.00000000000E+00 -0.14288997591E+03  0.14288997591E+03  0.00000000000E+00 0.  1.
         25    2    1    2    0    0  0.39824375998E+02 -0.14817584980E+02  0.67489746594E+02  0.14835321462E+03  0.12509303996E+03 0.  0.
         23    2    1    2    0    0 -0.39824375998E+02  0.14817584980E+02 -0.77632577749E+02  0.12728390604E+03  0.91481330674E+02 0.  0.
          5    1    3    3  502    0 -0.27966893020E+02  0.36975038899E+02  0.20452101267E+02  0.50843499614E+02  0.41800000000E+01 0. -1.
         -5    1    3    3    0  502  0.67791269017E+02 -0.51792623879E+02  0.47037645327E+02  0.97509715009E+02  0.41800000000E+01 0. -1.
        -11    1    4    4    0    0 -0.58513977619E+02  0.55812605350E+01 -0.86539021324E+02  0.10461375750E+03  0.00000000000E+00 0.  1.
         11    1    4    4    0    0  0.18689601621E+02  0.92363244451E+01  0.89064435749E+01  0.22670148548E+02  0.00000000000E+00 0. -1.
</event>
<event>
 8    1  0.6493926E-009  0.1340281E+03  0.7561462E-02  0.1221598E+00
          2   -1    0    0  501    0  0.00000000000E+00  0.00000000000E+00  0.13240674735E+03  0.13240674735E+03  0.00000000000E+00 0.  1.
         -2   -1    0    0    0  501 -0.00000000000E+00 -0.00000000000E+00 -0.18922272743E+03  0.18922272743E+03  0.00000000000E+00 0. -1.
         25    2    1    2    0    0  0.10186800361E+03 -0.43240206702E+02  0.15789658537E+00  0.16702058636E+03  0.12509614583E+03 0.  0.
         23    2    1    2    0    0 -0.10186800361E+03  0.43240206702E+02 -0.56973876667E+02  0.15460888842E+03  0.91711940989E+02 0.  0.
          5    1    3    3  502    0  0.23592069532E+02 -0.50056868252E+02  0.49317619910E+02  0.74242682048E+02  0.41800000000E+01 0.  1.
         -5    1    3    3    0  502  0.78275934083E+02  0.68166615502E+01 -0.49159723325E+02  0.92777904312E+02  0.41800000000E+01 0.  1.
        -11    1    4    4    0    0  0.52212005711E+01  0.24637293041E+02  0.98220362149E+01  0.27032009529E+02  0.00000000000E+00 0.  1.
         11    1    4    4    0    0 -0.10708920419E+03  0.18602913661E+02 -0.66795912882E+02  0.12757687889E+03  0.00000000000E+00 0. -1.
</event>
<event>
 8    1  0.6493926E-009  0.1955301E+03  0.7561462E-02  0.1153566E+00
          2   -1    0    0  501    0  0.00000000000E+00  0.00000000000E+00  0.48694872493E+03  0.48694872493E+03  0.00000000000E+00 0. -1.
         -2   -1    0    0    0  501 -0.00000000000E+00 -0.00000000000E+00 -0.11031555343E+03  0.11031555343E+03  0.00000000000E+00 0.  1.
         25    2    1    2    0    0 -0.18028333221E+03  0.60133551039E+02  0.93362764130E+02  0.24593154365E+03  0.12509034576E+03 0.  0.
         23    2    1    2    0    0  0.18028333221E+03 -0.60133551039E+02  0.28327040737E+03  0.35133273471E+03  0.84109707848E+02 0.  0.
          5    1    3    3  502    0 -0.16134119556E+03  0.43299567965E+02  0.12242233145E+03  0.20714857858E+03  0.41800000000E+01 0.  1.
         -5    1    3    3    0  502 -0.18942136659E+02  0.16833983074E+02 -0.29059567317E+02  0.38782965075E+02  0.41800000000E+01 0.  1.
        -11    1    4    4    0    0  0.77127367959E+02 -0.55487354958E+02  0.83663163284E+02  0.12659779753E+03  0.00000000000E+00 0. -1.
         11    1    4    4    0    0  0.10315596426E+03 -0.46461960806E+01  0.19960724408E+03  0.22473493718E+03  0.00000000000E+00 0.  1.
</event>
<event>
 8    1  0.6493926E-009  0.1013552E+03  0.7561462E-02  0.1277472E+00
          2   -1    0    0  501    0  0.00000000000E+00  0.00000000000E+00  0.43316794533E+03  0.43316794533E+03  0.00000000000E+00 0. -1.
         -2   -1    0    0    0  501 -0.00000000000E+00 -0.00000000000E+00 -0.30171164579E+02  0.30171164579E+02  0.00000000000E+00 0.  1.
         25    2    1    2    0    0 -0.26985941573E+02 -0.11329373406E+02  0.27209843176E+03  0.30090143865E+03  0.12509006142E+03 0.  0.
         23    2    1    2    0    0  0.26985941573E+02  0.11329373406E+02  0.13089834899E+03  0.16243767127E+03  0.91624361025E+02 0.  0.
          5    1    3    3  502    0  0.33240312711E+02  0.23756349493E+02  0.18378683623E+03  0.18831982398E+03  0.41800000000E+01 0. -1.
         -5    1    3    3    0  502 -0.60226254285E+02 -0.35085722900E+02  0.88311595533E+02  0.11258161467E+03  0.41800000000E+01 0. -1.
        -11    1    4    4    0    0  0.57778023017E+02  0.17581395226E+02  0.10735002935E+03  0.12317237597E+03  0.00000000000E+00 0. -1.
         11    1    4    4    0    0 -0.30792081444E+02 -0.62520218197E+01  0.23548319646E+02  0.39265295295E+02  0.00000000000E+00 0.  1.
</event>
<event>
 8    1  0.6493926E-009  0.1450092E+03  0.7561462E-02  0.1206743E+00
          2   -1    0    0  501    0  0.00000000000E+00  0.00000000000E+00  0.14445425862E+03  0.14445425862E+03  0.00000000000E+00 0. -1.
         -2   -1    0    0    0  501 -0.00000000000E+00 -0.00000000000E+00 -0.22717620658E+03  0.22717620658E+03  0.00000000000E+00 0.  1.
         25    2    1    2    0    0 -0.55854455143E+02 -0.10505583424E+03  0.39879797245E+02  0.17718364130E+03  0.12508875269E+03 0.  0.
         23    2    1    2    0    0  0.55854455143E+02  0.10505583424E+03 -0.12260174520E+03  0.19444682390E+03  0.92854353337E+02 0.  0.
          5    1    3    3  502    0 -0.29854313715E+02  0.94549897665E+01 -0.27369684869E+02  0.41800106802E+02  0.41800000000E+01 0.  1.
         -5    1    3    3    0  502 -0.26000141429E+02 -0.11451082400E+03  0.67249482114E+02  0.13538353450E+03  0.41800000000E+01 0.  1.
        -11    1    4    4    0    0  0.74227356904E+02  0.92824103445E+02 -0.71301710263E+02  0.13859995880E+03  0.00000000000E+00 0. -1.
         11    1    4    4    0    0 -0.18372901761E+02  0.12231730791E+02 -0.51300034934E+02  0.55846865100E+02  0.00000000000E+00 0.  1.
</event>
<event>
 8    1  0.6493926E-009  0.1490475E+03  0.7561462E-02  0.1201648E+00
          1   -1    0    0  501    0  0.00000000000E+00  0.00000000000E+00  0.13806357583E+03  0.13806357583E+03  0.00000000000E+00 0. -1.
         -1   -1    0    0    0  501 -0.00000000000E+00 -0.00000000000E+00 -0.32096733522E+03  0.32096733522E+03  0.00000000000E+00 0.  1.
         25    2    1    2    0    0 -0.32001074657E+02 -0.11096892717E+03 -0.24519015881E+03  0.29850258119E+03  0.12508958960E+03 0.  0.
         23    2    1    2    0    0  0.32001074657E+02  0.11096892717E+03  0.62286399410E+02  0.16052832986E+03  0.92474740118E+02 0.  0.
          5    1    3    3  502    0 -0.75467762744E+02 -0.40738877231E+02 -0.10388109641E+03  0.13477312018E+03  0.41800000000E+01 0.  1.
         -5    1    3    3    0  502  0.43466688087E+02 -0.70230049937E+02 -0.14130906239E+03  0.16372946101E+03  0.41800000000E+01 0.  1.
        -11    1    4    4    0    0  0.83916327289E+01 -0.59288611872E+01 -0.15171577526E+02  0.18323418335E+02  0.00000000000E+00 0.  1.
         11    1    4    4    0    0  0.23609441928E+02  0.11689778836E+03  0.77457976937E+02  0.14220491152E+03  0.00000000000E+00 0. -1.
</event>
<event>
 8    1  0.6493926E-009  0.1148438E+03  0.7561462E-02  0.1251854E+00
         -1   -1    0    0    0  501 -0.00000000000E+00  0.00000000000E+00  0.59546503424E+03  0.59546503424E+03  0.00000000000E+00 0.  1.
          1   -1    0    0  501    0  0.00000000000E+00 -0.00000000000E+00 -0.30448743812E+02  0.30448743812E+02  0.00000000000E+00 0. -1.
         25    2    1    2    0    0 -0.66607115383E+02 -0.33561668215E+02  0.35955511207E+03  0.38793121551E+03  0.12509139042E+03 0.  0.
         23    2    1    2    0    0  0.66607115383E+02  0.33561668215E+02  0.20546117837E+03  0.23798256255E+03  0.94119662501E+02 0.  0.
          5    1    3    3  502    0 -0.10243993787E+03 -0.27279234407E+02  0.29782389133E+03  0.31615603766E+03  0.41800000000E+01 0. -1.
         -5    1    3    3    0  502  0.35832822483E+02 -0.62824338079E+01  0.61731220737E+02  0.71775177850E+02  0.41800000000E+01 0. -1.
        -11    1    4    4    0    0  0.32819758191E+02 -0.76356083542E+01  0.96483406967E+01  0.35050385459E+02  0.00000000000E+00 0. -1.
         11    1    4    4    0    0  0.33787357192E+02  0.41197276570E+02  0.19581283767E+03  0.20293217709E+03  0.00000000000E+00 0.  1.
</event>
<event>
 8    1  0.6493926E-009  0.9000617E+02  0.7561462E-02  0.1302837E+00
         -2   -1    0    0    0  501 -0.00000000000E+00  0.00000000000E+00  0.28399927049E+02  0.28399927049E+02  0.00000000000E+00 0.  1.
          2   -1    0    0  501    0  0.00000000000E+00 -0.00000000000E+00 -0.56316859023E+03  0.56316859023E+03  0.00000000000E+00 0. -1.
         25    2    1    2    0    0 -0.40570613870E+02  0.19890643791E+02 -0.40737689778E+03  0.42853845285E+03  0.12509059241E+03 0.  0.
         23    2    1    2    0    0  0.40570613870E+02 -0.19890643791E+02 -0.12739176541E+03  0.16303006443E+03  0.91151125030E+02 0.  0.
          5    1    3    3  502    0  0.30433571805E+02  0.11428580209E+02 -0.28393042047E+03  0.28581597367E+03  0.41800000000E+01 0. -1.
         -5    1    3    3    0  502 -0.71004185675E+02  0.84620635818E+01 -0.12344647731E+03  0.14272247918E+03  0.41800000000E+01 0. -1.
        -11    1    4    4    0    0  0.10444424307E+02  0.21798909648E+02 -0.10355682743E+03  0.10634046722E+03  0.00000000000E+00 0. -1.
         11    1    4    4    0    0  0.30126189563E+02 -0.41689553439E+02 -0.23834937975E+02  0.56689597210E+02  0.00000000000E+00 0.  1.
</event>
<event>
 8    1  0.6493926E-009  0.9138742E+02  0.7561462E-02  0.1299526E+00
          1   -1    0    0  501    0  0.00000000000E+00  0.00000000000E+00  0.23540962952E+03  0.23540962952E+03  0.00000000000E+00 0. -1.
         -1   -1    0    0    0  501 -0.00000000000E+00 -0.00000000000E+00 -0.54235738599E+02  0.54235738599E+02  0.00000000000E+00 0.  1.
         25    2    1    2    0    0 -0.94362546906E+01 -0.11044716602E+02  0.66559621302E+02  0.14243984269E+03  0.12509155419E+03 0.  0.
         23    2    1    2    0    0  0.94362546906E+01  0.11044716602E+02  0.11461426962E+03  0.14720552543E+03  0.91225036303E+02 0.  0.
          5    1    3    3  502    0  0.40256392215E+02 -0.10320450040E+02 -0.17026798146E+02  0.45105133392E+02  0.41800000000E+01 0. -1.
         -5    1    3    3    0  502 -0.49692646906E+02 -0.72426656232E+00  0.83586419447E+02  0.97334709300E+02  0.41800000000E+01 0. -1.
        -11    1    4    4    0    0  0.20283782903E+02 -0.36829491173E+02  0.41008188309E+02  0.58732569987E+02  0.00000000000E+00 0. -1.
         11    1    4    4    0    0 -0.10847528212E+02  0.47874207775E+02  0.73606081308E+02  0.88472955438E+02  0.00000000000E+00 0.  1.
</event>
<event>
 8    1  0.6493926E-009  0.1187554E+03  0.7561462E-02  0.1245164E+00
          1   -1    0    0  501    0  0.00000000000E+00  0.00000000000E+00  0.18015187765E+03  0.18015187765E+03  0.00000000000E+00 0. -1.
         -1   -1    0    0    0  501 -0.00000000000E+00 -0.00000000000E+00 -0.10058094227E+03  0.10058094227E+03  0.00000000000E+00 0.  1.
         25    2    1    2    0    0 -0.41696188567E+02 -0.30729466769E+02 -0.19833470114E+02  0.13683456228E+03  0.12508980226E+03 0.  0.
         23    2    1    2    0    0  0.41696188567E+02  0.30729466769E+02  0.99404405489E+02  0.14389825764E+03  0.90236358821E+02 0.  0.
          5    1    3    3  502    0  0.95284632116E+01 -0.68845341997E+02  0.71125579000E+00  0.69630819403E+02  0.41800000000E+01 0.  1.
         -5    1    3    3    0  502 -0.51224651778E+02  0.38115875228E+02 -0.20544725904E+02  0.67203742877E+02  0.41800000000E+01 0.  1.
        -11    1    4    4    0    0  0.26819587322E+02  0.62940731629E+02  0.61770656243E+02  0.92176135387E+02  0.00000000000E+00 0.  1.
         11    1    4    4    0    0  0.14876601245E+02 -0.32211264860E+02  0.37633749246E+02  0.51722122257E+02  0.00000000000E+00 0. -1.
</event>
<event>
 8    1  0.6493926E-009  0.1390497E+03  0.7561462E-02  0.1214613E+00
          1   -1    0    0  501    0  0.00000000000E+00  0.00000000000E+00  0.32747548613E+03  0.32747548613E+03  0.00000000000E+00 0. -1.
         -1   -1    0    0    0  501 -0.00000000000E+00 -0.00000000000E+00 -0.86700752561E+02  0.86700752561E+02  0.00000000000E+00 0.  1.
         25    2    1    2    0    0 -0.68482960530E+02 -0.10370037518E+03  0.82425305803E+02  0.19464037443E+03  0.12508901082E+03 0.  0.
         23    2    1    2    0    0  0.68482960530E+02  0.10370037518E+03  0.15834942777E+03  0.21953586426E+03  0.87622889285E+02 0.  0.
          5    1    3    3  502    0 -0.87192651420E+01 -0.90947106930E+02 -0.60495360050E+00  0.91461687128E+02  0.41800000000E+01 0.  1.
         -5    1    3    3    0  502 -0.59763695388E+02 -0.12753268247E+02  0.83030259403E+02  0.10317868730E+03  0.41800000000E+01 0.  1.
        -11    1    4    4    0    0  0.60083606646E+01  0.20375636946E+02  0.95635588358E+02  0.97966487839E+02  0.00000000000E+00 0. -1.
         11    1    4    4    0    0  0.62474599865E+02  0.83324738231E+02  0.62713839407E+02  0.12156937642E+03  0.00000000000E+00 0.  1.
</event>
<event>
 8    1  0.6493926E-009  0.1215328E+03  0.7561462E-02  0.1240590E+00
          2   -1    0    0  501    0  0.00000000000E+00  0.00000000000E+00  0.36547152212E+03  0.36547152212E+03  0.00000000000E+00 0. -1.
         -2   -1    0    0    0  501 -0.00000000000E+00 -0.00000000000E+00 -0.60904735150E+02  0.60904735150E+02  0.00000000000E+00 0.  1.
         25    2    1    2    0    0 -0.76706520836E+01  0.10120263144E+03  0.14567373640E+03  0.21720188987E+03  0.12511999029E+03 0.  0.
         23    2    1    2    0    0  0.76706520836E+01 -0.10120263144E+03  0.15889305057E+03  0.20917436741E+03  0.90587543001E+02 0.  0.
          5    1    3    3  502    0  0.39757248020E+02  0.63352114048E+02  0.19924525904E+02  0.77515084061E+02  0.41800000000E+01 0.  1.
         -5    1    3    3    0  502 -0.47427900104E+02  0.37850517391E+02  0.12574921050E+03  0.13968680580E+03  0.41800000000E+01 0.  1.
        -11    1    4    4    0    0  0.21662132206E+02 -0.65261442142E+02  0.30699278611E+02  0.75304379085E+02  0.00000000000E+00 0.  1.
         11    1    4    4    0    0 -0.13991480122E+02 -0.35941189297E+02  0.12819377196E+03  0.13386998832E+03  0.00000000000E+00 0. -1.
</event>
<event>
 8    1  0.6493926E-009  0.8293696E+02  0.7561462E-02  0.1320917E+00
         -2   -1    0    0    0  501 -0.00000000000E+00  0.00000000000E+00  0.21396114091E+03  0.21396114091E+03  0.00000000000E+00 0.  1.
          2   -1    0    0  501    0  0.00000000000E+00 -0.00000000000E+00 -0.99804286530E+02  0.99804286530E+02  0.00000000000E+00 0. -1.
         25    2    1    2    0    0  0.43937532036E+02  0.58626178237E+02  0.12923282097E+03  0.19420401169E+03  0.12508613290E+03 0.  0.
         23    2    1    2    0    0 -0.43937532036E+02 -0.58626178237E+02 -0.15075966591E+02  0.11956141575E+03  0.93274390227E+02 0.  0.
          5    1    3    3  502    0  0.49682112398E+02  0.22443663359E+02 -0.50892752111E+01  0.54912689239E+02  0.41800000000E+01 0.  1.
         -5    1    3    3    0  502 -0.57445803629E+01  0.36182514878E+02  0.13432209618E+03  0.13929132245E+03  0.41800000000E+01 0.  1.
        -11    1    4    4    0    0 -0.20597960088E+02 -0.17461678966E+02 -0.52627773396E+02  0.59151236037E+02  0.00000000000E+00 0. -1.
         11    1    4    4    0    0 -0.23339571947E+02 -0.41164499272E+02  0.37551806806E+02  0.60410179716E+02  0.00000000000E+00 0.  1.
</event>
<event>
 8    1  0.6493926E-009  0.1049217E+03  0.7561462E-02  0.1270274E+00
          4   -1    0    0  501    0  0.00000000000E+00  0.00000000000E+00  0.18234559489E+03  0.18234559489E+03  0.00000000000E+00 0. -1.
         -4   -1    0    0    0  501 -0.00000000000E+00 -0.00000000000E+00 -0.67699501148E+02  0.67699501148E+02  0.00000000000E+00 0.  1.
         25    2    1    2    0    0  0.15407876805E+02 -0.16545328649E+02  0.44532009182E+02  0.13468995547E+03  0.12508850345E+03 0.  0.
         23    2    1    2    0    0 -0.15407876805E+02  0.16545328649E+02  0.70114084561E+02  0.11535514057E+03  0.88767522406E+02 0.  0.
          5    1    3    3  502    0 -0.33425207131E+02  0.39987883347E+02  0.19117326765E+02  0.55670637404E+02  0.41800000000E+01 0. -1.
         -5    1    3    3    0  502  0.48833083937E+02 -0.56533211996E+02  0.25414682418E+02  0.79019318066E+02  0.41800000000E+01 0. -1.
        -11    1    4    4    0    0  0.21080225309E+02 -0.21439089633E+02  0.51230299475E+02  0.59401633375E+02  0.00000000000E+00 0. -1.
         11    1    4    4    0    0 -0.36488102114E+02  0.37984418281E+02  0.18883785085E+02  0.55953507193E+02  0.00000000000E+00 0.  1.
</event>
<event>
 8    1  0.6493926E-009  0.2176377E+03  0.7561462E-02  0.1135657E+00
          2   -1    0    0  501    0  0.00000000000E+00  0.00000000000E+00  0.27823300682E+03  0.27823300682E+03  0.00000000000E+00 0.  1.
         -2   -1    0    0    0  501 -0.00000000000E+00 -0.00000000000E+00 -0.46369472321E+03  0.46369472321E+03  0.00000000000E+00 0. -1.
         25    2    1    2    0    0  0.11054836737E+02  0.18870635726E+03 -0.38772935391E+03  0.44912578800E+03  0.12509045881E+03 0.  0.
         23    2    1    2    0    0 -0.11054836737E+02 -0.18870635726E+03  0.20226763752E+03  0.29280194203E+03  0.95333527081E+02 0.  0.
          5    1    3    3  502    0  0.62140095004E+02  0.53832905729E+02 -0.14606858886E+03  0.16766895419E+03  0.41800000000E+01 0.  1.
         -5    1    3    3    0  502 -0.51085258267E+02  0.13487345153E+03 -0.24166076505E+03  0.28145683382E+03  0.41800000000E+01 0.  1.
        -11    1    4    4    0    0  0.21403456652E+02 -0.48188898892E+01  0.80242761772E+01  0.23360622094E+02  0.00000000000E+00 0. -1.
         11    1    4    4    0    0 -0.32458293389E+02 -0.18388746737E+03  0.19424336134E+03  0.26944131994E+03  0.00000000000E+00 0.  1.
</event>
<event>
 8    1  0.6493926E-009  0.9974335E+02  0.7561462E-02  0.1280837E+00
         -1   -1    0    0    0  501 -0.00000000000E+00  0.00000000000E+00  0.19501092608E+02  0.19501092608E+02  0.00000000000E+00 0.  1.
          1   -1    0    0  501    0  0.00000000000E+00 -0.00000000000E+00 -0.95060875259E+03  0.95060875259E+03  0.00000000000E+00 0. -1.
         25    2    1    2    0    0 -0.86017327029E+01 -0.81275432557E+02 -0.62767816191E+03  0.64521954671E+03  0.12509477517E+03 0.  0.
         23    2    1    2    0    0  0.86017327029E+01  0.81275432557E+02 -0.30342949807E+03  0.32489029849E+03  0.82489756993E+02 0.  0.
          5    1    3    3  502    0 -0.24227973306E+02 -0.42989808675E+02 -0.57941145677E+03  0.58152405538E+03  0.41800000000E+01 0. -1.
         -5    1    3    3    0  502  0.15626240603E+02 -0.38285623882E+02 -0.48266705133E+02  0.63695491331E+02  0.41800000000E+01 0. -1.
        -11    1    4    4    0    0  0.22671098204E+02 -0.30804828928E+01 -0.12435804075E+03  0.12644520698E+03  0.00000000000E+00 0. -1.
         11    1    4    4    0    0 -0.14069365501E+02  0.84355915450E+02 -0.17907145732E+03  0.19844509151E+03  0.00000000000E+00 0.  1.
</event>
<event>
 8    1  0.6493926E-009  0.2097914E+03  0.7561462E-02  0.1141731E+00
         -1   -1    0    0    0  501 -0.00000000000E+00  0.00000000000E+00  0.93802915398E+02  0.93802915398E+02  0.00000000000E+00 0.  1.
          1   -1    0    0  501    0  0.00000000000E+00 -0.00000000000E+00 -0.49007878992E+03  0.49007878992E+03  0.00000000000E+00 0. -1.
         25    2    1    2    0    0 -0.58653545055E+02  0.17452125692E+03 -0.19413686383E+03  0.29535523456E+03  0.12509070797E+03 0.  0.
         23    2    1    2    0    0  0.58653545055E+02 -0.17452125692E+03 -0.20213901069E+03  0.28852647075E+03  0.92138142045E+02 0.  0.
          5    1    3    3  502    0  0.24715273819E+02  0.10583903623E+03 -0.13062773982E+03  0.16998183773E+03  0.41800000000E+01 0. -1.
         -5    1    3    3    0  502 -0.83368818874E+02  0.68682220690E+02 -0.63509124014E+02  0.12537339683E+03  0.41800000000E+01 0. -1.
        -11    1    4    4    0    0  0.34345545997E+01 -0.13444565068E+03 -0.10924597297E+03  0.17326890016E+03  0.00000000000E+00 0. -1.
         11    1    4    4    0    0  0.55218990456E+02 -0.40075606235E+02 -0.92893037724E+02  0.11525757060E+03  0.00000000000E+00 0.  1.
</event>
<event>
 8    1  0.6493926E-009  0.1182288E+03  0.7561462E-02  0.1246048E+00
         -1   -1    0    0    0  501 -0.00000000000E+00  0.00000000000E+00  0.39203156647E+02  0.39203156647E+02  0.00000000000E+00 0.  1.
          1   -1    0    0  501    0  0.00000000000E+00 -0.00000000000E+00 -0.36403349230E+03  0.36403349230E+03  0.00000000000E+00 0. -1.
         25    2    1    2    0    0  0.91188136304E+01 -0.49157091298E+02 -0.17369025218E+03  0.21980601999E+03  0.12508721092E+03 0.  0.
         23    2    1    2    0    0 -0.91188136304E+01  0.49157091298E+02 -0.15114008347E+03  0.18343062895E+03  0.91125728636E+02 0.  0.
          5    1    3    3  502    0 -0.40647315122E+00  0.42087289627E+02 -0.64492204426E+02  0.77124717182E+02  0.41800000000E+01 0.  1.
         -5    1    3    3    0  502  0.95252867816E+01 -0.91244380925E+02 -0.10919804775E+03  0.14268130281E+03  0.41800000000E+01 0.  1.
        -11    1    4    4    0    0 -0.48793688202E+02  0.18486373175E+02 -0.60927425846E+02  0.80216714105E+02  0.00000000000E+00 0.  1.
         11    1    4    4    0    0  0.39674874572E+02  0.30670718124E+02 -0.90212657626E+02  0.10321391485E+03  0.00000000000E+00 0. -1.
</event>
<event>
 8    1  0.6493926E-009  0.1250462E+03  0.7561462E-02  0.1234997E+00
         -1   -1    0    0    0  501 -0.00000000000E+00  0.00000000000E+00  0.38738318008E+03  0.38738318008E+03  0.00000000000E+00 0.  1.
          1   -1    0    0  501    0  0.00000000000E+00 -0.00000000000E+00 -0.50907477254E+02  0.50907477254E+02  0.00000000000E+00 0. -1.
         25    2    1    2    0    0 -0.73179856359E+02 -0.91650763964E+01  0.10548259146E+03  0.17947959226E+03  0.12508819663E+03 0.  0.
         23    2    1    2    0    0  0.73179856359E+02  0.91650763964E+01  0.23099311137E+03  0.25881106507E+03  0.90476847320E+02 0.  0.
          5    1    3    3  502    0  0.27058398154E+02 -0.30057604130E+02  0.16929274898E+02  0.44041903061E+02  0.41800000000E+01 0. -1.
         -5    1    3    3    0  502 -0.10023825451E+03  0.20892527733E+02  0.88553316559E+02  0.13543768920E+03  0.41800000000E+01 0. -1.
        -11    1    4    4    0    0  0.44325705216E+02 -0.33422761491E+02  0.67391455428E+02  0.87312412595E+02  0.00000000000E+00 0. -1.
         11    1    4    4    0    0  0.28854151143E+02  0.42587837887E+02  0.16360165594E+03  0.17149865248E+03  0.00000000000E+00 0.  1.
</event>
<event>
 8    1  0.6493926E-009  0.9740338E+02  0.7561462E-02  0.1285853E+00
          2   -1    0    0  501    0  0.00000000000E+00  0.00000000000E+00  0.14666839926E+03  0.14666839926E+03  0.00000000000E+00 0. -1.
         -2   -1    0    0    0  501 -0.00000000000E+00 -0.00000000000E+00 -0.83832304877E+02  0.83832304877E+02  0.00000000000E+00 0.  1.
         25    2    1    2    0    0 -0.27134419317E+02  0.42883297354E+01  0.34966674669E+02  0.13275852537E+03  0.12508993260E+03 0.  0.
         23    2    1    2    0    0  0.27134419317E+02 -0.42883297354E+01  0.27869419717E+02  0.97742178772E+02  0.89566525400E+02 0.  0.
          5    1    3    3  502    0 -0.63659762455E+02 -0.19322443911E+02 -0.12957651198E+02  0.67906518974E+02  0.41800000000E+01 0. -1.
         -5    1    3    3    0  502  0.36525343138E+02  0.23610773647E+02  0.47924325867E+02  0.64852006394E+02  0.41800000000E+01 0. -1.
        -11    1    4    4    0    0  0.19852980975E+02  0.37289334817E+02  0.35091239330E+02  0.54918397850E+02  0.00000000000E+00 0. -1.
         11    1    4    4    0    0  0.72814383418E+01 -0.41577664552E+02 -0.72218196136E+01  0.42823780922E+02  0.00000000000E+00 0.  1.
</event>
<event>
 8    1  0.6493926E-009  0.9735924E+02  0.7561462E-02  0.1285949E+00
          1   -1    0    0  501    0  0.00000000000E+00  0.00000000000E+00  0.24817548879E+04  0.24817548879E+04  0.00000000000E+00 0. -1.
         -1   -1    0    0    0  501 -0.00000000000E+00 -0.00000000000E+00 -0.19432605784E+02  0.19432605784E+02  0.00000000000E+00 0.  1.
         25    2    1    2    0    0  0.39240860425E+02 -0.69086643851E+02  0.22631177645E+04  0.22679643671E+04  0.12509014697E+03 0.  0.
         23    2    1    2    0    0 -0.39240860425E+02  0.69086643851E+02  0.19920451758E+03  0.23322312657E+03  0.91639388126E+02 0.  0.
          5    1    3    3  502    0 -0.97068863196E+01 -0.79708934548E+01  0.16240649297E+04  0.16241188772E+04  0.41800000000E+01 0.  1.
         -5    1    3    3    0  502  0.48947746745E+02 -0.61115750397E+02  0.63905283476E+03  0.64384548990E+03  0.41800000000E+01 0.  1.
        -11    1    4    4    0    0 -0.51863342221E+02  0.25697190946E+02  0.47328747054E+02  0.74767387186E+02  0.00000000000E+00 0.  1.
         11    1    4    4    0    0  0.12622481796E+02  0.43389452905E+02  0.15187577053E+03  0.15845573938E+03  0.00000000000E+00 0. -1.
</event>
<event>
 8    1  0.6493926E-009  0.1118933E+03  0.7561462E-02  0.1257103E+00
          2   -1    0    0  501    0  0.00000000000E+00  0.00000000000E+00  0.12428297507E+04  0.12428297507E+04  0.00000000000E+00 0.  1.
         -2   -1    0    0    0  501 -0.00000000000E+00 -0.00000000000E+00 -0.13977106378E+02  0.13977106378E+02  0.00000000000E+00 0. -1.
         25    2    1    2    0    0  0.18685752019E+02 -0.38039200715E+02  0.98121484564E+03  0.99006293315E+03  0.12508357273E+03 0.  0.
         23    2    1    2    0    0 -0.18685752019E+02  0.38039200715E+02  0.24763779869E+03  0.26674392394E+03  0.89619771811E+02 0.  0.
          5    1    3    3  502    0 -0.45536118621E+02  0.15541715547E+02  0.34895144481E+03  0.35227782538E+03  0.41800000000E+01 0.  1.
         -5    1    3    3    0  502  0.64221870640E+02 -0.53580916262E+02  0.63226340083E+03  0.63778510776E+03  0.41800000000E+01 0.  1.
        -11    1    4    4    0    0  0.16214846888E+02  0.51764683722E+02  0.19296821622E+03  0.20044758969E+03  0.00000000000E+00 0.  1.
         11    1    4    4    0    0 -0.34900598907E+02 -0.13725483007E+02  0.54669582470E+02  0.66296334252E+02  0.00000000000E+00 0. -1.
</event>
<event>
 8    1  0.6493926E-009  0.1039089E+03  0.7561462E-02  0.1272284E+00
         -2   -1    0    0    0  501 -0.00000000000E+00  0.00000000000E+00  0.40190314066E+02  0.40190314066E+02  0.00000000000E+00 0.  1.
          2   -1    0    0  501    0  0.00000000000E+00 -0.00000000000E+00 -0.48693658285E+03  0.48693658285E+03  0.00000000000E+00 0. -1.
         25    2    1    2    0    0  0.68602021906E+02  0.38281795074E+02 -0.32084132928E+03  0.35321138200E+03  0.12508952217E+03 0.  0.
         23    2    1    2    0    0 -0.68602021906E+02 -0.38281795074E+02 -0.12590493950E+03  0.17391551491E+03  0.90679762310E+02 0.  0.
          5    1    3    3  502    0 -0.16233482358E+02  0.40764658675E+02 -0.39050627141E+02  0.58887241627E+02  0.41800000000E+01 0.  1.
         -5    1    3    3    0  502  0.84835504264E+02 -0.24828636006E+01 -0.28179070214E+03  0.29432414038E+03  0.41800000000E+01 0.  1.
        -11    1    4    4    0    0 -0.27328804271E+02 -0.12087306407E+02  0.83588095377E+01  0.31029602253E+02  0.00000000000E+00 0.  1.
         11    1    4    4    0    0 -0.41273217635E+02 -0.26194488667E+02 -0.13426374904E+03  0.14288591266E+03  0.00000000000E+00 0. -1.
</event>
<event>
 8    1  0.6493926E-009  0.1107096E+03  0.7561462E-02  0.1259261E+00
          2   -1    0    0  501    0  0.00000000000E+00  0.00000000000E+00  0.12521037186E+04  0.12521037186E+04  0.00000000000E+00 0.  1.
         -2   -1    0    0    0  501 -0.00000000000E+00 -0.00000000000E+00 -0.11535296343E+02  0.11535296343E+02  0.00000000000E+00 0. -1.
         25    2    1    2    0    0 -0.44914904639E+02 -0.16617872230E+02  0.76214841941E+03  0.77382822947E+03  0.12508562339E+03 0.  0.
         23    2    1    2    0    0  0.44914904639E+02  0.16617872230E+02  0.47842000287E+03  0.48981078550E+03  0.93463383781E+02 0.  0.
          5    1    3    3  502    0 -0.79306941588E+02 -0.35344213413E+02  0.38828862360E+03  0.39789990201E+03  0.41800000000E+01 0.  1.
         -5    1    3    3    0  502  0.34392036950E+02  0.18726341182E+02  0.37385979582E+03  0.37592832746E+03  0.41800000000E+01 0.  1.
        -11    1    4    4    0    0  0.66727404544E+02  0.25668812030E+02  0.43040375766E+03  0.43630130533E+03  0.00000000000E+00 0.  1.
         11    1    4    4    0    0 -0.21812499905E+02 -0.90509397999E+01  0.48016245212E+02  0.53509480166E+02  0.00000000000E+00 0. -1.
</event>
<event>
 8    1  0.6493926E-009  0.1265071E+03  0.7561462E-02  0.1232733E+00
         -2   -1    0    0    0  501 -0.00000000000E+00  0.00000000000E+00  0.69465623918E+02  0.69465623918E+02  0.00000000000E+00 0.  1.
          2   -1    0    0  501    0  0.00000000000E+00 -0.00000000000E+00 -0.33055251944E+03  0.33055251944E+03  0.00000000000E+00 0. -1.
         25    2    1    2    0    0  0.42685162757E+02  0.78835414611E+02 -0.21412591018E+03  0.26369195883E+03  0.12508596254E+03 0.  0.
         23    2    1    2    0    0 -0.42685162757E+02 -0.78835414611E+02 -0.46960985338E+02  0.13632618452E+03  0.91337006336E+02 0.  0.
          5    1    3    3  502    0  0.51966766087E+02  0.10749149918E+03 -0.19180872069E+03  0.22597129222E+03  0.41800000000E+01 0.  1.
         -5    1    3    3    0  502 -0.92816033298E+01 -0.28656084567E+02 -0.22317189495E+02  0.37720666617E+02  0.41800000000E+01 0.  1.
        -11    1    4    4    0    0 -0.28534234329E+02 -0.62841058055E+01 -0.54689163518E+02  0.62004815304E+02  0.00000000000E+00 0. -1.
         11    1    4    4    0    0 -0.14150928429E+02 -0.72551308806E+02  0.77281781805E+01  0.74321369220E+02  0.00000000000E+00 0.  1.
</event>
<event>
 8    1  0.6493926E-009  0.1046513E+03  0.7561462E-02  0.1270808E+00
         -1   -1    0    0    0  501 -0.00000000000E+00  0.00000000000E+00  0.55889116853E+02  0.55889116853E+02  0.00000000000E+00 0.  1.
          1   -1    0    0  501    0  0.00000000000E+00 -0.00000000000E+00 -0.25210235155E+03  0.25210235155E+03  0.00000000000E+00 0. -1.
         25    2    1    2    0    0 -0.71956439926E+01 -0.63893688789E+01 -0.51096609796E+02  0.13546502762E+03  0.12508920356E+03 0.  0.
         23    2    1    2    0    0  0.71956439926E+01  0.63893688789E+01 -0.14511662490E+03  0.17252644079E+03  0.92811295762E+02 0.  0.
          5    1    3    3  502    0  0.13879007062E+02 -0.60296338528E+02 -0.66518825714E+01  0.62369826188E+02  0.41800000000E+01 0. -1.
         -5    1    3    3    0  502 -0.21074651055E+02  0.53906969649E+02 -0.44444727224E+02  0.73095201429E+02  0.41800000000E+01 0. -1.
        -11    1    4    4    0    0  0.47231245653E+02 -0.53581577364E+01 -0.51787416831E+02  0.70295355197E+02  0.00000000000E+00 0. -1.
         11    1    4    4    0    0 -0.40035601661E+02  0.11747526615E+02 -0.93329208074E+02  0.10223108559E+03  0.00000000000E+00 0.  1.
</event>
<event>
 8    1  0.6493926E-009  0.7995690E+02  0.7561462E-02  0.1329174E+00
         -2   -1    0    0    0  501 -0.00000000000E+00  0.00000000000E+00  0.70684280132E+02  0.70684280132E+02  0.00000000000E+00 0.  1.
          2   -1    0    0  501    0  0.00000000000E+00 -0.00000000000E+00 -0.34857707091E+03  0.34857707091E+03  0.00000000000E+00 0. -1.
         25    2    1    2    0    0 -0.16126727659E+01 -0.65929558517E+02 -0.27211699538E+03  0.30666733577E+03  0.12509151950E+03 0.  0.
         23    2    1    2    0    0  0.16126727659E+01  0.65929558517E+02 -0.57757953966E+01  0.11259401528E+03  0.91075491015E+02 0.  0.
          5    1    3    3  502    0 -0.10542196958E+02 -0.43349676108E+02 -0.13385186074E+02  0.46765029045E+02  0.41800000000E+01 0. -1.
         -5    1    3    3    0  502  0.89295241923E+01 -0.22579882410E+02 -0.25873180931E+03  0.25990230672E+03  0.41800000000E+01 0. -1.
        -11    1    4    4    0    0  0.31001135168E+02  0.23723729588E+02 -0.35863165576E+02  0.53009927112E+02  0.00000000000E+00 0. -1.
         11    1    4    4    0    0 -0.29388462402E+02  0.42205828929E+02  0.30087370179E+02  0.59584088163E+02  0.00000000000E+00 0.  1.
</event>
<event>
 8    1  0.6493926E-009  0.1423330E+03  0.7561462E-02  0.1210224E+00
          2   -1    0    0  501    0  0.00000000000E+00  0.00000000000E+00  0.30485562089E+03  0.30485562089E+03  0.00000000000E+00 0. -1.
         -2   -1    0    0    0  501 -0.00000000000E+00 -0.00000000000E+00 -0.12172194725E+03  0.12172194725E+03  0.00000000000E+00 0.  1.
         25    2    1    2    0    0  0.89923976415E+02  0.74120383310E+02 -0.23660559137E+02  0.17259636029E+03  0.12509807660E+03 0.  0.
         23    2    1    2    0    0 -0.89923976415E+02 -0.74120383310E+02  0.20679423278E+03  0.25398120785E+03  0.90346258757E+02 0.  0.
          5    1    3    3  502    0  0.70761965348E+02  0.11568350043E+02  0.39156395413E+02  0.81803289447E+02  0.41800000000E+01 0. -1.
         -5    1    3    3    0  502  0.19162011067E+02  0.62552033267E+02 -0.62816954549E+02  0.90793070842E+02  0.41800000000E+01 0. -1.
        -11    1    4    4    0    0  0.26599544802E+01 -0.52039784607E+02  0.67475828709E+02  0.85253750649E+02  0.00000000000E+00 0.  1.
         11    1    4    4    0    0 -0.92583930896E+02 -0.22080598703E+02  0.13931840407E+03  0.16872745720E+03  0.00000000000E+00 0. -1.
</event>
<event>
 8    1  0.6493926E-009  0.1843389E+03  0.7561462E-02  0.1163669E+00
          1   -1    0    0  501    0  0.00000000000E+00  0.00000000000E+00  0.84598081567E+02  0.84598081567E+02  0.00000000000E+00 0. -1.
         -1   -1    0    0    0  501 -0.00000000000E+00 -0.00000000000E+00 -0.48972089310E+03  0.48972089310E+03  0.00000000000E+00 0.  1.
         25    2    1    2    0    0 -0.13981987835E+03  0.73929608389E+02 -0.30503257626E+03  0.36566069842E+03  0.12509072072E+03 0.  0.
         23    2    1    2    0    0  0.13981987835E+03 -0.73929608389E+02 -0.10009023528E+03  0.20865827625E+03  0.92222750285E+02 0.  0.
          5    1    3    3  502    0 -0.58697970652E+02  0.92909429172E+02 -0.12045636635E+03  0.16310984759E+03  0.41800000000E+01 0.  1.
         -5    1    3    3    0  502 -0.81121907702E+02 -0.18979820783E+02 -0.18457620991E+03  0.20255085083E+03  0.41800000000E+01 0.  1.
        -11    1    4    4    0    0  0.12425757912E+03 -0.28808669321E+02 -0.98052340770E+02  0.16088550876E+03  0.00000000000E+00 0. -1.
         11    1    4    4    0    0  0.15562299230E+02 -0.45120939068E+02 -0.20378945054E+01  0.47772767491E+02  0.00000000000E+00 0.  1.
</event>
<event>
 8    1  0.6493926E-009  0.8449331E+02  0.7561462E-02  0.1316763E+00
          1   -1    0    0  501    0  0.00000000000E+00  0.00000000000E+00  0.34838649111E+03  0.34838649111E+03  0.00000000000E+00 0. -1.
         -1   -1    0    0    0  501 -0.00000000000E+00 -0.00000000000E+00 -0.44660202026E+02  0.44660202026E+02  0.00000000000E+00 0.  1.
         25    2    1    2    0    0  0.43451398671E+02  0.43391706807E+02  0.16419027280E+03  0.21535355732E+03  0.12509134543E+03 0.  0.
         23    2    1    2    0    0 -0.43451398671E+02 -0.43391706807E+02  0.13953601628E+03  0.17769313581E+03  0.91289026776E+02 0.  0.
          5    1    3    3  502    0 -0.29573773014E+01  0.50624896584E+02  0.71458895323E+01  0.51382510369E+02  0.41800000000E+01 0. -1.
         -5    1    3    3    0  502  0.46408775973E+02 -0.72331897765E+01  0.15704438327E+03  0.16397104695E+03  0.41800000000E+01 0. -1.
        -11    1    4    4    0    0  0.34027941850E+00 -0.22370334792E+02 -0.68982181124E+01  0.23412242137E+02  0.00000000000E+00 0.  1.
         11    1    4    4    0    0 -0.43791678090E+02 -0.21021372015E+02  0.14643423439E+03  0.15428089367E+03  0.00000000000E+00 0. -1.
</event>
<event>
 8    1  0.6493926E-009  0.6494060E+02  0.7561462E-02  0.1378195E+00
         -1   -1    0    0    0  501 -0.00000000000E+00  0.00000000000E+00  0.16626430480E+03  0.16626430480E+03  0.00000000000E+00 0. -1.
          1   -1    0    0  501    0  0.00000000000E+00 -0.00000000000E+00 -0.72792936961E+02  0.72792936961E+02  0.00000000000E+00 0.  1.
         25    2    1    2    0    0  0.15050481318E+01 -0.16057794103E+02  0.57441721201E+02  0.13859300213E+03  0.12509336906E+03 0.  0.
         23    2    1    2    0    0 -0.15050481318E+01  0.16057794103E+02  0.36029646637E+02  0.10046423964E+03  0.92384035890E+02 0.  0.
          5    1    3    3  502    0 -0.25370778715E+02 -0.17550333170E+00  0.89816601398E+02  0.93424844130E+02  0.41800000000E+01 0.  1.
         -5    1    3    3    0  502  0.26875826847E+02 -0.15882290772E+02 -0.32374880197E+02  0.45168157995E+02  0.41800000000E+01 0.  1.
        -11    1    4    4    0    0  0.14295255693E+02 -0.24933189947E+02 -0.15577829042E+02  0.32690779341E+02  0.00000000000E+00 0.  1.
         11    1    4    4    0    0 -0.15800303825E+02  0.40990984050E+02  0.51607475679E+02  0.67773460294E+02  0.00000000000E+00 0. -1.
</event>
<event>
 8    1  0.6493926E-009  0.1059818E+03  0.7561462E-02  0.1268197E+00
          3   -1    0    0  501    0  0.00000000000E+00  0.00000000000E+00  0.61257066200E+03  0.61257066200E+03  0.00000000000E+00 0. -1.
         -3   -1    0    0    0  501 -0.00000000000E+00 -0.00000000000E+00 -0.25120303901E+02  0.25120303901E+02  0.00000000000E+00 0.  1.
         25    2    1    2    0    0 -0.48235118780E+02 -0.26497509506E+02  0.38540032780E+03  0.40891347596E+03  0.12509225979E+03 0.  0.
         23    2    1    2    0    0  0.48235118780E+02  0.26497509506E+02  0.20205003030E+03  0.22877748994E+03  0.92120467138E+02 0.  0.
          5    1    3    3  502    0  0.86533731276E+01 -0.51238440448E+02  0.29261063006E+03  0.29721828993E+03  0.41800000000E+01 0. -1.
         -5    1    3    3    0  502 -0.56888491908E+02  0.24740930942E+02  0.92789697743E+02  0.11169518603E+03  0.41800000000E+01 0. -1.
        -11    1    4    4    0    0 -0.21931352324E+02  0.14957209362E+02  0.19712909149E+02  0.33065104170E+02  0.00000000000E+00 0.  1.
         11    1    4    4    0    0  0.70166471104E+02  0.11540300144E+02  0.18233712115E+03  0.19571238577E+03  0.00000000000E+00 0. -1.
</event>
<event>
 8    1  0.6493926E-009  0.9431341E+02  0.7561462E-02  0.1292730E+00
          2   -1    0    0  501    0  0.00000000000E+00  0.00000000000E+00  0.78018633787E+03  0.78018633787E+03  0.00000000000E+00 0.  1.
         -2   -1    0    0    0  501 -0.00000000000E+00 -0.00000000000E+00 -0.25533021280E+02  0.25533021280E+02  0.00000000000E+00 0. -1.
         25    2    1    2    0    0  0.27968186049E+02 -0.72631099785E+02  0.54388984462E+03  0.56348990996E+03  0.12508884627E+03 0.  0.
         23    2    1    2    0    0 -0.27968186049E+02  0.72631099785E+02  0.21076347197E+03  0.24222944919E+03  0.90533799494E+02 0.  0.
          5    1    3    3  502    0 -0.18844743653E+02 -0.14783589075E+02  0.40615135664E+03  0.40687845331E+03  0.41800000000E+01 0. -1.
         -5    1    3    3    0  502  0.46812929703E+02 -0.57847510711E+02  0.13773848798E+03  0.15661145665E+03  0.41800000000E+01 0. -1.
        -11    1    4    4    0    0  0.63001211733E+01  0.45868454540E+02  0.27438959129E+02  0.53819170625E+02  0.00000000000E+00 0. -1.
         11    1    4    4    0    0 -0.34268307223E+02  0.26762645245E+02  0.18332451284E+03  0.18841027856E+03  0.00000000000E+00 0.  1.
</event>
<event>
 8    1  0.6493926E-009  0.2854002E+03  0.7561462E-02  0.1092775E+00
          2   -1    0    0  501    0  0.00000000000E+00  0.00000000000E+00  0.70565764494E+03  0.70565764494E+03  0.00000000000E+00 0. -1.
         -2   -1    0    0    0  501 -0.00000000000E+00 -0.00000000000E+00 -0.16702571696E+03  0.16702571696E+03  0.00000000000E+00 0.  1.
         25    2    1    2    0    0 -0.20466499308E+03  0.16539406814E+03  0.51540763463E+03  0.59206100606E+03  0.12509295699E+03 0.  0.
         23    2    1    2    0    0  0.20466499308E+03 -0.16539406814E+03  0.23224293347E+02  0.28062235585E+03  0.94692035728E+02 0.  0.
          5    1    3    3  502    0 -0.10944610651E+03  0.16247212360E+03  0.35247298336E+03  0.40327449408E+03  0.41800000000E+01 0.  1.
         -5    1    3    3    0  502 -0.95218886576E+02  0.29219445466E+01  0.16293465127E+03  0.18878651198E+03  0.41800000000E+01 0.  1.
        -11    1    4    4    0    0  0.75233104897E+02 -0.12135754408E+03  0.71759986672E+01  0.14296562011E+03  0.00000000000E+00 0.  1.
         11    1    4    4    0    0  0.12943188819E+03 -0.44036524061E+02  0.16048294680E+02  0.13765673574E+03  0.00000000000E+00 0. -1.
</event>
<event>
 8    1  0.6493926E-009  0.1216625E+03  0.7561462E-02  0.1240379E+00
         -2   -1    0    0    0  501 -0.00000000000E+00  0.00000000000E+00  0.28928505459E+02  0.28928505459E+02  0.00000000000E+00 0.  1.
          2   -1    0    0  501    0  0.00000000000E+00 -0.00000000000E+00 -0.58275190797E+03  0.58275190797E+03  0.00000000000E+00 0. -1.
         25    2    1    2    0    0  0.62274398255E+02  0.18351831370E+02 -0.40585314002E+03  0.42962609902E+03  0.12508766247E+03 0.  0.
         23    2    1    2    0    0 -0.62274398255E+02 -0.18351831370E+02 -0.14797026249E+03  0.18205431441E+03  0.83867063979E+02 0.  0.
          5    1    3    3  502    0  0.97215739664E+02 -0.69970296799E+01 -0.28268243686E+03  0.29904295840E+03  0.41800000000E+01 0.  1.
         -5    1    3    3    0  502 -0.34941341409E+02  0.25348861050E+02 -0.12317070316E+03  0.13058314062E+03  0.41800000000E+01 0.  1.
        -11    1    4    4    0    0 -0.78068606535E+02 -0.29076128997E+02 -0.13610461940E+03  0.15957630158E+03  0.00000000000E+00 0. -1.
         11    1    4    4    0    0  0.15794208280E+02  0.10724297627E+02 -0.11865643092E+02  0.22478012830E+02  0.00000000000E+00 0.  1.
</event>
<event>
 8    1  0.6493926E-009  0.1160534E+03  0.7561462E-02  0.1249754E+00
         -1   -1    0    0    0  501 -0.00000000000E+00  0.00000000000E+00  0.48680920915E+03  0.48680920915E+03  0.00000000000E+00 0.  1.
          1   -1    0    0  501    0  0.00000000000E+00 -0.00000000000E+00 -0.44234589184E+02  0.44234589184E+02  0.00000000000E+00 0. -1.
         25    2    1    2    0    0  0.15480015731E+02  0.94516504806E+02  0.28493675923E+03  0.32559088946E+03  0.12508984760E+03 0.  0.
         23    2    1    2    0    0 -0.15480015731E+02 -0.94516504806E+02  0.15763786074E+03  0.20545290888E+03  0.90488684703E+02 0.  0.
          5    1    3    3  502    0  0.39310298761E+02  0.91204165152E+02  0.28428474168E+03  0.30116239155E+03  0.41800000000E+01 0.  1.
         -5    1    3    3    0  502 -0.23830283029E+02  0.33123396542E+01  0.65201754427E+00  0.24428497910E+02  0.41800000000E+01 0.  1.
        -11    1    4    4    0    0  0.10120428847E+02  0.24679933200E+00 -0.80072808833E+01  0.12907383046E+02  0.00000000000E+00 0. -1.
         11    1    4    4    0    0 -0.25600444578E+02 -0.94763304138E+02  0.16564514163E+03  0.19254552583E+03  0.00000000000E+00 0.  1.
</event>
<event>
 8    1  0.6493926E-009  0.7968879E+02  0.7561462E-02  0.1329937E+00
          2   -1    0    0  501    0  0.00000000000E+00  0.00000000000E+00  0.12023864395E+03  0.12023864395E+03  0.00000000000E+00 0. -1.
         -2   -1    0    0    0  501 -0.00000000000E+00 -0.00000000000E+00 -0.17198456258E+03  0.17198456258E+03  0.00000000000E+00 0.  1.
         25    2    1    2    0    0  0.25433831721E+02  0.31442861383E+02 -0.11464562413E+03  0.17443248135E+03  0.12509011987E+03 0.  0.
         23    2    1    2    0    0 -0.25433831721E+02 -0.31442861383E+02  0.62899705504E+02  0.11779072517E+03  0.91009607490E+02 0.  0.
          5    1    3    3  502    0 -0.36660342360E+02 -0.58468229469E+01  0.16132397068E+01  0.37393060624E+02  0.41800000000E+01 0.  1.
         -5    1    3    3    0  502  0.62094174081E+02  0.37289684330E+02 -0.11625886384E+03  0.13703942073E+03  0.41800000000E+01 0.  1.
        -11    1    4    4    0    0 -0.27359914681E+02 -0.11908783149E+02 -0.17795287289E+02  0.34742715742E+02  0.00000000000E+00 0.  1.
         11    1    4    4    0    0  0.19260829597E+01 -0.19534078234E+02  0.80694992793E+02  0.83048009428E+02  0.00000000000E+00 0. -1.
</event>
<event>
 8    1  0.6493926E-009  0.1291740E+03  0.7561462E-02  0.1228687E+00
         -2   -1    0    0    0  501 -0.00000000000E+00  0.00000000000E+00  0.17652629244E+03  0.17652629244E+03  0.00000000000E+00 0. -1.
          2   -1    0    0  501    0  0.00000000000E+00 -0.00000000000E+00 -0.11052794116E+03  0.11052794116E+03  0.00000000000E+00 0.  1.
         25    2    1    2    0    0  0.82820730998E+02  0.20712518794E+02  0.54051168517E+02  0.16079736281E+03  0.12508389645E+03 0.  0.
         23    2    1    2    0    0 -0.82820730998E+02 -0.20712518794E+02  0.11947182763E+02  0.12625687079E+03  0.92248470602E+02 0.  0.
          5    1    3    3  502    0 -0.25367566762E+02  0.14361884500E+02  0.42532048663E+02  0.51732240752E+02  0.41800000000E+01 0.  1.
         -5    1    3    3    0  502  0.10818829776E+03  0.63506342940E+01  0.11519119854E+02  0.10906512206E+03  0.41800000000E+01 0.  1.
        -11    1    4    4    0    0 -0.29614090441E+02  0.33343103873E+02 -0.12931693665E+02  0.46432592320E+02  0.00000000000E+00 0.  1.
         11    1    4    4    0    0 -0.53206640557E+02 -0.54055622667E+02  0.24878876428E+02  0.79824278472E+02  0.00000000000E+00 0. -1.
</event>
<event>
 8    1  0.6493926E-009  0.1223767E+03  0.7561462E-02  0.1239227E+00
          2   -1    0    0  501    0  0.00000000000E+00  0.00000000000E+00  0.97366202667E+02  0.97366202667E+02  0.00000000000E+00 0. -1.
         -2   -1    0    0    0  501 -0.00000000000E+00 -0.00000000000E+00 -0.22975265900E+03  0.22975265900E+03  0.00000000000E+00 0.  1.
         25    2    1    2    0    0 -0.76348808285E+02  0.42946210287E+02 -0.14184527937E+02  0.15336314928E+03  0.12508212191E+03 0.  0.
         23    2    1    2    0    0  0.76348808285E+02 -0.42946210287E+02 -0.11820192840E+03  0.17375571238E+03  0.92443681257E+02 0.  0.
          5    1    3    3  502    0 -0.22248776465E+02 -0.41729546479E+02 -0.22330325302E+02  0.52464072770E+02  0.41800000000E+01 0. -1.
         -5    1    3    3    0  502 -0.54100031819E+02  0.84675756766E+02  0.81457973646E+01  0.10089907651E+03  0.41800000000E+01 0. -1.
        -11    1    4    4    0    0  0.58022291986E+02 -0.98143500862E+01 -0.10739791950E+02  0.59818483481E+02  0.00000000000E+00 0. -1.
         11    1    4    4    0    0  0.18326516299E+02 -0.33131860201E+02 -0.10746213645E+03  0.11393722890E+03  0.00000000000E+00 0.  1.
</event>
<event>
 8    1  0.6493926E-009  0.1238632E+03  0.7561462E-02  0.1236857E+00
         -1   -1    0    0    0  501 -0.00000000000E+00  0.00000000000E+00  0.22233613212E+03  0.22233613212E+03  0.00000000000E+00 0.  1.
          1   -1    0    0  501    0  0.00000000000E+00 -0.00000000000E+00 -0.73934720520E+02  0.73934720520E+02  0.00000000000E+00 0. -1.
         25    2    1    2    0    0  0.63516874226E+02 -0.16707496524E+02  0.55567691501E+02  0.15181755559E+03  0.12508904066E+03 0.  0.
         23    2    1    2    0    0 -0.63516874226E+02  0.16707496524E+02  0.92833720101E+02  0.14445329705E+03  0.89079300011E+02 0.  0.
          5    1    3    3  502    0 -0.21713143640E+02 -0.44764761960E+02  0.30702710031E+02  0.58612910892E+02  0.41800000000E+01 0.  1.
         -5    1    3    3    0  502  0.85230017866E+02  0.28057265435E+02  0.24864981470E+02  0.93204644695E+02  0.41800000000E+01 0.  1.
        -11    1    4    4    0    0 -0.74131209266E+02  0.38646231143E+02  0.57251213690E+02  0.10132457174E+03  0.00000000000E+00 0. -1.
         11    1    4    4    0    0  0.10614335039E+02 -0.21938734619E+02  0.35582506411E+02  0.43128725318E+02  0.00000000000E+00 0.  1.
</event>
<event>
 8    1  0.6493926E-009  0.1341004E+03  0.7561462E-02  0.1221495E+00
         -1   -1    0    0    0  501 -0.00000000000E+00  0.00000000000E+00  0.33420596333E+03  0.33420596333E+03  0.00000000000E+00 0.  1.
          1   -1    0    0  501    0  0.00000000000E+00 -0.00000000000E+00 -0.89582710456E+02  0.89582710456E+02  0.00000000000E+00 0. -1.
         25    2    1    2    0    0  0.87931393067E+02 -0.75769504125E+02  0.21270639548E+03  0.27269244601E+03  0.12507682356E+03 0.  0.
         23    2    1    2    0    0 -0.87931393067E+02  0.75769504125E+02  0.31916857392E+02  0.15109622777E+03  0.91315040484E+02 0.  0.
          5    1    3    3  502    0  0.62204814534E+02 -0.85950975082E+02  0.21955642924E+03  0.24388420837E+03  0.41800000000E+01 0.  1.
         -5    1    3    3    0  502  0.25726578533E+02  0.10181470957E+02 -0.68500337605E+01  0.28808237648E+02  0.41800000000E+01 0.  1.
        -11    1    4    4    0    0 -0.78477360458E+02  0.24952869813E+02  0.49995332650E+02  0.96337298608E+02  0.00000000000E+00 0.  1.
         11    1    4    4    0    0 -0.94540326096E+01  0.50816634312E+02 -0.18078475258E+02  0.54758929162E+02  0.00000000000E+00 0. -1.
</event>
<event>
 8    1  0.6493926E-009  0.1297631E+03  0.7561462E-02  0.1227808E+00
         -2   -1    0    0    0  501 -0.00000000000E+00  0.00000000000E+00  0.65805024606E+03  0.65805024606E+03  0.00000000000E+00 0.  1.
          2   -1    0    0  501    0  0.00000000000E+00 -0.00000000000E+00 -0.36760164536E+02  0.36760164536E+02  0.00000000000E+00 0. -1.
         25    2    1    2    0    0  0.36309704538E+02  0.96160334660E+02  0.43292144982E+03  0.46220450178E+03  0.12508723015E+03 0.  0.
         23    2    1    2    0    0 -0.36309704538E+02 -0.96160334660E+02  0.18836863171E+03  0.23260590882E+03  0.89763928171E+02 0.  0.
          5    1    3    3  502    0  0.40112233047E+00 -0.26799093444E+02  0.35814231343E+02  0.44927540276E+02  0.41800000000E+01 0.  1.
         -5    1    3    3    0  502  0.35908582208E+02  0.12295942810E+03  0.39710721847E+03  0.41727696150E+03  0.41800000000E+01 0.  1.
        -11    1    4    4    0    0 -0.46105121416E+01 -0.35451047029E+02  0.40542758725E+01  0.35978753599E+02  0.00000000000E+00 0. -1.
         11    1    4    4    0    0 -0.31699192397E+02 -0.60709287630E+02  0.18431435583E+03  0.19662715522E+03  0.00000000000E+00 0.  1.
</event>
<event>
 7    1  0.6493926E-009  0.1163429E+03  0.7561462E-02  0.1249255E+00
          2   -1    0    0  501    0  0.00000000000E+00  0.00000000000E+00  0.82579762765E+03  0.82579762765E+03  0.00000000000E+00 0. -1.
         -2   -1    0    0    0  501 -0.00000000000E+00 -0.00000000000E+00 -0.24783685961E+02  0.24783685961E+02  0.00000000000E+00 0.  1.
         23    2    1    2    0    0  0.70433237434E+02 -0.23992376743E+02  0.20294751343E+03  0.23502467775E+03  0.92262835782E+02 0.  0.
          5    1    1    2  502    0 -0.95561855895E+02  0.37016779445E+02  0.55109213368E+03  0.56055536967E+03  0.41800000000E+01 0.  1.
         -5    1    1    2    0  502  0.25128618461E+02 -0.13024402702E+02  0.46974294578E+02  0.55001266191E+02  0.41800000000E+01 0.  1.
        -11    1    3    3    0    0 -0.14099084152E+02 -0.32093902145E+01  0.29027456912E+00  0.14462662922E+02  0.00000000000E+00 0.  1.
         11    1    3    3    0    0  0.84532321586E+02 -0.20782986529E+02  0.20265723887E+03  0.22056201483E+03  0.00000000000E+00 0. -1.
</event>
<event>
 8    1  0.6493926E-009  0.9475107E+02  0.7561462E-02  0.1291738E+00
         -2   -1    0    0    0  501 -0.00000000000E+00  0.00000000000E+00  0.46491162660E+02  0.46491162660E+02  0.00000000000E+00 0.  1.
          2   -1    0    0  501    0  0.00000000000E+00 -0.00000000000E+00 -0.27234625747E+03  0.27234625747E+03  0.00000000000E+00 0. -1.
         25    2    1    2    0    0  0.27092012046E+02 -0.12050445476E+02 -0.14846591377E+03  0.19639309226E+03  0.12509567851E+03 0.  0.
         23    2    1    2    0    0 -0.27092012046E+02  0.12050445476E+02 -0.77389181040E+02  0.12244432787E+03  0.90135108216E+02 0.  0.
          5    1    3    3  502    0 -0.23944329413E+02 -0.38684910792E+02 -0.12673420232E+03  0.13471779271E+03  0.41800000000E+01 0.  1.
         -5    1    3    3    0  502  0.51036341459E+02  0.26634465316E+02 -0.21731711450E+02  0.61675299551E+02  0.41800000000E+01 0.  1.
        -11    1    4    4    0    0 -0.51854768690E+02 -0.10148696311E+02 -0.20757081968E+02  0.56769441820E+02  0.00000000000E+00 0.  1.
         11    1    4    4    0    0  0.24762756644E+02  0.22199141788E+02 -0.56632099072E+02  0.65674886052E+02  0.00000000000E+00 0. -1.
</event>
<event>
 8    1  0.6493926E-009  0.8367618E+02  0.7561462E-02  0.1318931E+00
         -1   -1    0    0    0  501 -0.00000000000E+00  0.00000000000E+00  0.65803142483E+02  0.65803142483E+02  0.00000000000E+00 0.  1.
          1   -1    0    0  501    0  0.00000000000E+00 -0.00000000000E+00 -0.23990794114E+03  0.23990794114E+03  0.00000000000E+00 0. -1.
         25    2    1    2    0    0 -0.21983134388E+02  0.56082635203E+02 -0.49781565257E+02  0.14749296178E+03  0.12508976523E+03 0.  0.
         23    2    1    2    0    0  0.21983134388E+02 -0.56082635203E+02 -0.12432323340E+03  0.15821812185E+03  0.77124493832E+02 0.  0.
          5    1    3    3  502    0 -0.43578914373E+02 -0.29922401901E+01 -0.68841197546E+02  0.81637357618E+02  0.41800000000E+01 0. -1.
         -5    1    3    3    0  502  0.21595779985E+02  0.59074875393E+02  0.19059632290E+02  0.65855604157E+02  0.41800000000E+01 0. -1.
        -11    1    4    4    0    0  0.59156807035E+01 -0.21537250643E+02  0.54312769857E+01  0.22985804600E+02  0.00000000000E+00 0.  1.
         11    1    4    4    0    0  0.16067453684E+02 -0.34545384561E+02 -0.12975451039E+03  0.13523231725E+03  0.00000000000E+00 0. -1.
</event>
<event>
 8    1  0.6493926E-009  0.2788985E+03  0.7561462E-02  0.1096292E+00
         -2   -1    0    0    0  501 -0.00000000000E+00  0.00000000000E+00  0.44883049851E+02  0.44883049851E+02  0.00000000000E+00 0.  1.
          2   -1    0    0  501    0  0.00000000000E+00 -0.00000000000E+00 -0.19421569628E+04  0.19421569628E+04  0.00000000000E+00 0. -1.
         25    2    1    2    0    0  0.14214775429E+03  0.22717626967E+03 -0.11406441753E+04  0.11783606201E+04  0.12509826134E+03 0.  0.
         23    2    1    2    0    0 -0.14214775429E+03 -0.22717626967E+03 -0.75662973766E+03  0.80867939248E+03  0.98278982302E+02 0.  0.
          5    1    3    3  502    0  0.10421047864E+02  0.58938581903E+02 -0.48661646661E+03  0.49030134881E+03  0.41800000000E+01 0. -1.
         -5    1    3    3    0  502  0.13172670642E+03  0.16823768777E+03 -0.65402770865E+03  0.68805927132E+03  0.41800000000E+01 0. -1.
        -11    1    4    4    0    0 -0.15505990114E+03 -0.19314231977E+03 -0.63060481381E+03  0.67750273787E+03  0.00000000000E+00 0.  1.
         11    1    4    4    0    0  0.12912146854E+02 -0.34033949903E+02 -0.12602492385E+03  0.13117665461E+03  0.00000000000E+00 0. -1.
</event>
<event>
 8    1  0.6493926E-009  0.5260849E+02  0.7561462E-02  0.1431759E+00
          1   -1    0    0  501    0  0.00000000000E+00  0.00000000000E+00  0.18547455742E+03  0.18547455742E+03  0.00000000000E+00 0. -1.
         -1   -1    0    0    0  501 -0.00000000000E+00 -0.00000000000E+00 -0.88633012207E+02  0.88633012207E+02  0.00000000000E+00 0.  1.
         25    2    1    2    0    0 -0.14294836052E+02  0.17149727191E+02  0.12241530501E+03  0.17647181775E+03  0.12513328925E+03 0.  0.
         23    2    1    2    0    0  0.14294836052E+02 -0.17149727191E+02 -0.25573759794E+02  0.97635751878E+02  0.91543800306E+02 0.  0.
          5    1    3    3  502    0  0.27177618904E+02  0.15185166986E+02 -0.13577856606E+02  0.34220503440E+02  0.41800000000E+01 0.  1.
         -5    1    3    3    0  502 -0.41472454956E+02  0.19645602048E+01  0.13599316161E+03  0.14225131431E+03  0.41800000000E+01 0.  1.
        -11    1    4    4    0    0  0.16804673262E+02 -0.22355541372E+01 -0.58764899003E+02  0.61161328473E+02  0.00000000000E+00 0.  1.
         11    1    4    4    0    0 -0.25098372100E+01 -0.14914173054E+02  0.33191139210E+02  0.36474423405E+02  0.00000000000E+00 0. -1.
</event>
<event>
 8    1  0.6493926E-009  0.6079931E+02  0.7561462E-02  0.1394508E+00
          1   -1    0    0  501    0  0.00000000000E+00  0.00000000000E+00  0.21857909687E+03  0.21857909687E+03  0.00000000000E+00 0. -1.
         -1   -1    0    0    0  501 -0.00000000000E+00 -0.00000000000E+00 -0.63291450754E+02  0.63291450754E+02  0.00000000000E+00 0.  1.
         25    2    1    2    0    0  0.28405206355E+02  0.28203292345E+02  0.11372405115E+03  0.17373034526E+03  0.12508713606E+03 0.  0.
         23    2    1    2    0    0 -0.28405206355E+02 -0.28203292345E+02  0.41563594968E+02  0.10814020236E+03  0.91457583025E+02 0.  0.
          5    1    3    3  502    0 -0.13816910133E+02  0.19281660178E+02  0.12630845651E+03  0.12858455588E+03  0.41800000000E+01 0. -1.
         -5    1    3    3    0  502  0.42222116487E+02  0.89216321679E+01 -0.12584405358E+02  0.45145789387E+02  0.41800000000E+01 0. -1.
        -11    1    4    4    0    0 -0.22938033934E+02 -0.37155785128E+02  0.67369942734E+02  0.80283341692E+02  0.00000000000E+00 0. -1.
         11    1    4    4    0    0 -0.54671724209E+01  0.89524927825E+01 -0.25806347766E+02  0.27856860669E+02  0.00000000000E+00 0.  1.
</event>
<event>
 8    1  0.6493926E-009  0.1050825E+03  0.7561462E-02  0.1269957E+00
          2   -1    0    0  501    0  0.00000000000E+00  0.00000000000E+00  0.22500756412E+03  0.22500756412E+03  0.00000000000E+00 0. -1.
         -2   -1    0    0    0  501 -0.00000000000E+00 -0.00000000000E+00 -0.84708099150E+02  0.84708099150E+02  0.00000000000E+00 0.  1.
         25    2    1    2    0    0  0.16250208374E+02  0.53384811406E+02  0.14892603247E+03  0.20233580197E+03  0.12508719459E+03 0.  0.
         23    2    1    2    0    0 -0.16250208374E+02 -0.53384811406E+02 -0.86265675045E+01  0.10737986130E+03  0.91334602336E+02 0.  0.
          5    1    3    3  502    0 -0.95846799215E+00 -0.32114525401E+02  0.93404259973E+02  0.98863995387E+02  0.41800000000E+01 0.  1.
         -5    1    3    3    0  502  0.17208676366E+02  0.85499336807E+02  0.55521772501E+02  0.10347180659E+03  0.41800000000E+01 0.  1.
        -11    1    4    4    0    0 -0.43707205118E+02 -0.22612208847E+02 -0.33209737402E+02  0.59367654716E+02  0.00000000000E+00 0. -1.
         11    1    4    4    0    0  0.27456996744E+02 -0.30772602559E+02  0.24583169897E+02  0.48012206580E+02  0.00000000000E+00 0.  1.
</event>
<event>
 8    1  0.6493926E-009  0.1249453E+03  0.7561462E-02  0.1235155E+00
          2   -1    0    0  501    0  0.00000000000E+00  0.00000000000E+00  0.41287998543E+02  0.41287998543E+02  0.00000000000E+00 0. -1.
         -2   -1    0    0    0  501 -0.00000000000E+00 -0.00000000000E+00 -0.43142075502E+03  0.43142075502E+03  0.00000000000E+00 0.  1.
         25    2    1    2    0    0  0.59556246994E+02 -0.42583406222E+02 -0.24607929904E+03  0.28559129273E+03  0.12508825693E+03 0.  0.
         23    2    1    2    0    0 -0.59556246994E+02  0.42583406222E+02 -0.14405345744E+03  0.18711746084E+03  0.94346449378E+02 0.  0.
          5    1    3    3  502    0  0.12165662769E+02 -0.80382414332E+02 -0.11272128545E+03  0.13904278650E+03  0.41800000000E+01 0. -1.
         -5    1    3    3    0  502  0.47390584225E+02  0.37799008111E+02 -0.13335801359E+03  0.14654850622E+03  0.41800000000E+01 0. -1.
        -11    1    4    4    0    0  0.19487436878E+02  0.45837822789E+01 -0.19306288029E+01  0.20112150149E+02  0.00000000000E+00 0. -1.
         11    1    4    4    0    0 -0.79043683872E+02  0.37999623943E+02 -0.14212282863E+03  0.16700531069E+03  0.00000000000E+00 0.  1.
</event>
<event>
 8    1  0.6493926E-009  0.9312778E+02  0.7561462E-02  0.1295449E+00
         -2   -1    0    0    0  501 -0.00000000000E+00  0.00000000000E+00  0.18437803407E+03  0.18437803407E+03  0.00000000000E+00 0.  1.
          2   -1    0    0  501    0  0.00000000000E+00 -0.00000000000E+00 -0.91490751168E+02  0.91490751168E+02  0.00000000000E+00 0. -1.
         25    2    1    2    0    0 -0.40696638855E+02 -0.57472602949E+02  0.64254147900E+02  0.15727484258E+03  0.12508982406E+03 0.  0.
         23    2    1    2    0    0  0.40696638855E+02  0.57472602949E+02  0.28633135001E+02  0.11859394266E+03  0.91023899670E+02 0.  0.
          5    1    3    3  502    0 -0.31983858710E+02 -0.39729358091E+02  0.10219370342E+03  0.11429092060E+03  0.41800000000E+01 0.  1.
         -5    1    3    3    0  502 -0.87127801449E+01 -0.17743244858E+02 -0.37939555520E+02  0.42983921983E+02  0.41800000000E+01 0.  1.
        -11    1    4    4    0    0  0.32228966450E+02 -0.19348096611E+02  0.60356122359E+01  0.38072086047E+02  0.00000000000E+00 0. -1.
         11    1    4    4    0    0  0.84676724045E+01  0.76820699560E+02  0.22597522765E+02  0.80521856610E+02  0.00000000000E+00 0.  1.
</event>
<event>
 8    1  0.6493926E-009  0.1176797E+03  0.7561462E-02  0.1246975E+00
          2   -1    0    0  501    0  0.00000000000E+00  0.00000000000E+00  0.20629426381E+04  0.20629426381E+04  0.00000000000E+00 0.  1.
         -2   -1    0    0    0  501 -0.00000000000E+00 -0.00000000000E+00 -0.14304083266E+02  0.14304083266E+02  0.00000000000E+00 0. -1.
         25    2    1    2    0    0  0.67254932190E+02 -0.47671462671E+02  0.17122496575E+04  0.17187897837E+04  0.12507452441E+03 0.  0.
         23    2    1    2    0    0 -0.67254932190E+02  0.47671462671E+02  0.33638889733E+03  0.35845693767E+03  0.92401794682E+02 0.  0.
          5    1    3    3  502    0  0.35082945771E+02 -0.70194738747E+02  0.15427313682E+04  0.15447315823E+04  0.41800000000E+01 0.  1.
         -5    1    3    3    0  502  0.32171986418E+02  0.22523276076E+02  0.16951828932E+03  0.17405820144E+03  0.41800000000E+01 0.  1.
        -11    1    4    4    0    0 -0.58135258391E+02 -0.99161269157E+01  0.22657362063E+03  0.23412313728E+03  0.00000000000E+00 0.  1.
         11    1    4    4    0    0 -0.91196737989E+01  0.57587589587E+02  0.10981527670E+03  0.12433380040E+03  0.00000000000E+00 0. -1.
</event>
<event>
 8    1  0.6493926E-009  0.1341078E+03  0.7561462E-02  0.1221485E+00
          1   -1    0    0  501    0  0.00000000000E+00  0.00000000000E+00  0.91134821004E+03  0.91134821004E+03  0.00000000000E+00 0. -1.
         -1   -1    0    0    0  501 -0.00000000000E+00 -0.00000000000E+00 -0.25132770942E+02  0.25132770942E+02  0.00000000000E+00 0.  1.
         25    2    1    2    0    0 -0.93782371693E+02 -0.17596118685E+02  0.34030292340E+03  0.37491243005E+03  0.12509394028E+03 0.  0.
         23    2    1    2    0    0  0.93782371693E+02  0.17596118685E+02  0.54591251570E+03  0.56156855094E+03  0.90741423685E+02 0.  0.
          5    1    3    3  502    0  0.12912646496E+02 -0.31360142109E+02  0.26764520391E+02  0.43405148363E+02  0.41800000000E+01 0.  1.
         -5    1    3    3    0  502 -0.10669501819E+03  0.13764023424E+02  0.31353840301E+03  0.33150728169E+03  0.41800000000E+01 0.  1.
        -11    1    4    4    0    0 -0.15560543679E+02 -0.42350088778E+00  0.29030834349E+02  0.32940844184E+02  0.00000000000E+00 0. -1.
         11    1    4    4    0    0  0.10934291537E+03  0.18019619573E+02  0.51688168135E+03  0.52862770675E+03  0.00000000000E+00 0.  1.
</event>
<event>
 8    1  0.6493926E-009  0.6164967E+02  0.7561462E-02  0.1391036E+00
          2   -1    0    0  501    0  0.00000000000E+00  0.00000000000E+00  0.20846820418E+03  0.20846820418E+03  0.00000000000E+00 0. -1.
         -2   -1    0    0    0  501 -0.00000000000E+00 -0.00000000000E+00 -0.64068707201E+02  0.64068707201E+02  0.00000000000E+00 0.  1.
         25    2    1    2    0    0 -0.11886185150E+02  0.37230600501E+02  0.10365910287E+03  0.16709197321E+03  0.12508844429E+03 0.  0.
         23    2    1    2    0    0  0.11886185150E+02 -0.37230600501E+02  0.40740394112E+02  0.10544493817E+03  0.89058723672E+02 0.  0.
          5    1    3    3  502    0  0.31131829371E+02  0.17392832958E+02  0.11305257319E+03  0.11861727590E+03  0.41800000000E+01 0. -1.
         -5    1    3    3    0  502 -0.43018014521E+02  0.19837767543E+02 -0.93934703212E+01  0.48474697308E+02  0.41800000000E+01 0. -1.
        -11    1    4    4    0    0  0.83492808226E+01 -0.13701639928E+02 -0.28238045292E+02  0.32478186971E+02  0.00000000000E+00 0.  1.
         11    1    4    4    0    0  0.35369043278E+01 -0.23528960573E+02  0.68978439405E+02  0.72966751199E+02  0.00000000000E+00 0. -1.
</event>
<event>
 8    1  0.6493926E-009  0.8014456E+02  0.7561462E-02  0.1328642E+00
          2   -1    0    0  501    0  0.00000000000E+00  0.00000000000E+00  0.96618424120E+03  0.96618424120E+03  0.00000000000E+00 0.  1.
         -2   -1    0    0    0  501 -0.00000000000E+00 -0.00000000000E+00 -0.21670067228E+02  0.21670067228E+02  0.00000000000E+00 0. -1.
         25    2    1    2    0    0 -0.22474350352E+02  0.37468509486E+02  0.80262374193E+03  0.81348905937E+03  0.12510233005E+03 0.  0.
         23    2    1    2    0    0  0.22474350352E+02 -0.37468509486E+02  0.14189043204E+03  0.17436524905E+03  0.91440471049E+02 0.  0.
          5    1    3    3  502    0 -0.14616379315E+02 -0.46519559600E+01  0.72128352407E+03  0.72145871242E+03  0.41800000000E+01 0. -1.
         -5    1    3    3    0  502 -0.78579710363E+01  0.42120465446E+02  0.81340217865E+02  0.92030346954E+02  0.41800000000E+01 0. -1.
        -11    1    4    4    0    0  0.26273372612E+02 -0.66791021955E+02  0.99950336440E+02  0.12305039812E+03  0.00000000000E+00 0.  1.
         11    1    4    4    0    0 -0.37990222605E+01  0.29322512469E+02  0.41940095602E+02  0.51314850937E+02  0.00000000000E+00 0. -1.
</event>
<event>
 8    1  0.6493926E-009  0.1130935E+03  0.7561462E-02  0.1254946E+00
          2   -1    0    0  501    0  0.00000000000E+00  0.00000000000E+00  0.15833901395E+02  0.15833901395E+02  0.00000000000E+00 0.  1.
         -2   -1    0    0    0  501 -0.00000000000E+00 -0.00000000000E+00 -0.12030731900E+04  0.12030731900E+04  0.00000000000E+00 0. -1.
         25    2    1    2    0    0  0.31675348981E+02  0.38232699152E+02 -0.94990228307E+03  0.95938900030E+03  0.12509132468E+03 0.  0.
         23    2    1    2    0    0 -0.31675348981E+02 -0.38232699152E+02 -0.23733700554E+03  0.25951809109E+03  0.92497126382E+02 0.  0.
          5    1    3    3  502    0  0.20007212972E+02 -0.42107817007E+02 -0.21689997482E+03  0.22189283066E+03  0.41800000000E+01 0. -1.
         -5    1    3    3    0  502  0.11668136009E+02  0.80340516159E+02 -0.73300230825E+03  0.73749616964E+03  0.41800000000E+01 0. -1.
        -11    1    4    4    0    0 -0.27198464208E+02 -0.65256498073E+02 -0.12229052021E+03  0.14125557804E+03  0.00000000000E+00 0.  1.
         11    1    4    4    0    0 -0.44768847731E+01  0.27023798921E+02 -0.11504648533E+03  0.11826251305E+03  0.00000000000E+00 0. -1.
</event>
<event>
 8    1  0.6493926E-009  0.1463239E+03  0.7561462E-02  0.1205064E+00
         -1   -1    0    0    0  501 -0.00000000000E+00  0.00000000000E+00  0.21959722896E+03  0.21959722896E+03  0.00000000000E+00 0.  1.
          1   -1    0    0  501    0  0.00000000000E+00 -0.00000000000E+00 -0.13092446644E+03  0.13092446644E+03  0.00000000000E+00 0. -1.
         25    2    1    2    0    0  0.22377447829E+01 -0.10521147935E+03 -0.34141597183E+02  0.16699429946E+03  0.12508790711E+03 0.  0.
         23    2    1    2    0    0 -0.22377447829E+01  0.10521147935E+03  0.12281435971E+03  0.18352739594E+03  0.86743733043E+02 0.  0.
          5    1    3    3  502    0  0.58602566229E+02 -0.47956900688E+02 -0.41067366916E+02  0.86244571525E+02  0.41800000000E+01 0.  1.
         -5    1    3    3    0  502 -0.56364821446E+02 -0.57254578666E+02  0.69257697329E+01  0.80749727933E+02  0.41800000000E+01 0.  1.
        -11    1    4    4    0    0  0.30267627512E+02  0.45885374078E+01  0.28943409266E+02  0.42129620111E+02  0.00000000000E+00 0.  1.
         11    1    4    4    0    0 -0.32505372295E+02  0.10062294195E+03  0.93870950442E+02  0.14139777583E+03  0.00000000000E+00 0. -1.
</event>
<event>
 8    1  0.6493926E-009  0.1016537E+03  0.7561462E-02  0.1276856E+00
          2   -1    0    0  501    0  0.00000000000E+00  0.00000000000E+00  0.33358731844E+02  0.33358731844E+02  0.00000000000E+00 0.  1.
         -2   -1    0    0    0  501 -0.00000000000E+00 -0.00000000000E+00 -0.41884829961E+03  0.41884829961E+03  0.00000000000E+00 0. -1.
         25    2    1    2    0    0  0.31207242934E+02 -0.36038423493E+02 -0.21078918387E+03  0.24970493399E+03  0.12509122288E+03 0.  0.
         23    2    1    2    0    0 -0.31207242934E+02  0.36038423493E+02 -0.17470038390E+03  0.20250209747E+03  0.90632308617E+02 0.  0.
          5    1    3    3  502    0 -0.46498723076E+02 -0.96856841413E+01 -0.10843594999E+03  0.11845577814E+03  0.41800000000E+01 0. -1.
         -5    1    3    3    0  502  0.77705966009E+02 -0.26352739352E+02 -0.10235323389E+03  0.13124915585E+03  0.41800000000E+01 0. -1.
        -11    1    4    4    0    0  0.99169471049E+01  0.30378163057E+02 -0.11274630033E+02  0.33886515208E+02  0.00000000000E+00 0.  1.
         11    1    4    4    0    0 -0.41124190039E+02  0.56602604363E+01 -0.16342575386E+03  0.16861558226E+03  0.00000000000E+00 0. -1.
</event>
<event>
 8    1  0.6493926E-009  0.1872489E+03  0.7561462E-02  0.1160966E+00
          1   -1    0    0  501    0  0.00000000000E+00  0.00000000000E+00  0.99702044190E+03  0.99702044190E+03  0.00000000000E+00 0. -1.
         -1   -1    0    0    0  501 -0.00000000000E+00 -0.00000000000E+00 -0.39850798512E+02  0.39850798512E+02  0.00000000000E+00 0.  1.
         25    2    1    2    0    0 -0.15971994980E+03  0.39511364698E+02  0.57026324064E+03  0.60656388294E+03  0.12509184690E+03 0.  0.
         23    2    1    2    0    0  0.15971994980E+03 -0.39511364698E+02  0.38690640275E+03  0.43030735747E+03  0.91631037865E+02 0.  0.
          5    1    3    3  502    0 -0.75103925860E+02 -0.35809421034E+02  0.15340046992E+03  0.17456257012E+03  0.41800000000E+01 0.  1.
         -5    1    3    3    0  502 -0.84616023940E+02  0.75320785732E+02  0.41686277071E+03  0.43200131282E+03  0.41800000000E+01 0.  1.
        -11    1    4    4    0    0  0.13020602665E+03 -0.58489232046E+02  0.23974213375E+03  0.27901772406E+03  0.00000000000E+00 0.  1.
         11    1    4    4    0    0  0.29513923147E+02  0.18977867348E+02  0.14716426900E+03  0.15128963342E+03  0.00000000000E+00 0. -1.
</event>
<event>
 8    1  0.6493926E-009  0.1913879E+03  0.7561462E-02  0.1157215E+00
          2   -1    0    0  501    0  0.00000000000E+00  0.00000000000E+00  0.10672025236E+04  0.10672025236E+04  0.00000000000E+00 0. -1.
         -2   -1    0    0    0  501 -0.00000000000E+00 -0.00000000000E+00 -0.35352840883E+02  0.35352840883E+02  0.00000000000E+00 0.  1.
         25    2    1    2    0    0  0.10330510755E+03  0.11859187225E+03  0.46026091749E+03  0.50221858602E+03  0.12508964212E+03 0.  0.
         23    2    1    2    0    0 -0.10330510755E+03 -0.11859187225E+03  0.57158876520E+03  0.60033677844E+03  0.94628503287E+02 0.  0.
          5    1    3    3  502    0  0.10536723049E+03  0.28321296192E+02  0.22227698011E+03  0.24764667849E+03  0.41800000000E+01 0. -1.
         -5    1    3    3    0  502 -0.20621229462E+01  0.90270576053E+02  0.23798393738E+03  0.25457190753E+03  0.41800000000E+01 0. -1.
        -11    1    4    4    0    0 -0.18235625546E+02  0.15810685846E+02  0.88707244818E+02  0.91931991761E+02  0.00000000000E+00 0. -1.
         11    1    4    4    0    0 -0.85069482002E+02 -0.13440255809E+03  0.48288152038E+03  0.50840478668E+03  0.00000000000E+00 0.  1.
</event>
<event>
 8    1  0.6493926E-009  0.9662250E+02  0.7561462E-02  0.1287563E+00
         -2   -1    0    0    0  501 -0.00000000000E+00  0.00000000000E+00  0.54716414166E+02  0.54716414166E+02  0.00000000000E+00 0.  1.
          2   -1    0    0  501    0  0.00000000000E+00 -0.00000000000E+00 -0.27815328217E+03  0.27815328217E+03  0.00000000000E+00 0. -1.
         25    2    1    2    0    0  0.90362405789E+00  0.46187940357E+02 -0.17486953296E+03  0.21990758779E+03  0.12508337714E+03 0.  0.
         23    2    1    2    0    0 -0.90362405789E+00 -0.46187940357E+02 -0.48567335047E+02  0.11296210855E+03  0.90925846512E+02 0.  0.
          5    1    3    3  502    0 -0.58582024575E+02  0.29089150682E+01 -0.65377117964E+02  0.87931537820E+02  0.41800000000E+01 0.  1.
         -5    1    3    3    0  502  0.59485648633E+02  0.43279025289E+02 -0.10949241500E+03  0.13197604997E+03  0.41800000000E+01 0.  1.
        -11    1    4    4    0    0 -0.19374327207E+02 -0.32242532686E+02 -0.71241339228E+02  0.80562236090E+02  0.00000000000E+00 0. -1.
         11    1    4    4    0    0  0.18470703149E+02 -0.13945407671E+02  0.22674004181E+02  0.32399872462E+02  0.00000000000E+00 0.  1.
</event>
<event>
 8    1  0.6493926E-009  0.1055196E+03  0.7561462E-02  0.1269099E+00
          1   -1    0    0  501    0  0.00000000000E+00  0.00000000000E+00  0.91391636700E+03  0.91391636700E+03  0.00000000000E+00 0. -1.
         -1   -1    0    0    0  501 -0.00000000000E+00 -0.00000000000E+00 -0.15118808355E+02  0.15118808355E+02  0.00000000000E+00 0.  1.
         25    2    1    2    0    0 -0.11231645276E+02  0.38426169347E+02  0.46694471560E+03  0.48506448842E+03  0.12508984833E+03 0.  0.
         23    2    1    2    0    0  0.11231645276E+02 -0.38426169347E+02  0.43185284305E+03  0.44397068694E+03  0.94922981740E+02 0.  0.
          5    1    3    3  502    0 -0.46120176566E+02 -0.12977957993E+02  0.81573131611E+02  0.94695017192E+02  0.41800000000E+01 0.  1.
         -5    1    3    3    0  502  0.34888531290E+02  0.51404127339E+02  0.38537158399E+03  0.39036947123E+03  0.41800000000E+01 0.  1.
        -11    1    4    4    0    0 -0.40619977453E+02 -0.11306284264E+02  0.22888153194E+03  0.23273283029E+03  0.00000000000E+00 0. -1.
         11    1    4    4    0    0  0.51851622729E+02 -0.27119885083E+02  0.20297131111E+03  0.21123785665E+03  0.00000000000E+00 0.  1.
</event>
<event>
 8    1  0.6493926E-009  0.1006719E+03  0.7561462E-02  0.1278889E+00
          1   -1    0    0  501    0  0.00000000000E+00  0.00000000000E+00  0.77921152451E+03  0.77921152451E+03  0.00000000000E+00 0. -1.
         -1   -1    0    0    0  501 -0.00000000000E+00 -0.00000000000E+00 -0.26344864102E+02  0.26344864102E+02  0.00000000000E+00 0.  1.
         25    2    1    2    0    0 -0.62954866691E+01  0.69194541371E+02  0.58648815400E+03  0.60369156144E+03  0.12509048273E+03 0.  0.
         23    2    1    2    0    0  0.62954866691E+01 -0.69194541371E+02  0.16637850641E+03  0.20186482717E+03  0.90774904821E+02 0.  0.
          5    1    3    3  502    0 -0.42699479795E+02  0.45652404257E+02  0.52276821553E+03  0.52650875316E+03  0.41800000000E+01 0.  1.
         -5    1    3    3    0  502  0.36403993126E+02  0.23542137114E+02  0.63719938467E+02  0.77182808278E+02  0.41800000000E+01 0.  1.
        -11    1    4    4    0    0 -0.14028762301E+02  0.74243612485E+01  0.91351196947E+02  0.92719838737E+02  0.00000000000E+00 0. -1.
         11    1    4    4    0    0  0.20324248971E+02 -0.76618902620E+02  0.75027309460E+02  0.10914498843E+03  0.00000000000E+00 0.  1.
</event>
<event>
 8    1  0.6493926E-009  0.7019464E+02  0.7561462E-02  0.1359432E+00
         -2   -1    0    0    0  501 -0.00000000000E+00  0.00000000000E+00  0.24976767955E+03  0.24976767955E+03  0.00000000000E+00 0.  1.
          2   -1    0    0  501    0  0.00000000000E+00 -0.00000000000E+00 -0.49865563284E+02  0.49865563284E+02  0.00000000000E+00 0. -1.
         25    2    1    2    0    0 -0.27743785506E+02 -0.12561881436E+01  0.82590449644E+02  0.15245194777E+03  0.12509643625E+03 0.  0.
         23    2    1    2    0    0  0.27743785506E+02  0.12561881436E+01  0.11731166662E+03  0.14718129507E+03  0.84433469958E+02 0.  0.
          5    1    3    3  502    0 -0.38071451449E+02  0.79425721474E+01 -0.23334225991E+02  0.45546441906E+02  0.41800000000E+01 0. -1.
         -5    1    3    3    0  502  0.10327665943E+02 -0.91987602910E+01  0.10592467563E+03  0.10690550586E+03  0.41800000000E+01 0. -1.
        -11    1    4    4    0    0  0.20321619279E+02 -0.40022046508E+02  0.44820280543E+02  0.63431774094E+02  0.00000000000E+00 0.  1.
         11    1    4    4    0    0  0.74221662272E+01  0.41278234652E+02  0.72491386078E+02  0.83749520971E+02  0.00000000000E+00 0. -1.
</event>
<event>
 8    1  0.6493926E-009  0.5941165E+02  0.7561462E-02  0.1400317E+00
         -1   -1    0    0    0  501 -0.00000000000E+00  0.00000000000E+00  0.78249773175E+02  0.78249773175E+02  0.00000000000E+00 0.  1.
          1   -1    0    0  501    0  0.00000000000E+00 -0.00000000000E+00 -0.28206655744E+03  0.28206655744E+03  0.00000000000E+00 0. -1.
         25    2    1    2    0    0  0.41380966795E+02 -0.34651335621E+02 -0.21498256091E+03  0.25452600527E+03  0.12511149584E+03 0.  0.
         23    2    1    2    0    0 -0.41380966795E+02  0.34651335621E+02  0.11165776646E+02  0.10579032534E+03  0.90298498849E+02 0.  0.
          5    1    3    3  502    0  0.47112774270E+02 -0.27343454239E+02 -0.22998948815E+03  0.23638932938E+03  0.41800000000E+01 0. -1.
         -5    1    3    3    0  502 -0.57318074757E+01 -0.73078813820E+01  0.15006927235E+02  0.18136675888E+02  0.41800000000E+01 0. -1.
        -11    1    4    4    0    0 -0.13102375890E+02  0.98492260248E+01 -0.39455098077E+02  0.42724516048E+02  0.00000000000E+00 0. -1.
         11    1    4    4    0    0 -0.28278590904E+02  0.24802109596E+02  0.50620874724E+02  0.63065809293E+02  0.00000000000E+00 0.  1.
</event>
<event>
 8    1  0.6493926E-009  0.6884880E+02  0.7561462E-02  0.1364052E+00
         -2   -1    0    0    0  501 -0.00000000000E+00  0.00000000000E+00  0.14249625724E+03  0.14249625724E+03  0.00000000000E+00 0. -1.
          2   -1    0    0  501    0  0.00000000000E+00 -0.00000000000E+00 -0.92443188950E+02  0.92443188950E+02  0.00000000000E+00 0.  1.
         25    2    1    2    0    0  0.36132645976E+02  0.21038866207E+02  0.54370086234E+02  0.14267012968E+03  0.12510178907E+03 0.  0.
         23    2    1    2    0    0 -0.36132645976E+02 -0.21038866207E+02 -0.43170179429E+01  0.92269316515E+02  0.82138834480E+02 0.  0.
          5    1    3    3  502    0 -0.71596375772E+01  0.18032902625E+01 -0.37914537833E+02  0.38852243759E+02  0.41800000000E+01 0.  1.
         -5    1    3    3    0  502  0.43292283553E+02  0.19235575945E+02  0.92284624067E+02  0.10381788592E+03  0.41800000000E+01 0.  1.
        -11    1    4    4    0    0  0.60067463820E+01 -0.36333520793E+02  0.19323671221E+02  0.41588580221E+02  0.00000000000E+00 0.  1.
         11    1    4    4    0    0 -0.42139392358E+02  0.15294654586E+02 -0.23640689164E+02  0.50680736294E+02  0.00000000000E+00 0. -1.
</event>
<event>
 7    1  0.6493926E-009  0.7481344E+02  0.7561462E-02  0.1344450E+00
         -1   -1    0    0    0  501 -0.00000000000E+00  0.00000000000E+00  0.23968820103E+02  0.23968820103E+02  0.00000000000E+00 0.  1.
          1   -1    0    0  501    0  0.00000000000E+00 -0.00000000000E+00 -0.39799796822E+03  0.39799796822E+03  0.00000000000E+00 0. -1.
         25    2    1    2    0    0 -0.15343662898E+02 -0.51296292982E+00 -0.16313152337E+03  0.20614417736E+03  0.12509131392E+03 0.  0.
          5    1    3    3  502    0  0.44015042672E+02  0.25916810959E+01 -0.15469685440E+02  0.46912944482E+02  0.41800000000E+01 0.  1.
         -5    1    3    3    0  502 -0.59358705570E+02 -0.31046440257E+01 -0.14766183793E+03  0.15923123288E+03  0.41800000000E+01 0.  1.
        -11    1    1    2    0    0  0.22691437883E+02 -0.15941031822E+02 -0.12106886532E+03  0.12420421892E+03  0.00000000000E+00 0.  1.
         11    1    1    2    0    0 -0.73477749850E+01  0.16453994752E+02 -0.89828759430E+02  0.91618392047E+02  0.00000000000E+00 0. -1.
</event>
<event>
 8    1  0.6493926E-009  0.1357204E+03  0.7561462E-02  0.1219206E+00
         -1   -1    0    0    0  501 -0.00000000000E+00  0.00000000000E+00  0.25510608524E+02  0.25510608524E+02  0.00000000000E+00 0.  1.
          1   -1    0    0  501    0  0.00000000000E+00 -0.00000000000E+00 -0.91718008631E+03  0.91718008631E+03  0.00000000000E+00 0. -1.
         25    2    1    2    0    0 -0.82147486157E+02  0.65567695302E+02 -0.54886634481E+03  0.57266888587E+03  0.12509219089E+03 0.  0.
         23    2    1    2    0    0  0.82147486157E+02 -0.65567695302E+02 -0.34280313298E+03  0.37002180897E+03  0.91404698937E+02 0.  0.
          5    1    3    3  502    0 -0.28538538504E+02 -0.23244724054E+02 -0.31012747740E+03  0.31233201888E+03  0.41800000000E+01 0. -1.
         -5    1    3    3    0  502 -0.53608947653E+02  0.88812419356E+02 -0.23873886741E+03  0.26033686699E+03  0.41800000000E+01 0. -1.
        -11    1    4    4    0    0  0.79755674705E+02 -0.16494504253E+02 -0.14601098100E+03  0.16718924275E+03  0.00000000000E+00 0. -1.
         11    1    4    4    0    0  0.23918114527E+01 -0.49073191049E+02 -0.19679215197E+03  0.20283256622E+03  0.00000000000E+00 0.  1.
</event>
<event>
 8    1  0.6493926E-009  0.1701707E+03  0.7561462E-02  0.1177670E+00
         -1   -1    0    0    0  501 -0.00000000000E+00  0.00000000000E+00  0.20587463466E+03  0.20587463466E+03  0.00000000000E+00 0.  1.
          1   -1    0    0  501    0  0.00000000000E+00 -0.00000000000E+00 -0.18336880639E+03  0.18336880639E+03  0.00000000000E+00 0. -1.
         25    2    1    2    0    0 -0.15175837755E+03 -0.38614060461E+02  0.51017010990E+02  0.20681704096E+03  0.12509557225E+03 0.  0.
         23    2    1    2    0    0  0.15175837755E+03  0.38614060461E+02 -0.28511182724E+02  0.18242640009E+03  0.89133905378E+02 0.  0.
          5    1    3    3  502    0 -0.94456331381E+01 -0.27956764843E+02 -0.30308134422E+02  0.42507129967E+02  0.41800000000E+01 0.  1.
         -5    1    3    3    0  502 -0.14231274442E+03 -0.10657295618E+02  0.81325145412E+02  0.16430991099E+03  0.41800000000E+01 0.  1.
        -11    1    4    4    0    0  0.34135525025E+00  0.14423950984E+02  0.17172148334E+02  0.22428766435E+02  0.00000000000E+00 0.  1.
         11    1    4    4    0    0  0.15141702230E+03  0.24190109477E+02 -0.45683331058E+02  0.15999763366E+03  0.00000000000E+00 0. -1.
</event>
<event>
 8    1  0.6493926E-009  0.1194552E+03  0.7561462E-02  0.1243999E+00
          2   -1    0    0  501    0  0.00000000000E+00  0.00000000000E+00  0.12548466013E+04  0.12548466013E+04  0.00000000000E+00 0. -1.
         -2   -1    0    0    0  501 -0.00000000000E+00 -0.00000000000E+00 -0.31146551444E+02  0.31146551444E+02  0.00000000000E+00 0.  1.
         25    2    1    2    0    0 -0.53183792050E+02 -0.75937353167E+02  0.10844704070E+04  0.10955906387E+04  0.12509111270E+03 0.  0.
         23    2    1    2    0    0  0.53183792050E+02  0.75937353167E+02  0.13922964282E+03  0.19040251407E+03  0.90957278872E+02 0.  0.
          5    1    3    3  502    0  0.12173335867E+02 -0.24932683855E+02  0.76492669040E+03  0.76544114269E+03  0.41800000000E+01 0. -1.
         -5    1    3    3    0  502 -0.65357127918E+02 -0.51004669312E+02  0.31954371662E+03  0.33014949598E+03  0.41800000000E+01 0. -1.
        -11    1    4    4    0    0 -0.22410540953E+02  0.35845620671E+02  0.30945325722E+02  0.52390400372E+02  0.00000000000E+00 0. -1.
         11    1    4    4    0    0  0.75594333004E+02  0.40091732497E+02  0.10828431710E+03  0.13801211369E+03  0.00000000000E+00 0.  1.
</event>
<event>
 8    1  0.6493926E-009  0.2184407E+03  0.7561462E-02  0.1135051E+00
          1   -1    0    0  501    0  0.00000000000E+00  0.00000000000E+00  0.11945691119E+04  0.11945691119E+04  0.00000000000E+00 0.  1.
         -1   -1    0    0    0  501 -0.00000000000E+00 -0.00000000000E+00 -0.49759831906E+02  0.49759831906E+02  0.00000000000E+00 0. -1.
         25    2    1    2    0    0  0.20019806910E+03  0.86448852849E+02  0.57066342805E+03  0.62358362016E+03  0.12508841748E+03 0.  0.
         23    2    1    2    0    0 -0.20019806910E+03 -0.86448852849E+02  0.57414585196E+03  0.62074532367E+03  0.90158895831E+02 0.  0.
          5    1    3    3  502    0  0.16214235932E+03  0.76025769161E+02  0.55083002396E+03  0.57922469729E+03  0.41800000000E+01 0.  1.
         -5    1    3    3    0  502  0.38055709772E+02  0.10423083687E+02  0.19833404094E+02  0.44358922865E+02  0.41800000000E+01 0.  1.
        -11    1    4    4    0    0 -0.13748456044E+03 -0.58448478065E+02  0.48923016285E+03  0.51153140783E+03  0.00000000000E+00 0.  1.
         11    1    4    4    0    0 -0.62713508654E+02 -0.28000374784E+02  0.84915689109E+02  0.10921391584E+03  0.00000000000E+00 0. -1.
</event>
<event>
 8    1  0.6493926E-009  0.1520997E+03  0.7561462E-02  0.1197916E+00
         -1   -1    0    0    0  501 -0.00000000000E+00  0.00000000000E+00  0.67707249217E+03  0.67707249217E+03  0.00000000000E+00 0.  1.
          1   -1    0    0  501    0  0.00000000000E+00 -0.00000000000E+00 -0.41071324280E+02  0.41071324280E+02  0.00000000000E+00 0. -1.
         25    2    1    2    0    0 -0.11278545111E+03  0.39630589846E+02  0.24928405070E+03  0.30344814417E+03  0.12508835529E+03 0.  0.
         23    2    1    2    0    0  0.11278545111E+03 -0.39630589846E+02  0.38671711719E+03  0.41469567228E+03  0.90173334477E+02 0.  0.
          5    1    3    3  502    0 -0.11219955623E+03 -0.41462207007E+01  0.10941676297E+03  0.15682930843E+03  0.41800000000E+01 0. -1.
         -5    1    3    3    0  502 -0.58589488156E+00  0.43776810547E+02  0.13986728773E+03  0.14661883573E+03  0.41800000000E+01 0. -1.
        -11    1    4    4    0    0  0.10839984063E+03 -0.40990484312E+00  0.31029907802E+03  0.32868862361E+03  0.00000000000E+00 0. -1.
         11    1    4    4    0    0  0.43856104837E+01 -0.39220685003E+02  0.76418039171E+02  0.86007048678E+02  0.00000000000E+00 0.  1.
</event>
<event>
 8    1  0.6493926E-009  0.2013498E+03  0.7561462E-02  0.1148605E+00
          2   -1    0    0  501    0  0.00000000000E+00  0.00000000000E+00  0.50517148162E+03  0.50517148162E+03  0.00000000000E+00 0. -1.
         -2   -1    0    0    0  501 -0.00000000000E+00 -0.00000000000E+00 -0.11525960721E+03  0.11525960721E+03  0.00000000000E+00 0.  1.
         25    2    1    2    0    0 -0.10656412820E+03  0.15947416875E+03  0.32876879965E+03  0.40065501043E+03  0.12509032671E+03 0.  0.
         23    2    1    2    0    0  0.10656412820E+03 -0.15947416875E+03  0.61143074755E+02  0.21977607841E+03  0.88176670004E+02 0.  0.
          5    1    3    3  502    0 -0.59406411579E+02  0.11875878184E+03  0.10796557203E+03  0.17119231042E+03  0.41800000000E+01 0. -1.
         -5    1    3    3    0  502 -0.47157716616E+02  0.40715386906E+02  0.22080322762E+03  0.22946270001E+03  0.41800000000E+01 0. -1.
        -11    1    4    4    0    0  0.40165036098E+02 -0.12755667453E+03  0.58745802281E+02  0.14606506984E+03  0.00000000000E+00 0. -1.
         11    1    4    4    0    0  0.66399092098E+02 -0.31917494221E+02  0.23972724745E+01  0.73711008568E+02  0.00000000000E+00 0.  1.
</event>
<event>
 8    1  0.6493926E-009  0.8928740E+02  0.7561462E-02  0.1304587E+00
         -1   -1    0    0    0  501 -0.00000000000E+00  0.00000000000E+00  0.95283821936E+02  0.95283821936E+02  0.00000000000E+00 0.  1.
          1   -1    0    0  501    0  0.00000000000E+00 -0.00000000000E+00 -0.16060428352E+03  0.16060428352E+03  0.00000000000E+00 0. -1.
         25    2    1    2    0    0 -0.53613181529E+02  0.28527792746E+02 -0.52479431316E+02  0.14862586385E+03  0.12508936207E+03 0.  0.
         23    2    1    2    0    0  0.53613181529E+02 -0.28527792746E+02 -0.12841030267E+02  0.10726224160E+03  0.87476215183E+02 0.  0.
          5    1    3    3  502    0 -0.50245852403E+02  0.74103336821E+01  0.32801769905E+02  0.60605175009E+02  0.41800000000E+01 0.  1.
         -5    1    3    3    0  502 -0.33673291268E+01  0.21117459064E+02 -0.85281201221E+02  0.88020688843E+02  0.41800000000E+01 0.  1.
        -11    1    4    4    0    0 -0.26059633620E+01  0.26811940601E+02  0.19199562050E+01  0.27006618368E+02  0.00000000000E+00 0.  1.
         11    1    4    4    0    0  0.56219144891E+02 -0.55339733347E+02 -0.14760986472E+02  0.80255623235E+02  0.00000000000E+00 0. -1.
</event>
<event>
 8    1  0.6493926E-009  0.1647625E+03  0.7561462E-02  0.1183422E+00
          2   -1    0    0  501    0  0.00000000000E+00  0.00000000000E+00  0.47250495548E+03  0.47250495548E+03  0.00000000000E+00 0. -1.
         -2   -1    0    0    0  501 -0.00000000000E+00 -0.00000000000E+00 -0.83918169652E+02  0.83918169652E+02  0.00000000000E+00 0.  1.
         25    2    1    2    0    0  0.15719547570E+03  0.15416401762E+02  0.27760358145E+03  0.34301490812E+03  0.12508955086E+03 0.  0.
         23    2    1    2    0    0 -0.15719547570E+03 -0.15416401762E+02  0.11098320438E+03  0.21340821702E+03  0.90981934531E+02 0.  0.
          5    1    3    3  502    0  0.29383824442E+02 -0.17954258480E+02 -0.94765495096E+00  0.34700648212E+02  0.41800000000E+01 0. -1.
         -5    1    3    3    0  502  0.12781165126E+03  0.33370660242E+02  0.27855123640E+03  0.30831425991E+03  0.41800000000E+01 0. -1.
        -11    1    4    4    0    0 -0.94694757674E+02  0.99639949055E+01  0.15455715296E+02  0.96463762423E+02  0.00000000000E+00 0.  1.
         11    1    4    4    0    0 -0.62500718026E+02 -0.25380396667E+02  0.95527489088E+02  0.11694445459E+03  0.00000000000E+00 0. -1.
</event>
<event>
 8    1  0.6493926E-009  0.1239320E+03  0.7561462E-02  0.1236748E+00
         -1   -1    0    0    0  501 -0.00000000000E+00  0.00000000000E+00  0.25760839598E+03  0.25760839598E+03  0.00000000000E+00 0.  1.
          1   -1    0    0  501    0  0.00000000000E+00 -0.00000000000E+00 -0.61103253105E+02  0.61103253105E+02  0.00000000000E+00 0. -1.
         25    2    1    2    0    0  0.36171446354E+02  0.51201153437E+02  0.11135464100E+03  0.17882293562E+03  0.12509138494E+03 0.  0.
         23    2    1    2    0    0 -0.36171446354E+02 -0.51201153437E+02  0.85150501873E+02  0.13988871347E+03  0.91587731389E+02 0.  0.
          5    1    3    3  502    0  0.45928437712E+02  0.87708043375E+02  0.95528020086E+02  0.13764155363E+03  0.41800000000E+01 0.  1.
         -5    1    3    3    0  502 -0.97569913581E+01 -0.36506889938E+02  0.15826620918E+02  0.41181381995E+02  0.41800000000E+01 0.  1.
        -11    1    4    4    0    0 -0.56533558236E+02 -0.96109330793E+00  0.48028436034E+02  0.74186909729E+02  0.00000000000E+00 0.  1.
         11    1    4    4    0    0  0.20362111882E+02 -0.50240060129E+02  0.37122065839E+02  0.65701803737E+02  0.00000000000E+00 0. -1.
</event>
<event>
 8    1  0.6493926E-009  0.9602746E+02  0.7561462E-02  0.1288879E+00
          2   -1    0    0  501    0  0.00000000000E+00  0.00000000000E+00  0.17343204621E+03  0.17343204621E+03  0.00000000000E+00 0. -1.
         -2   -1    0    0    0  501 -0.00000000000E+00 -0.00000000000E+00 -0.75932684453E+02  0.75932684453E+02  0.00000000000E+00 0.  1.
         25    2    1    2    0    0 -0.39922832010E+00 -0.21146298135E+02  0.22036704831E+02  0.12876584297E+03  0.12509076964E+03 0.  0.
         23    2    1    2    0    0  0.39922832010E+00  0.21146298135E+02  0.75462656924E+02  0.12059888769E+03  0.91663263163E+02 0.  0.
          5    1    3    3  502    0 -0.47179677725E+02 -0.20590669506E+02 -0.29141369198E+02  0.59300838609E+02  0.41800000000E+01 0. -1.
         -5    1    3    3    0  502  0.46780449405E+02 -0.55562862931E+00  0.51178074029E+02  0.69465004362E+02  0.41800000000E+01 0. -1.
        -11    1    4    4    0    0  0.63059634990E+00  0.57290155077E+02  0.52963956369E+02  0.78023971923E+02  0.00000000000E+00 0. -1.
         11    1    4    4    0    0 -0.23136802980E+00 -0.36143856941E+02  0.22498700556E+02  0.42574915766E+02  0.00000000000E+00 0.  1.
</event>
<event>
 8    1  0.6493926E-009  0.9515919E+02  0.7561462E-02  0.1290818E+00
          1   -1    0    0  501    0  0.00000000000E+00  0.00000000000E+00  0.30064229264E+03  0.30064229264E+03  0.00000000000E+00 0. -1.
         -1   -1    0    0    0  501 -0.00000000000E+00 -0.00000000000E+00 -0.94903863831E+02  0.94903863831E+02  0.00000000000E+00 0.  1.
         25    2    1    2    0    0 -0.72932799569E+01 -0.66309885337E+02 -0.19693384635E+02  0.14312590087E+03  0.12508797414E+03 0.  0.
         23    2    1    2    0    0  0.72932799569E+01  0.66309885337E+02  0.22543181345E+03  0.25242025561E+03  0.91903700144E+02 0.  0.
          5    1    3    3  502    0  0.10232035176E+02 -0.55543793430E+02  0.46756518190E+02  0.73440124766E+02  0.41800000000E+01 0. -1.
         -5    1    3    3    0  502 -0.17525315133E+02 -0.10766091907E+02 -0.66449902825E+02  0.69685776101E+02  0.41800000000E+01 0. -1.
        -11    1    4    4    0    0  0.26962402174E+02  0.82768999737E+02  0.16011205235E+03  0.18224584428E+03  0.00000000000E+00 0.  1.
         11    1    4    4    0    0 -0.19669122217E+02 -0.16459114400E+02  0.65319761094E+02  0.70174411326E+02  0.00000000000E+00 0. -1.
</event>
<event>
 8    1  0.6493926E-009  0.1203977E+03  0.7561462E-02  0.1242442E+00
         -1   -1    0    0    0  501 -0.00000000000E+00  0.00000000000E+00  0.85816232258E+02  0.85816232258E+02  0.00000000000E+00 0.  1.
          1   -1    0    0  501    0  0.00000000000E+00 -0.00000000000E+00 -0.23127899241E+03  0.23127899241E+03  0.00000000000E+00 0. -1.
         25    2    1    2    0    0 -0.19857050718E+02  0.64032517333E+02 -0.11578405682E+02  0.14239385818E+03  0.12508991018E+03 0.  0.
         23    2    1    2    0    0  0.19857050718E+02 -0.64032517333E+02 -0.13388435447E+03  0.17470136649E+03  0.90006007257E+02 0.  0.
          5    1    3    3  502    0 -0.50042283268E+02  0.88345417916E+02 -0.17009052575E+02  0.10303360253E+03  0.41800000000E+01 0.  1.
         -5    1    3    3    0  502  0.30185232550E+02 -0.24312900583E+02  0.54306468925E+01  0.39360255646E+02  0.41800000000E+01 0.  1.
        -11    1    4    4    0    0  0.26814331131E+02  0.78762098003E+01 -0.71911793811E+01  0.28857513678E+02  0.00000000000E+00 0.  1.
         11    1    4    4    0    0 -0.69572804127E+01 -0.71908727134E+02 -0.12669317509E+03  0.14584385281E+03  0.00000000000E+00 0. -1.
</event>
<event>
 8    1  0.6493926E-009  0.1308060E+03  0.7561462E-02  0.1226265E+00
         -2   -1    0    0    0  501 -0.00000000000E+00  0.00000000000E+00  0.21026200909E+03  0.21026200909E+03  0.00000000000E+00 0.  1.
          2   -1    0    0  501    0  0.00000000000E+00 -0.00000000000E+00 -0.12574810559E+03  0.12574810559E+03  0.00000000000E+00 0. -1.
         25    2    1    2    0    0 -0.11180493640E+03 -0.38123289934E+02  0.62934465323E+02  0.18319808519E+03  0.12508821868E+03 0.  0.
         23    2    1    2    0    0  0.11180493640E+03  0.38123289934E+02  0.21579438172E+02  0.15281202949E+03  0.94509868081E+02 0.  0.
          5    1    3    3  502    0 -0.77066386647E+02 -0.20064136637E+02  0.10082755675E+03  0.12855141434E+03  0.41800000000E+01 0. -1.
         -5    1    3    3    0  502 -0.34738549756E+02 -0.18059153297E+02 -0.37893091426E+02  0.54646670848E+02  0.41800000000E+01 0. -1.
        -11    1    4    4    0    0  0.28764231185E+02  0.50908757945E+02 -0.16220972976E+02  0.60681155192E+02  0.00000000000E+00 0.  1.
         11    1    4    4    0    0  0.83040705218E+02 -0.12785468011E+02  0.37800411148E+02  0.92130874295E+02  0.00000000000E+00 0. -1.
</event>
<event>
 8    1  0.6493926E-009  0.1245661E+03  0.7561462E-02  0.1235749E+00
          2   -1    0    0  501    0  0.00000000000E+00  0.00000000000E+00  0.14745974636E+04  0.14745974636E+04  0.00000000000E+00 0. -1.
         -2   -1    0    0    0  501 -0.00000000000E+00 -0.00000000000E+00 -0.11811517087E+02  0.11811517087E+02  0.00000000000E+00 0.  1.
         25    2    1    2    0    0 -0.36427417977E+02 -0.60868599816E+02  0.95523301254E+03  0.96599646032E+03  0.12508840830E+03 0.  0.
         23    2    1    2    0    0  0.36427417977E+02  0.60868599816E+02  0.50755293402E+03  0.52041252041E+03  0.90483519730E+02 0.  0.
          5    1    3    3  502    0 -0.77647901782E+02 -0.55614297119E+02  0.78092490281E+03  0.78675493194E+03  0.41800000000E+01 0. -1.
         -5    1    3    3    0  502  0.41220483804E+02 -0.52543026974E+01  0.17430810973E+03  0.17924152839E+03  0.41800000000E+01 0. -1.
        -11    1    4    4    0    0  0.51554232186E+02  0.75037395341E+02  0.45293799646E+03  0.46199705431E+03  0.00000000000E+00 0. -1.
         11    1    4    4    0    0 -0.15126814208E+02 -0.14168795525E+02  0.54614937559E+02  0.58415466096E+02  0.00000000000E+00 0.  1.
</event>
<event>
 8    1  0.6493926E-009  0.1204830E+03  0.7561462E-02  0.1242302E+00
          2   -1    0    0  501    0  0.00000000000E+00  0.00000000000E+00  0.72369957997E+03  0.72369957997E+03  0.00000000000E+00 0.  1.
         -2   -1    0    0    0  501 -0.00000000000E+00 -0.00000000000E+00 -0.21627045839E+02  0.21627045839E+02  0.00000000000E+00 0. -1.
         25    2    1    2    0    0  0.44968437112E+01 -0.58590638694E+02  0.33022077392E+03  0.35797586465E+03  0.12509146891E+03 0.  0.
         23    2    1    2    0    0 -0.44968437112E+01  0.58590638694E+02  0.37185176021E+03  0.38735076116E+03  0.91180020047E+02 0.  0.
          5    1    3    3  502    0  0.62456707723E+02 -0.13438553351E+02  0.13720298513E+03  0.15140530567E+03  0.41800000000E+01 0. -1.
         -5    1    3    3    0  502 -0.57959864012E+02 -0.45152085343E+02  0.19301778879E+03  0.20657055897E+03  0.41800000000E+01 0. -1.
        -11    1    4    4    0    0  0.19140057325E+02 -0.16100264139E+02  0.47620389683E+02  0.53789049195E+02  0.00000000000E+00 0. -1.
         11    1    4    4    0    0 -0.23636901036E+02  0.74690902833E+02  0.32423137052E+03  0.33356171196E+03  0.00000000000E+00 0.  1.
</event>
<event>
 8    1  0.6493926E-009  0.1912124E+03  0.7561462E-02  0.1157372E+00
          1   -1    0    0  501    0  0.00000000000E+00  0.00000000000E+00  0.13304569931E+03  0.13304569931E+03  0.00000000000E+00 0. -1.
         -1   -1    0    0    0  501 -0.00000000000E+00 -0.00000000000E+00 -0.43964765079E+03  0.43964765079E+03  0.00000000000E+00 0.  1.
         25    2    1    2    0    0 -0.68539087666E+02  0.16801482306E+03 -0.29610865462E+03  0.36912023978E+03  0.12507129472E+03 0.  0.
         23    2    1    2    0    0  0.68539087666E+02 -0.16801482306E+03 -0.10493296865E+02  0.20357311033E+03  0.91680503173E+02 0.  0.
          5    1    3    3  502    0 -0.48332275103E+02  0.17251395436E+03 -0.29819233327E+03  0.34789828008E+03  0.41800000000E+01 0.  1.
         -5    1    3    3    0  502 -0.20206812563E+02 -0.44991313015E+01  0.20836786458E+01  0.21221959691E+02  0.41800000000E+01 0.  1.
        -11    1    4    4    0    0  0.31102100664E+02 -0.56865388221E+02  0.39691247454E+02  0.76002685266E+02  0.00000000000E+00 0. -1.
         11    1    4    4    0    0  0.37436987002E+02 -0.11114943484E+03 -0.50184544320E+02  0.12757042506E+03  0.00000000000E+00 0.  1.
</event>
<event>
 8    1  0.6493926E-009  0.3228271E+03  0.7561462E-02  0.1074355E+00
          2   -1    0    0  501    0  0.00000000000E+00  0.00000000000E+00  0.18140505177E+04  0.18140505177E+04  0.00000000000E+00 0. -1.
         -2   -1    0    0    0  501 -0.00000000000E+00 -0.00000000000E+00 -0.90796478998E+02  0.90796478998E+02  0.00000000000E+00 0.  1.
         25    2    1    2    0    0 -0.18978176481E+03  0.24657834462E+03  0.14282899707E+04  0.14671325269E+04  0.12509041777E+03 0.  0.
         23    2    1    2    0    0  0.18978176481E+03 -0.24657834462E+03  0.29496406800E+03  0.43771446986E+03  0.88159840177E+02 0.  0.
          5    1    3    3  502    0 -0.61956538610E+02  0.17894661060E+03  0.87225008806E+03  0.89257951502E+03  0.41800000000E+01 0.  1.
         -5    1    3    3    0  502 -0.12782522620E+03  0.67631734027E+02  0.55603988268E+03  0.57455301186E+03  0.41800000000E+01 0.  1.
        -11    1    4    4    0    0  0.48244931131E+02 -0.74485274088E+02  0.35182511393E+02  0.95464331264E+02  0.00000000000E+00 0. -1.
         11    1    4    4    0    0  0.14153683368E+03 -0.17209307054E+03  0.25978155661E+03  0.34225013859E+03  0.00000000000E+00 0.  1.
</event>
<event>
 8    1  0.6493926E-009  0.1894840E+03  0.7561462E-02  0.1158928E+00
         -3   -1    0    0    0  501 -0.00000000000E+00  0.00000000000E+00  0.88743622247E+03  0.88743622247E+03  0.00000000000E+00 0.  1.
          3   -1    0    0  501    0  0.00000000000E+00 -0.00000000000E+00 -0.49643768728E+02  0.49643768728E+02  0.00000000000E+00 0. -1.
         25    2    1    2    0    0  0.15935858726E+03 -0.54803443236E+02  0.57072587734E+03  0.60808959841E+03  0.12508539447E+03 0.  0.
         23    2    1    2    0    0 -0.15935858726E+03  0.54803443236E+02  0.26706657641E+03  0.32899039279E+03  0.92258038079E+02 0.  0.
          5    1    3    3  502    0  0.13261904724E+01  0.29450498386E+02  0.10355515284E+03  0.10775078987E+03  0.41800000000E+01 0.  1.
         -5    1    3    3    0  502  0.15803239678E+03 -0.84253941622E+02  0.46717072449E+03  0.50033880855E+03  0.41800000000E+01 0.  1.
        -11    1    4    4    0    0 -0.30863019699E+02  0.13737107924E+01  0.13015407319E+03  0.13377030999E+03  0.00000000000E+00 0.  1.
         11    1    4    4    0    0 -0.12849556756E+03  0.53429732443E+02  0.13691250321E+03  0.19522008280E+03  0.00000000000E+00 0. -1.
</event>
<event>
 8    1  0.6493926E-009  0.2310382E+03  0.7561462E-02  0.1125911E+00
         -2   -1    0    0    0  501 -0.00000000000E+00  0.00000000000E+00  0.97040709773E+02  0.97040709773E+02  0.00000000000E+00 0.  1.
          2   -1    0    0  501    0  0.00000000000E+00 -0.00000000000E+00 -0.77169977399E+03  0.77169977399E+03  0.00000000000E+00 0. -1.
         25    2    1    2    0    0 -0.20415366855E+03  0.31914587789E+02 -0.12012432354E+03  0.26976753010E+03  0.12508959146E+03 0.  0.
         23    2    1    2    0    0  0.20415366855E+03 -0.31914587789E+02 -0.55453474068E+03  0.59897295367E+03  0.92534098099E+02 0.  0.
          5    1    3    3  502    0 -0.14352173581E+03  0.75156290879E+02 -0.10655359793E+03  0.19395385621E+03  0.41800000000E+01 0.  1.
         -5    1    3    3    0  502 -0.60631932743E+02 -0.43241703090E+02 -0.13570725611E+02  0.75813673884E+02  0.41800000000E+01 0.  1.
        -11    1    4    4    0    0  0.13230892443E+03  0.23895363007E+02 -0.30293114934E+03  0.33142709771E+03  0.00000000000E+00 0.  1.
         11    1    4    4    0    0  0.71844744121E+02 -0.55809950796E+02 -0.25160359134E+03  0.26754585596E+03  0.00000000000E+00 0. -1.
</event>
<event>
 8    1  0.6493926E-009  0.1073548E+03  0.7561462E-02  0.1265548E+00
         -2   -1    0    0    0  501 -0.00000000000E+00  0.00000000000E+00  0.18169374875E+02  0.18169374875E+02  0.00000000000E+00 0.  1.
          2   -1    0    0  501    0  0.00000000000E+00 -0.00000000000E+00 -0.91446319121E+03  0.91446319121E+03  0.00000000000E+00 0. -1.
         25    2    1    2    0    0  0.15479030072E+02  0.65925178535E+02 -0.43785526162E+03  0.46038209713E+03  0.12509482679E+03 0.  0.
         23    2    1    2    0    0 -0.15479030072E+02 -0.65925178535E+02 -0.45843855471E+03  0.47225046895E+03  0.90933313171E+02 0.  0.
          5    1    3    3  502    0 -0.25046439035E+02  0.18613269122E+01 -0.12609589514E+02  0.28412370438E+02  0.41800000000E+01 0. -1.
         -5    1    3    3    0  502  0.40525469107E+02  0.64063851623E+02 -0.42524567211E+03  0.43196972669E+03  0.41800000000E+01 0. -1.
        -11    1    4    4    0    0  0.37227387043E+02 -0.15307058153E+02 -0.16961065584E+03  0.17432142424E+03  0.00000000000E+00 0. -1.
         11    1    4    4    0    0 -0.52706417116E+02 -0.50618120382E+02 -0.28882789887E+03  0.29792904471E+03  0.00000000000E+00 0.  1.
</event>
<event>
 8    1  0.6493926E-009  0.2277265E+03  0.7561462E-02  0.1128250E+00
          1   -1    0    0  501    0  0.00000000000E+00  0.00000000000E+00  0.11435990955E+04  0.11435990955E+04  0.00000000000E+00 0. -1.
         -1   -1    0    0    0  501 -0.00000000000E+00 -0.00000000000E+00 -0.63598037002E+02  0.63598037002E+02  0.00000000000E+00 0.  1.
         25    2    1    2    0    0  0.11995401173E+03 -0.19111860652E+03  0.77210070316E+03  0.81406500504E+03  0.12508816862E+03 0.  0.
         23    2    1    2    0    0 -0.11995401173E+03  0.19111860652E+03  0.30790035537E+03  0.39313212749E+03  0.93994436740E+02 0.  0.
          5    1    3    3  502    0  0.75804169350E+02 -0.99799399787E+02  0.61033675996E+03  0.62308476570E+03  0.41800000000E+01 0.  1.
         -5    1    3    3    0  502  0.44149842383E+02 -0.91319206732E+02  0.16176394320E+03  0.19098023934E+03  0.41800000000E+01 0.  1.
        -11    1    4    4    0    0 -0.47156866172E+02  0.44469093667E+02  0.31941388151E+02  0.72260103762E+02  0.00000000000E+00 0.  1.
         11    1    4    4    0    0 -0.72797145561E+02  0.14664951285E+03  0.27595896722E+03  0.32087202373E+03  0.00000000000E+00 0. -1.
</event>
<event>
 8    1  0.6493926E-009  0.1870596E+03  0.7561462E-02  0.1161140E+00
          2   -1    0    0  501    0  0.00000000000E+00  0.00000000000E+00  0.85918995020E+02  0.85918995020E+02  0.00000000000E+00 0.  1.
         -2   -1    0    0    0  501 -0.00000000000E+00 -0.00000000000E+00 -0.55179528659E+03  0.55179528659E+03  0.00000000000E+00 0. -1.
         25    2    1    2    0    0 -0.17631404864E+03 -0.25930892546E+02 -0.14304603549E+03  0.26051478605E+03  0.12508689198E+03 0.  0.
         23    2    1    2    0    0  0.17631404864E+03  0.25930892546E+02 -0.32283025608E+03  0.37719949556E+03  0.79379029163E+02 0.  0.
          5    1    3    3  502    0 -0.37887240376E+02 -0.39501190912E+02  0.76205724475E+01  0.55419604755E+02  0.41800000000E+01 0. -1.
         -5    1    3    3    0  502 -0.13842680827E+03  0.13570298366E+02 -0.15066660794E+03  0.20509518130E+03  0.41800000000E+01 0. -1.
        -11    1    4    4    0    0  0.34461178751E+02  0.15648541065E+02 -0.20398910846E+02  0.42994944379E+02  0.00000000000E+00 0.  1.
         11    1    4    4    0    0  0.14185286989E+03  0.10282351480E+02 -0.30243134524E+03  0.33420455118E+03  0.00000000000E+00 0. -1.
</event>
<event>
 8    1  0.6493926E-009  0.1279047E+03  0.7561462E-02  0.1230598E+00
          2   -1    0    0  501    0  0.00000000000E+00  0.00000000000E+00  0.13382774487E+04  0.13382774487E+04  0.00000000000E+00 0.  1.
         -2   -1    0    0    0  501 -0.00000000000E+00 -0.00000000000E+00 -0.20608081229E+02  0.20608081229E+02  0.00000000000E+00 0. -1.
         25    2    1    2    0    0  0.86538236741E+02 -0.91087941844E+02  0.73982019554E+03  0.76076752324E+03  0.12508966032E+03 0.  0.
         23    2    1    2    0    0 -0.86538236741E+02  0.91087941844E+02  0.57784917195E+03  0.59811800671E+03  0.89719590166E+02 0.  0.
          5    1    3    3  502    0  0.77907793990E+02 -0.70911945970E+02  0.72780615731E+03  0.73540288514E+03  0.41800000000E+01 0. -1.
         -5    1    3    3    0  502  0.86304427511E+01 -0.20175995873E+02  0.12014038228E+02  0.25364638103E+02  0.41800000000E+01 0. -1.
        -11    1    4    4    0    0 -0.22440615497E+02  0.97130867952E+01  0.22626671454E+02  0.33315034745E+02  0.00000000000E+00 0. -1.
         11    1    4    4    0    0 -0.64097621245E+02  0.81374855048E+02  0.55522250050E+03  0.56480297197E+03  0.00000000000E+00 0.  1.
</event>
<event>
 8    1  0.6493926E-009  0.6819536E+02  0.7561462E-02  0.1366340E+00
          4   -1    0    0  501    0  0.00000000000E+00  0.00000000000E+00  0.13699660601E+03  0.13699660601E+03  0.00000000000E+00 0. -1.
         -4   -1    0    0    0  501 -0.00000000000E+00 -0.00000000000E+00 -0.95175546377E+02  0.95175546377E+02  0.00000000000E+00 0.  1.
         25    2    1    2    0    0  0.13482440788E+02  0.10414478631E+02 -0.76656447539E+01  0.12647365723E+03  0.12508631536E+03 0.  0.
         23    2    1    2    0    0 -0.13482440788E+02 -0.10414478631E+02  0.49486704384E+02  0.10569849515E+03  0.91831369322E+02 0.  0.
          5    1    3    3  502    0  0.53938509341E+02  0.22671965022E+02  0.33307029025E+02  0.67455254579E+02  0.41800000000E+01 0. -1.
         -5    1    3    3    0  502 -0.40456068552E+02 -0.12257486391E+02 -0.40972673779E+02  0.59018402655E+02  0.41800000000E+01 0. -1.
        -11    1    4    4    0    0 -0.22704115405E+02 -0.20379357434E+01 -0.22862186164E+02  0.32284819879E+02  0.00000000000E+00 0.  1.
         11    1    4    4    0    0  0.92216746164E+01 -0.83765428873E+01  0.72348890548E+02  0.73413675272E+02  0.00000000000E+00 0. -1.
</event>
<event>
 8    1  0.6493926E-009  0.1473561E+03  0.7561462E-02  0.1203760E+00
         -3   -1    0    0    0  501 -0.00000000000E+00  0.00000000000E+00  0.15187052784E+03  0.15187052784E+03  0.00000000000E+00 0.  1.
          3   -1    0    0  501    0  0.00000000000E+00 -0.00000000000E+00 -0.15644052276E+03  0.15644052276E+03  0.00000000000E+00 0. -1.
         25    2    1    2    0    0  0.70706401714E+02 -0.82976213364E+02  0.17638799400E+01  0.16593552826E+03  0.12508813309E+03 0.  0.
         23    2    1    2    0    0 -0.70706401714E+02  0.82976213364E+02 -0.63338748534E+01  0.14237552234E+03  0.91357671619E+02 0.  0.
          5    1    3    3  502    0  0.92255482341E+02 -0.13997581820E+02  0.43025718759E+01  0.93503961647E+02  0.41800000000E+01 0. -1.
         -5    1    3    3    0  502 -0.21549080627E+02 -0.68978631543E+02 -0.25386919358E+01  0.72431566614E+02  0.41800000000E+01 0. -1.
        -11    1    4    4    0    0 -0.68650136441E+02  0.94728951157E+02 -0.25559549174E+02  0.11974851137E+03  0.00000000000E+00 0. -1.
         11    1    4    4    0    0 -0.20562652727E+01 -0.11752737793E+02  0.19225674321E+02  0.22627010973E+02  0.00000000000E+00 0.  1.
</event>
<event>
 8    1  0.6493926E-009  0.1354526E+03  0.7561462E-02  0.1219582E+00
          2   -1    0    0  501    0  0.00000000000E+00  0.00000000000E+00  0.53651939300E+03  0.53651939300E+03  0.00000000000E+00 0. -1.
         -2   -1    0    0    0  501 -0.00000000000E+00 -0.00000000000E+00 -0.51409068032E+02  0.51409068032E+02  0.00000000000E+00 0.  1.
         25    2    1    2    0    0 -0.10456893083E+03  0.13462107005E+01  0.38160802981E+03  0.41497984235E+03  0.12508839901E+03 0.  0.
         23    2    1    2    0    0  0.10456893083E+03 -0.13462107005E+01  0.10350229516E+03  0.17294861868E+03  0.90895687589E+02 0.  0.
          5    1    3    3  502    0 -0.69045494343E+02  0.61791831014E+02  0.22256449455E+03  0.24111809825E+03  0.41800000000E+01 0. -1.
         -5    1    3    3    0  502 -0.35523436485E+02 -0.60445620313E+02  0.15904353526E+03  0.17386174410E+03  0.41800000000E+01 0. -1.
        -11    1    4    4    0    0  0.79049035687E+02 -0.12562647397E+02  0.11717238637E+03  0.14190115673E+03  0.00000000000E+00 0. -1.
         11    1    4    4    0    0  0.25519895142E+02  0.11216436696E+02 -0.13670091209E+02  0.31047461955E+02  0.00000000000E+00 0.  1.
</event>
<event>
 8    1  0.6493926E-009  0.1835660E+03  0.7561462E-02  0.1164396E+00
          2   -1    0    0  501    0  0.00000000000E+00  0.00000000000E+00  0.22068158324E+04  0.22068158324E+04  0.00000000000E+00 0. -1.
         -2   -1    0    0    0  501 -0.00000000000E+00 -0.00000000000E+00 -0.20197529849E+02  0.20197529849E+02  0.00000000000E+00 0.  1.
         25    2    1    2    0    0 -0.26341307056E+02 -0.16817526683E+03  0.14657826439E+04  0.14809263911E+04  0.12508969528E+03 0.  0.
         23    2    1    2    0    0  0.26341307056E+02  0.16817526683E+03  0.72083565870E+03  0.74608697120E+03  0.89804993793E+02 0.  0.
          5    1    3    3  502    0  0.15575898744E+02 -0.30709854787E+02  0.73876433554E+02  0.81614359260E+02  0.41800000000E+01 0. -1.
         -5    1    3    3    0  502 -0.41917205800E+02 -0.13746541204E+03  0.13919062103E+04  0.13993120318E+04  0.41800000000E+01 0. -1.
        -11    1    4    4    0    0 -0.21250928060E+02  0.11648254620E+03  0.37744676619E+03  0.39558292029E+03  0.00000000000E+00 0. -1.
         11    1    4    4    0    0  0.47592235116E+02  0.51692720625E+02  0.34338889251E+03  0.35050405091E+03  0.00000000000E+00 0.  1.
</event>
<event>
 8    1  0.6493926E-009  0.1294552E+03  0.7561462E-02  0.1228266E+00
         -2   -1    0    0    0  501 -0.00000000000E+00  0.00000000000E+00  0.78468829186E+02  0.78468829186E+02  0.00000000000E+00 0. -1.
          2   -1    0    0  501    0  0.00000000000E+00 -0.00000000000E+00 -0.30031615802E+03  0.30031615802E+03  0.00000000000E+00 0.  1.
         25    2    1    2    0    0  0.38958636789E+02  0.84611200613E+02 -0.19771249105E+03  0.25182189597E+03  0.12508879855E+03 0.  0.
         23    2    1    2    0    0 -0.38958636789E+02 -0.84611200613E+02 -0.24134837783E+02  0.12696309123E+03  0.82826961139E+02 0.  0.
          5    1    3    3  502    0 -0.21628101470E+02  0.90362032024E+02 -0.13831987139E+03  0.16668212509E+03  0.41800000000E+01 0. -1.
         -5    1    3    3    0  502  0.60586738258E+02 -0.57508314108E+01 -0.59392619663E+02  0.85139770878E+02  0.41800000000E+01 0. -1.
        -11    1    4    4    0    0 -0.16482864230E+02  0.87711718381E+00 -0.34223140554E+02  0.37995756305E+02  0.00000000000E+00 0.  1.
         11    1    4    4    0    0 -0.22475772558E+02 -0.85488317797E+02  0.10088302771E+02  0.88967334930E+02  0.00000000000E+00 0. -1.
</event>
<event>
 8    1  0.6493926E-009  0.1074414E+03  0.7561462E-02  0.1265383E+00
         -1   -1    0    0    0  501 -0.00000000000E+00  0.00000000000E+00  0.63848648503E+02  0.63848648503E+02  0.00000000000E+00 0.  1.
          1   -1    0    0  501    0  0.00000000000E+00 -0.00000000000E+00 -0.49033790533E+03  0.49033790533E+03  0.00000000000E+00 0. -1.
         25    2    1    2    0    0  0.43025075278E+02  0.46420980465E+02 -0.42077302604E+03  0.44351183476E+03  0.12508694416E+03 0.  0.
         23    2    1    2    0    0 -0.43025075278E+02 -0.46420980465E+02 -0.57162307878E+01  0.11067471907E+03  0.90609898012E+02 0.  0.
          5    1    3    3  502    0 -0.25986825041E+02  0.21982975544E+02 -0.28930052356E+02  0.44866319426E+02  0.41800000000E+01 0. -1.
         -5    1    3    3    0  502  0.69011900319E+02  0.24438004921E+02 -0.39184297368E+03  0.39864551533E+03  0.41800000000E+01 0. -1.
        -11    1    4    4    0    0 -0.44708280497E+01  0.25375236325E+02  0.10074899818E+02  0.27665764554E+02  0.00000000000E+00 0.  1.
         11    1    4    4    0    0 -0.38554247228E+02 -0.71796216790E+02 -0.15791130606E+02  0.83008954520E+02  0.00000000000E+00 0. -1.
</event>
<event>
 7    1  0.6493926E-009  0.1353972E+03  0.7561462E-02  0.1219660E+00
          1   -1    0    0  501    0  0.00000000000E+00  0.00000000000E+00  0.32933888302E+03  0.32933888302E+03  0.00000000000E+00 0. -1.
         -1   -1    0    0    0  501 -0.00000000000E+00 -0.00000000000E+00 -0.84727194163E+02  0.84727194163E+02  0.00000000000E+00 0.  1.
         23    2    1    2    0    0 -0.12080067532E+03 -0.51338721228E+01  0.16944024882E+03  0.22459604044E+03  0.84345857406E+02 0.  0.
          5    1    1    2  502    0  0.11008276085E+03  0.32964060921E+02  0.98474889136E+02  0.15139227107E+03  0.41800000000E+01 0. -1.
         -5    1    1    2    0  502  0.10717914474E+02 -0.27830188798E+02 -0.23303449093E+02  0.38077765675E+02  0.41800000000E+01 0. -1.
        -11    1    3    3    0    0 -0.56550725316E+02 -0.19567961357E+02  0.23140270025E+02  0.64158878904E+02  0.00000000000E+00 0.  1.
         11    1    3    3    0    0 -0.64249950009E+02  0.14434089234E+02  0.14629997879E+03  0.16043716154E+03  0.00000000000E+00 0. -1.
</event>
<event>
 8    1  0.6493926E-009  0.1287298E+03  0.7561462E-02  0.1229353E+00
         -1   -1    0    0    0  501 -0.00000000000E+00  0.00000000000E+00  0.66389055772E+02  0.66389055772E+02  0.00000000000E+00 0.  1.
          1   -1    0    0  501    0  0.00000000000E+00 -0.00000000000E+00 -0.62843352919E+03  0.62843352919E+03  0.00000000000E+00 0. -1.
         25    2    1    2    0    0  0.67708564371E+02 -0.89082350525E+02 -0.69870309602E+02  0.18180747408E+03  0.12510788386E+03 0.  0.
         23    2    1    2    0    0 -0.67708564371E+02  0.89082350525E+02 -0.49217416382E+03  0.51301511088E+03  0.91809485321E+02 0.  0.
          5    1    3    3  502    0  0.87168996458E+02 -0.50585395591E+02 -0.88919699514E+02  0.13446747396E+03  0.41800000000E+01 0.  1.
         -5    1    3    3    0  502 -0.19460432086E+02 -0.38496954934E+02  0.19049389912E+02  0.47340000128E+02  0.41800000000E+01 0.  1.
        -11    1    4    4    0    0 -0.18554844159E+02  0.12939099528E+02 -0.14613297600E+02  0.26930484680E+02  0.00000000000E+00 0.  1.
         11    1    4    4    0    0 -0.49153720213E+02  0.76143250997E+02 -0.47756086622E+03  0.48608462620E+03  0.00000000000E+00 0. -1.
</event>
<event>
 8    1  0.6493926E-009  0.1396406E+03  0.7561462E-02  0.1213813E+00
          1   -1    0    0  501    0  0.00000000000E+00  0.00000000000E+00  0.55868915570E+03  0.55868915570E+03  0.00000000000E+00 0. -1.
         -1   -1    0    0    0  501 -0.00000000000E+00 -0.00000000000E+00 -0.48413829547E+02  0.48413829547E+02  0.00000000000E+00 0.  1.
         25    2    1    2    0    0 -0.62798794277E+02 -0.10340525799E+03  0.31824158661E+03  0.36271405275E+03  0.12508973046E+03 0.  0.
         23    2    1    2    0    0  0.62798794277E+02  0.10340525799E+03  0.19203373954E+03  0.24438893250E+03  0.90623712482E+02 0.  0.
          5    1    3    3  502    0 -0.68735744608E+02 -0.88925698552E+02  0.12249173606E+03  0.16629516004E+03  0.41800000000E+01 0. -1.
         -5    1    3    3    0  502  0.59369503306E+01 -0.14479559439E+02  0.19574985055E+03  0.19641889271E+03  0.41800000000E+01 0. -1.
        -11    1    4    4    0    0  0.43595821316E+02 -0.18343612669E+01  0.65358605694E+02  0.78585672076E+02  0.00000000000E+00 0.  1.
         11    1    4    4    0    0  0.19202972961E+02  0.10523961926E+03  0.12667513385E+03  0.16580326042E+03  0.00000000000E+00 0. -1.
</event>
<event>
 8    1  0.6493926E-009  0.1280028E+03  0.7561462E-02  0.1230450E+00
          1   -1    0    0  501    0  0.00000000000E+00  0.00000000000E+00  0.64045312619E+03  0.64045312619E+03  0.00000000000E+00 0. -1.
         -1   -1    0    0    0  501 -0.00000000000E+00 -0.00000000000E+00 -0.35048334214E+02  0.35048334214E+02  0.00000000000E+00 0.  1.
         25    2    1    2    0    0 -0.14302934954E+02  0.81550488412E+02  0.18922083039E+03  0.24147009065E+03  0.12509286917E+03 0.  0.
         23    2    1    2    0    0  0.14302934954E+02 -0.81550488412E+02  0.41618396158E+03  0.43403136975E+03  0.91209012373E+02 0.  0.
          5    1    3    3  502    0  0.97881449122E+01  0.10395972574E+03  0.17808691854E+03  0.20648451591E+03  0.41800000000E+01 0.  1.
         -5    1    3    3    0  502 -0.24091079867E+02 -0.22409237330E+02  0.11133911854E+02  0.34985574742E+02  0.41800000000E+01 0.  1.
        -11    1    4    4    0    0  0.50023073344E+02 -0.46898673483E+02  0.17903257528E+03  0.19171451811E+03  0.00000000000E+00 0. -1.
         11    1    4    4    0    0 -0.35720138389E+02 -0.34651814929E+02  0.23715138630E+03  0.24231685164E+03  0.00000000000E+00 0.  1.
</event>
<event>
 8    1  0.6493926E-009  0.1360491E+03  0.7561462E-02  0.1218746E+00
          1   -1    0    0  501    0  0.00000000000E+00  0.00000000000E+00  0.62498352864E+03  0.62498352864E+03  0.00000000000E+00 0. -1.
         -1   -1    0    0    0  501 -0.00000000000E+00 -0.00000000000E+00 -0.10161338959E+03  0.10161338959E+03  0.00000000000E+00 0.  1.
         25    2    1    2    0    0  0.10196543106E+03 -0.31606908431E+02  0.55773726732E+03  0.58147598026E+03  0.12509000949E+03 0.  0.
         23    2    1    2    0    0 -0.10196543106E+03  0.31606908431E+02 -0.34367128271E+02  0.14512093796E+03  0.92103427396E+02 0.  0.
          5    1    3    3  502    0  0.27456216309E+01 -0.41905279225E+02  0.33165957596E+03  0.33433387144E+03  0.41800000000E+01 0. -1.
         -5    1    3    3    0  502  0.99219809430E+02  0.10298370793E+02  0.22607769136E+03  0.24714210882E+03  0.41800000000E+01 0. -1.
        -11    1    4    4    0    0 -0.86515706208E+02 -0.86388476824E+01 -0.48744138193E+02  0.99677420303E+02  0.00000000000E+00 0.  1.
         11    1    4    4    0    0 -0.15449724853E+02  0.40245756114E+02  0.14377009922E+02  0.45443517662E+02  0.00000000000E+00 0. -1.
</event>
<event>
 8    1  0.6493926E-009  0.1605721E+03  0.7561462E-02  0.1188052E+00
         -2   -1    0    0    0  501 -0.00000000000E+00  0.00000000000E+00  0.25769543091E+02  0.25769543091E+02  0.00000000000E+00 0.  1.
          2   -1    0    0  501    0  0.00000000000E+00 -0.00000000000E+00 -0.13349365653E+04  0.13349365653E+04  0.00000000000E+00 0. -1.
         25    2    1    2    0    0 -0.74565347683E+01  0.13735621604E+03 -0.91579953795E+03  0.93448336784E+03  0.12509213030E+03 0.  0.
         23    2    1    2    0    0  0.74565347683E+01 -0.13735621604E+03 -0.39336748431E+03  0.42622274060E+03  0.89473554174E+02 0.  0.
          5    1    3    3  502    0  0.30234683216E+02  0.28348864295E+02 -0.53395419120E+03  0.53557664706E+03  0.41800000000E+01 0.  1.
         -5    1    3    3    0  502 -0.37691217984E+02  0.10900735175E+03 -0.38184534675E+03  0.39890672078E+03  0.41800000000E+01 0.  1.
        -11    1    4    4    0    0 -0.41123448153E+02 -0.60685716580E+02 -0.17208532117E+03  0.18704879563E+03  0.00000000000E+00 0. -1.
         11    1    4    4    0    0  0.48579982921E+02 -0.76670499465E+02 -0.22128216313E+03  0.23917394496E+03  0.00000000000E+00 0.  1.
</event>
<event>
 8    1  0.6493926E-009  0.1189643E+03  0.7561462E-02  0.1244815E+00
          2   -1    0    0  501    0  0.00000000000E+00  0.00000000000E+00  0.12684984714E+04  0.12684984714E+04  0.00000000000E+00 0. -1.
         -2   -1    0    0    0  501 -0.00000000000E+00 -0.00000000000E+00 -0.12412285085E+02  0.12412285085E+02  0.00000000000E+00 0.  1.
         25    2    1    2    0    0  0.45702689214E+02  0.16706053971E+02  0.89508797250E+03  0.90509513665E+03  0.12508756868E+03 0.  0.
         23    2    1    2    0    0 -0.45702689214E+02 -0.16706053971E+02  0.36099821383E+03  0.37581561984E+03  0.92465354004E+02 0.  0.
          5    1    3    3  502    0  0.76641412574E+02 -0.25582776254E+02  0.49488594441E+03  0.50145583548E+03  0.41800000000E+01 0.  1.
         -5    1    3    3    0  502 -0.30938723360E+02  0.42288830224E+02  0.40020202809E+03  0.40363930118E+03  0.41800000000E+01 0.  1.
        -11    1    4    4    0    0 -0.33203092299E+02  0.36768561027E+02  0.16672373105E+03  0.17392864892E+03  0.00000000000E+00 0.  1.
         11    1    4    4    0    0 -0.12499596914E+02 -0.53474614998E+02  0.19427448277E+03  0.20188697092E+03  0.00000000000E+00 0. -1.
</event>
<event>
 8    1  0.6493926E-009  0.2419505E+03  0.7561462E-02  0.1118500E+00
          1   -1    0    0  501    0  0.00000000000E+00  0.00000000000E+00  0.84764386722E+03  0.84764386722E+03  0.00000000000E+00 0. -1.
         -1   -1    0    0    0  501 -0.00000000000E+00 -0.00000000000E+00 -0.78321184112E+02  0.78321184112E+02  0.00000000000E+00 0.  1.
         25    2    1    2    0    0 -0.12496689054E+03 -0.18129075300E+03  0.55173462526E+03  0.60707561331E+03  0.12508654089E+03 0.  0.
         23    2    1    2    0    0  0.12496689054E+03  0.18129075300E+03  0.21758805784E+03  0.31888943802E+03  0.76569249113E+02 0.  0.
          5    1    3    3  502    0 -0.10449337567E+03 -0.43639963730E+02  0.27004878246E+03  0.29286025558E+03  0.41800000000E+01 0.  1.
         -5    1    3    3    0  502 -0.20473514875E+02 -0.13765078927E+03  0.28168584281E+03  0.31421535773E+03  0.41800000000E+01 0.  1.
        -11    1    4    4    0    0  0.13127649027E+03  0.14955010474E+03  0.17227013154E+03  0.26320286652E+03  0.00000000000E+00 0.  1.
         11    1    4    4    0    0 -0.63095997283E+01  0.31740648259E+02  0.45317926299E+02  0.55686571494E+02  0.00000000000E+00 0. -1.
</event>
<event>
 8    1  0.6493926E-009  0.1322306E+03  0.7561462E-02  0.1224183E+00
         -3   -1    0    0    0  501 -0.00000000000E+00  0.00000000000E+00  0.28120925850E+02  0.28120925850E+02  0.00000000000E+00 0.  1.
          3   -1    0    0  501    0  0.00000000000E+00 -0.00000000000E+00 -0.96418551865E+03  0.96418551865E+03  0.00000000000E+00 0. -1.
         25    2    1    2    0    0  0.63514342637E+02  0.90565112913E+02 -0.71199975459E+03  0.73131808580E+03  0.12508549350E+03 0.  0.
         23    2    1    2    0    0 -0.63514342637E+02 -0.90565112913E+02 -0.22406483821E+03  0.26098835870E+03  0.75324366955E+02 0.  0.
          5    1    3    3  502    0 -0.12011365560E+02  0.63639713788E+02 -0.14762051620E+03  0.16125624105E+03  0.41800000000E+01 0.  1.
         -5    1    3    3    0  502  0.75525708198E+02  0.26925399126E+02 -0.56437923839E+03  0.57006184475E+03  0.41800000000E+01 0.  1.
        -11    1    4    4    0    0 -0.49902041887E+02 -0.32311351314E+02 -0.52570302719E+02  0.79359145259E+02  0.00000000000E+00 0.  1.
         11    1    4    4    0    0 -0.13612300750E+02 -0.58253761600E+02 -0.17149453549E+03  0.18162921344E+03  0.00000000000E+00 0. -1.
</event>
<event>
 8    1  0.6493926E-009  0.1062339E+03  0.7561462E-02  0.1267707E+00
         -2   -1    0    0    0  501 -0.00000000000E+00  0.00000000000E+00  0.11462768213E+03  0.11462768213E+03  0.00000000000E+00 0.  1.
          2   -1    0    0  501    0  0.00000000000E+00 -0.00000000000E+00 -0.15287827182E+03  0.15287827182E+03  0.00000000000E+00 0. -1.
         25    2    1    2    0    0  0.29209519623E+02 -0.66412497439E+02 -0.18511054230E+01  0.14461921687E+03  0.12508986947E+03 0.  0.
         23    2    1    2    0    0 -0.29209519623E+02  0.66412497439E+02 -0.36399484274E+02  0.12288673708E+03  0.92262732682E+02 0.  0.
          5    1    3    3  502    0 -0.42702191536E+02 -0.27167230828E+02  0.27184143354E+02  0.57601958671E+02  0.41800000000E+01 0.  1.
         -5    1    3    3    0  502  0.71911711158E+02 -0.39245266611E+02 -0.29035248777E+02  0.87017258200E+02  0.41800000000E+01 0.  1.
        -11    1    4    4    0    0 -0.10967924270E+02  0.19508528606E+00  0.27169100222E+02  0.29300058497E+02  0.00000000000E+00 0.  1.
         11    1    4    4    0    0 -0.18241595353E+02  0.66217412153E+02 -0.63568584496E+02  0.93586678582E+02  0.00000000000E+00 0. -1.
</event>
<event>
 8    1  0.6493926E-009  0.8257078E+02  0.7561462E-02  0.1321910E+00
          3   -1    0    0  501    0  0.00000000000E+00  0.00000000000E+00  0.66546793961E+02  0.66546793961E+02  0.00000000000E+00 0. -1.
         -3   -1    0    0    0  501 -0.00000000000E+00 -0.00000000000E+00 -0.23367655525E+03  0.23367655525E+03  0.00000000000E+00 0.  1.
         25    2    1    2    0    0 -0.17929777338E+02  0.37572692578E+02 -0.14773380668E+03  0.19800571103E+03  0.12509116605E+03 0.  0.
         23    2    1    2    0    0  0.17929777338E+02 -0.37572692578E+02 -0.19395954609E+02  0.10221763818E+03  0.91318444778E+02 0.  0.
          5    1    3    3  502    0 -0.35393285648E+02 -0.14355547635E+02 -0.13665627377E+03  0.14195483781E+03  0.41800000000E+01 0.  1.
         -5    1    3    3    0  502  0.17463508310E+02  0.51928240213E+02 -0.11077532914E+02  0.56050873228E+02  0.41800000000E+01 0.  1.
        -11    1    4    4    0    0  0.34360785964E+02 -0.42521977601E+01  0.26188212915E+02  0.43411603214E+02  0.00000000000E+00 0. -1.
         11    1    4    4    0    0 -0.16431008627E+02 -0.33320494818E+02 -0.45584167524E+02  0.58806034965E+02  0.00000000000E+00 0.  1.
</event>
<event>
 8    1  0.6493926E-009  0.9483793E+02  0.7561462E-02  0.1291542E+00
         -2   -1    0    0    0  501 -0.00000000000E+00  0.00000000000E+00  0.44265788555E+02  0.44265788555E+02  0.00000000000E+00 0. -1.
          2   -1    0    0  501    0  0.00000000000E+00 -0.00000000000E+00 -0.35142042882E+03  0.35142042882E+03  0.00000000000E+00 0.  1.
         25    2    1    2    0    0 -0.37342930757E+02 -0.60474579156E+01 -0.99131850525E+02  0.16403027006E+03  0.12509092487E+03 0.  0.
         23    2    1    2    0    0  0.37342930757E+02  0.60474579156E+01 -0.20802278974E+03  0.23165594731E+03  0.94656910201E+02 0.  0.
          5    1    3    3  502    0  0.28247244194E+02  0.77063736477E+01 -0.91844233616E+02  0.96489018276E+02  0.41800000000E+01 0.  1.
         -5    1    3    3    0  502 -0.65590174951E+02 -0.13753831563E+02 -0.72876169087E+01  0.67541251787E+02  0.41800000000E+01 0.  1.
        -11    1    4    4    0    0 -0.24329075472E+02 -0.14042361280E+02 -0.11414279159E+03  0.11754858015E+03  0.00000000000E+00 0.  1.
         11    1    4    4    0    0  0.61672006229E+02  0.20089819196E+02 -0.93879998151E+02  0.11410736716E+03  0.00000000000E+00 0. -1.
</event>
<event>
 8    1  0.6493926E-009  0.1235485E+03  0.7561462E-02  0.1237355E+00
          1   -1    0    0  501    0  0.00000000000E+00  0.00000000000E+00  0.21866943542E+03  0.21866943542E+03  0.00000000000E+00 0. -1.
         -1   -1    0    0    0  501 -0.00000000000E+00 -0.00000000000E+00 -0.76603683189E+02  0.76603683189E+02  0.00000000000E+00 0.  1.
         25    2    1    2    0    0 -0.67051752246E+02 -0.28199844892E+02  0.58409042403E+02  0.15605063495E+03  0.12509602593E+03 0.  0.
         23    2    1    2    0    0  0.67051752246E+02  0.28199844892E+02  0.83656709825E+02  0.13922248365E+03  0.84221648788E+02 0.  0.
          5    1    3    3  502    0 -0.64784935090E+02  0.34102071175E+02  0.58114017754E+02  0.93566823888E+02  0.41800000000E+01 0.  1.
         -5    1    3    3    0  502 -0.22668171560E+01 -0.62301916067E+02  0.29502464865E+00  0.62483811065E+02  0.41800000000E+01 0.  1.
        -11    1    4    4    0    0  0.62533096373E+02  0.55500489501E+02  0.62408631068E+02  0.10433374195E+03  0.00000000000E+00 0.  1.
         11    1    4    4    0    0  0.45186558728E+01 -0.27300644609E+02  0.21248078757E+02  0.34888741706E+02  0.00000000000E+00 0. -1.
</event>
<event>
 8    1  0.6493926E-009  0.1071972E+03  0.7561462E-02  0.1265850E+00
         -2   -1    0    0    0  501 -0.00000000000E+00  0.00000000000E+00  0.34917754056E+02  0.34917754056E+02  0.00000000000E+00 0.  1.
          2   -1    0    0  501    0  0.00000000000E+00 -0.00000000000E+00 -0.33242034840E+03  0.33242034840E+03  0.00000000000E+00 0. -1.
         25    2    1    2    0    0  0.27479331064E+01 -0.80307000024E+00 -0.18293397444E+03  0.22163225223E+03  0.12509124736E+03 0.  0.
         23    2    1    2    0    0 -0.27479331064E+01  0.80307000024E+00 -0.11456861990E+03  0.14570585022E+03  0.89977942109E+02 0.  0.
          5    1    3    3  502    0 -0.58193685463E+02  0.18191136155E+02 -0.86563631921E+02  0.10596299936E+03  0.41800000000E+01 0. -1.
         -5    1    3    3    0  502  0.60941618569E+02 -0.18994206155E+02 -0.96370342524E+02  0.11566925287E+03  0.41800000000E+01 0. -1.
        -11    1    4    4    0    0  0.39901390745E+02  0.17420556733E+02 -0.46727859345E+02  0.63867751011E+02  0.00000000000E+00 0. -1.
         11    1    4    4    0    0 -0.42649323851E+02 -0.16617486733E+02 -0.67840760551E+02  0.81838099211E+02  0.00000000000E+00 0.  1.
</event>
<event>
 8    1  0.6493926E-009  0.2377989E+03  0.7561462E-02  0.1121268E+00
         -1   -1    0    0    0  501 -0.00000000000E+00  0.00000000000E+00  0.16997911680E+03  0.16997911680E+03  0.00000000000E+00 0.  1.
          1   -1    0    0  501    0  0.00000000000E+00 -0.00000000000E+00 -0.37945377584E+03  0.37945377584E+03  0.00000000000E+00 0. -1.
         25    2    1    2    0    0  0.83063286876E+02  0.19974992023E+03 -0.18955634777E+03  0.31365476439E+03  0.12509261364E+03 0.  0.
         23    2    1    2    0    0 -0.83063286876E+02 -0.19974992023E+03 -0.19918311265E+02  0.23577812825E+03  0.91624485677E+02 0.  0.
          5    1    3    3  502    0  0.11322314699E+03  0.15138962557E+03 -0.16678800296E+03  0.25213887062E+03  0.41800000000E+01 0.  1.
         -5    1    3    3    0  502 -0.30159860111E+02  0.48360294659E+02 -0.22768344809E+02  0.61515893773E+02  0.41800000000E+01 0.  1.
        -11    1    4    4    0    0 -0.91928923519E+02 -0.13098791897E+03  0.98415668272E+01  0.16032971756E+03  0.00000000000E+00 0.  1.
         11    1    4    4    0    0  0.88656366430E+01 -0.68762001264E+02 -0.29759878092E+02  0.75448410685E+02  0.00000000000E+00 0. -1.
</event>
<event>
 8    1  0.6493926E-009  0.3453254E+03  0.7561462E-02  0.1064550E+00
         -2   -1    0    0    0  501 -0.00000000000E+00  0.00000000000E+00  0.54207862336E+02  0.54207862336E+02  0.00000000000E+00 0.  1.
          2   -1    0    0  501    0  0.00000000000E+00 -0.00000000000E+00 -0.24063216697E+04  0.24063216697E+04  0.00000000000E+00 0. -1.
         25    2    1    2    0    0 -0.11598204200E+03  0.30867398493E+03 -0.85672506316E+03  0.92647548612E+03  0.12509008549E+03 0.  0.
         23    2    1    2    0    0  0.11598204200E+03 -0.30867398493E+03 -0.14953887442E+04  0.15340540459E+04  0.91667095906E+02 0.  0.
          5    1    3    3  502    0 -0.13062074255E+03  0.20055511671E+03 -0.65019576509E+03  0.69286083636E+03  0.41800000000E+01 0. -1.
         -5    1    3    3    0  502  0.14638700547E+02  0.10811886822E+03 -0.20652929808E+03  0.23361464976E+03  0.41800000000E+01 0. -1.
        -11    1    4    4    0    0  0.96869693389E+02 -0.12859808736E+03 -0.72731455685E+03  0.74492125099E+03  0.00000000000E+00 0.  1.
         11    1    4    4    0    0  0.19112348610E+02 -0.18007589757E+03 -0.76807418731E+03  0.78913279489E+03  0.00000000000E+00 0. -1.
</event>
<event>
 8    1  0.6493926E-009  0.1019255E+03  0.7561462E-02  0.1276298E+00
          1   -1    0    0  501    0  0.00000000000E+00  0.00000000000E+00  0.75374625941E+02  0.75374625941E+02  0.00000000000E+00 0. -1.
         -1   -1    0    0    0  501 -0.00000000000E+00 -0.00000000000E+00 -0.19669152712E+03  0.19669152712E+03  0.00000000000E+00 0.  1.
         25    2    1    2    0    0  0.27674403972E+02 -0.35528207464E+02 -0.30333113740E+02  0.13636353175E+03  0.12508712501E+03 0.  0.
         23    2    1    2    0    0 -0.27674403972E+02  0.35528207464E+02 -0.90983787442E+02  0.13570262131E+03  0.90050128775E+02 0.  0.
          5    1    3    3  502    0  0.45560238662E+02 -0.67071916478E+02  0.10186944691E+02  0.81826790045E+02  0.41800000000E+01 0. -1.
         -5    1    3    3    0  502 -0.17885834690E+02  0.31543709014E+02 -0.40520058430E+02  0.54536741708E+02  0.41800000000E+01 0. -1.
        -11    1    4    4    0    0  0.11689456824E+02 -0.16930360412E+02 -0.59491189391E+02  0.62948249536E+02  0.00000000000E+00 0.  1.
         11    1    4    4    0    0 -0.39363860796E+02  0.52458567876E+02 -0.31492598051E+02  0.72754371775E+02  0.00000000000E+00 0. -1.
</event>
<event>
 8    1  0.6493926E-009  0.1136390E+03  0.7561462E-02  0.1253976E+00
          1   -1    0    0  501    0  0.00000000000E+00  0.00000000000E+00  0.24499345687E+03  0.24499345687E+03  0.00000000000E+00 0. -1.
         -1   -1    0    0    0  501 -0.00000000000E+00 -0.00000000000E+00 -0.79162318551E+02  0.79162318551E+02  0.00000000000E+00 0.  1.
         25    2    1    2    0    0  0.86228992359E+02  0.24730031092E+01  0.71678532640E+02  0.16800967805E+03  0.12509150654E+03 0.  0.
         23    2    1    2    0    0 -0.86228992359E+02 -0.24730031092E+01  0.94152605682E+02  0.15614609738E+03  0.89862871658E+02 0.  0.
          5    1    3    3  502    0  0.85737142773E+02 -0.18521568598E+02 -0.54311503812E+01  0.87982247918E+02  0.41800000000E+01 0.  1.
         -5    1    3    3    0  502  0.49184958559E+00  0.20994571707E+02  0.77109683021E+02  0.80027430127E+02  0.41800000000E+01 0.  1.
        -11    1    4    4    0    0 -0.77533334627E+02  0.30974814452E+02  0.41685352912E+02  0.93319482190E+02  0.00000000000E+00 0.  1.
         11    1    4    4    0    0 -0.86956577315E+01 -0.33447817561E+02  0.52467252770E+02  0.62826615190E+02  0.00000000000E+00 0. -1.
</event>
<event>
 8    1  0.6493926E-009  0.9144467E+02  0.7561462E-02  0.1299390E+00
         -2   -1    0    0    0  501 -0.00000000000E+00  0.00000000000E+00  0.35506738214E+02  0.35506738214E+02  0.00000000000E+00 0.  1.
          2   -1    0    0  501    0  0.00000000000E+00 -0.00000000000E+00 -0.45040452373E+03  0.45040452373E+03  0.00000000000E+00 0. -1.
         25    2    1    2    0    0 -0.12727569524E+02 -0.53155437221E+02 -0.29823955406E+03  0.32799578272E+03  0.12508761067E+03 0.  0.
         23    2    1    2    0    0  0.12727569524E+02  0.53155437221E+02 -0.11665823146E+03  0.15791547923E+03  0.91327236245E+02 0.  0.
          5    1    3    3  502    0  0.32292968926E+02  0.15535053610E+02 -0.18240166498E+03  0.18593550903E+03  0.41800000000E+01 0. -1.
         -5    1    3    3    0  502 -0.45020538450E+02 -0.68690490832E+02 -0.11583788908E+03  0.14206027368E+03  0.41800000000E+01 0. -1.
        -11    1    4    4    0    0  0.19631915924E+02  0.12357741442E+02  0.95582572071E+01  0.25089563114E+02  0.00000000000E+00 0.  1.
         11    1    4    4    0    0 -0.69043464000E+01  0.40797695780E+02 -0.12621648867E+03  0.13282591611E+03  0.00000000000E+00 0. -1.
</event>
<event>
 8    1  0.6493926E-009  0.9363935E+02  0.7561462E-02  0.1294270E+00
         -2   -1    0    0    0  501 -0.00000000000E+00  0.00000000000E+00  0.13902455981E+02  0.13902455981E+02  0.00000000000E+00 0.  1.
          2   -1    0    0  501    0  0.00000000000E+00 -0.00000000000E+00 -0.99513993683E+03  0.99513993683E+03  0.00000000000E+00 0. -1.
         25    2    1    2    0    0  0.44521050525E+02 -0.76368835608E+01 -0.63951573150E+03  0.65319828988E+03  0.12508872505E+03 0.  0.
         23    2    1    2    0    0 -0.44521050525E+02  0.76368835608E+01 -0.34172174935E+03  0.35584410293E+03  0.88378875769E+02 0.  0.
          5    1    3    3  502    0  0.23630695456E+02  0.37389313224E+02 -0.80321862856E+02  0.91790220415E+02  0.41800000000E+01 0.  1.
         -5    1    3    3    0  502  0.20890355069E+02 -0.45026196785E+02 -0.55919386864E+03  0.56140806946E+03  0.41800000000E+01 0.  1.
        -11    1    4    4    0    0 -0.22652567358E+02 -0.36970950148E+02 -0.98816868239E+02  0.10791090497E+03  0.00000000000E+00 0.  1.
         11    1    4    4    0    0 -0.21868483167E+02  0.44607833709E+02 -0.24290488111E+03  0.24793319796E+03  0.00000000000E+00 0. -1.
</event>
<event>
 8    1  0.6493926E-009  0.1109290E+03  0.7561462E-02  0.1258859E+00
          4   -1    0    0  501    0  0.00000000000E+00  0.00000000000E+00  0.29774681708E+02  0.29774681708E+02  0.00000000000E+00 0. -1.
         -4   -1    0    0    0  501 -0.00000000000E+00 -0.00000000000E+00 -0.46322412038E+03  0.46322412038E+03  0.00000000000E+00 0.  1.
         25    2    1    2    0    0  0.42235569801E+02 -0.13588657804E+02 -0.26398341710E+03  0.29547203158E+03  0.12509189409E+03 0.  0.
         23    2    1    2    0    0 -0.42235569801E+02  0.13588657804E+02 -0.16946602158E+03  0.19752677051E+03  0.91266629284E+02 0.  0.
          5    1    3    3  502    0 -0.40427472378E+02 -0.24551648102E+02 -0.11968653902E+03  0.12876142268E+03  0.41800000000E+01 0.  1.
         -5    1    3    3    0  502  0.82663042180E+02  0.10962990298E+02 -0.14429687808E+03  0.16671060890E+03  0.41800000000E+01 0.  1.
        -11    1    4    4    0    0  0.22863940286E+02  0.11869296744E+02 -0.95798457345E+02  0.99201735874E+02  0.00000000000E+00 0.  1.
         11    1    4    4    0    0 -0.65099510088E+02  0.17193610602E+01 -0.73667564234E+02  0.98325034636E+02  0.00000000000E+00 0. -1.
</event>
<event>
 8    1  0.6493926E-009  0.1089546E+03  0.7561462E-02  0.1262518E+00
         -2   -1    0    0    0  501 -0.00000000000E+00  0.00000000000E+00  0.14583664845E+03  0.14583664845E+03  0.00000000000E+00 0.  1.
          2   -1    0    0  501    0  0.00000000000E+00 -0.00000000000E+00 -0.86044757800E+02  0.86044757800E+02  0.00000000000E+00 0. -1.
         25    2    1    2    0    0  0.11942476811E+02  0.89119403238E+01  0.60374128508E+02  0.13969622470E+03  0.12509178379E+03 0.  0.
         23    2    1    2    0    0 -0.11942476811E+02 -0.89119403238E+01 -0.58223785844E+00  0.92185181547E+02  0.90971002321E+02 0.  0.
          5    1    3    3  502    0  0.60910691421E+02 -0.25079547000E+02  0.27599390960E+02  0.71542258760E+02  0.41800000000E+01 0. -1.
         -5    1    3    3    0  502 -0.48968214610E+02  0.33991487323E+02  0.32774737548E+02  0.68153965944E+02  0.41800000000E+01 0. -1.
        -11    1    4    4    0    0  0.35380257687E+02 -0.23682065340E+02 -0.15263865480E+01  0.42602027049E+02  0.00000000000E+00 0. -1.
         11    1    4    4    0    0 -0.47322734498E+02  0.14770125016E+02  0.94414868952E+00  0.49583154499E+02  0.00000000000E+00 0.  1.
</event>
<event>
 8    1  0.6493926E-009  0.1148722E+03  0.7561462E-02  0.1251804E+00
         -3   -1    0    0    0  501 -0.00000000000E+00  0.00000000000E+00  0.18405864377E+03  0.18405864377E+03  0.00000000000E+00 0.  1.
          3   -1    0    0  501    0  0.00000000000E+00 -0.00000000000E+00 -0.87006399430E+02  0.87006399430E+02  0.00000000000E+00 0. -1.
         25    2    1    2    0    0 -0.56260226847E+01 -0.64360823996E+02  0.44762476461E+02  0.14773204900E+03  0.12508841356E+03 0.  0.
         23    2    1    2    0    0  0.56260226847E+01  0.64360823996E+02  0.52289767875E+02  0.12333299420E+03  0.91119920084E+02 0.  0.
          5    1    3    3  502    0  0.24590607769E+02 -0.94497093760E+02  0.34466723247E+02  0.10363313240E+03  0.41800000000E+01 0.  1.
         -5    1    3    3    0  502 -0.30216630454E+02  0.30136269764E+02  0.10295753214E+02  0.44098916602E+02  0.41800000000E+01 0.  1.
        -11    1    4    4    0    0 -0.28014155942E+02  0.29841611351E+02 -0.12301987627E+02  0.42739368277E+02  0.00000000000E+00 0. -1.
         11    1    4    4    0    0  0.33640178627E+02  0.34519212646E+02  0.64591755502E+02  0.80593625918E+02  0.00000000000E+00 0.  1.
</event>
<event>
 8    1  0.6493926E-009  0.1043342E+03  0.7561462E-02  0.1271437E+00
          2   -1    0    0  501    0  0.00000000000E+00  0.00000000000E+00  0.29341747983E+03  0.29341747983E+03  0.00000000000E+00 0. -1.
         -2   -1    0    0    0  501 -0.00000000000E+00 -0.00000000000E+00 -0.48948758183E+02  0.48948758183E+02  0.00000000000E+00 0.  1.
         25    2    1    2    0    0 -0.24191434095E+01  0.38144631850E+02  0.18875187439E+03  0.22964184692E+03  0.12508893866E+03 0.  0.
         23    2    1    2    0    0  0.24191434095E+01 -0.38144631850E+02  0.55716847251E+02  0.11272439109E+03  0.90230571792E+02 0.  0.
          5    1    3    3  502    0  0.57127770764E+02  0.31176772840E+02  0.13078645392E+03  0.14614425164E+03  0.41800000000E+01 0. -1.
         -5    1    3    3    0  502 -0.59546914174E+02  0.69678590103E+01  0.57965420468E+02  0.83497595276E+02  0.41800000000E+01 0. -1.
        -11    1    4    4    0    0 -0.15494428163E+02  0.18391256041E+02 -0.83170994924E+01  0.25445819830E+02  0.00000000000E+00 0.  1.
         11    1    4    4    0    0  0.17913571572E+02 -0.56535887892E+02  0.64033946743E+02  0.87278571263E+02  0.00000000000E+00 0. -1.
</event>
<event>
 8    1  0.6493926E-009  0.1067820E+03  0.7561462E-02  0.1266648E+00
         -1   -1    0    0    0  501 -0.00000000000E+00  0.00000000000E+00  0.15009613718E+03  0.15009613718E+03  0.00000000000E+00 0.  1.
          1   -1    0    0  501    0  0.00000000000E+00 -0.00000000000E+00 -0.12508331345E+03  0.12508331345E+03  0.00000000000E+00 0. -1.
         25    2    1    2    0    0  0.11722944051E+02  0.43392876211E+02  0.81538854527E+02  0.15593529447E+03  0.12508741799E+03 0.  0.
         23    2    1    2    0    0 -0.11722944051E+02 -0.43392876211E+02 -0.56526030793E+02  0.11924415616E+03  0.94887341085E+02 0.  0.
          5    1    3    3  502    0 -0.19309668184E+02  0.72695087177E+02  0.15057428712E+02  0.76822116246E+02  0.41800000000E+01 0. -1.
         -5    1    3    3    0  502  0.31032612236E+02 -0.29302210966E+02  0.66481425815E+02  0.79113178220E+02  0.41800000000E+01 0. -1.
        -11    1    4    4    0    0 -0.34040079066E+02 -0.58998919535E+02 -0.15261089143E+02  0.69803297422E+02  0.00000000000E+00 0.  1.
         11    1    4    4    0    0  0.22317135015E+02  0.15606043324E+02 -0.41264941650E+02  0.49440858739E+02  0.00000000000E+00 0. -1.
</event>
<event>
 8    1  0.6493926E-009  0.1080695E+03  0.7561462E-02  0.1264187E+00
         -2   -1    0    0    0  501 -0.00000000000E+00  0.00000000000E+00  0.10653581128E+03  0.10653581128E+03  0.00000000000E+00 0.  1.
          2   -1    0    0  501    0  0.00000000000E+00 -0.00000000000E+00 -0.13574009585E+03  0.13574009585E+03  0.00000000000E+00 0. -1.
         25    2    1    2    0    0  0.41077060354E+02  0.27149145800E+02 -0.10551162366E+00  0.13443238232E+03  0.12509058030E+03 0.  0.
         23    2    1    2    0    0 -0.41077060354E+02 -0.27149145800E+02 -0.29098772945E+02  0.10784352480E+03  0.91428038644E+02 0.  0.
          5    1    3    3  502    0  0.84854268845E+02  0.57066465896E+01 -0.47898403676E+01  0.85283220667E+02  0.41800000000E+01 0. -1.
         -5    1    3    3    0  502 -0.43777208492E+02  0.21442499211E+02  0.46843287439E+01  0.49149161656E+02  0.41800000000E+01 0. -1.
        -11    1    4    4    0    0  0.14564945178E+02  0.76353448533E+01 -0.38205620969E+02  0.41594538015E+02  0.00000000000E+00 0. -1.
         11    1    4    4    0    0 -0.55642005532E+02 -0.34784490653E+02  0.91068480241E+01  0.66248986789E+02  0.00000000000E+00 0.  1.
</event>
<event>
 8    1  0.6493926E-009  0.1201752E+03  0.7561462E-02  0.1242808E+00
          1   -1    0    0  501    0  0.00000000000E+00  0.00000000000E+00  0.28707056788E+03  0.28707056788E+03  0.00000000000E+00 0. -1.
         -1   -1    0    0    0  501 -0.00000000000E+00 -0.00000000000E+00 -0.63083219498E+02  0.63083219498E+02  0.00000000000E+00 0.  1.
         25    2    1    2    0    0 -0.27282993366E+02  0.68241968116E+02  0.97158523061E+02  0.17461058408E+03  0.12509096503E+03 0.  0.
         23    2    1    2    0    0  0.27282993366E+02 -0.68241968116E+02  0.12682882533E+03  0.17554320330E+03  0.96584353557E+02 0.  0.
          5    1    3    3  502    0 -0.75772411064E+02  0.26067712855E+02  0.60643357477E+02  0.10057869127E+03  0.41800000000E+01 0. -1.
         -5    1    3    3    0  502  0.48489417698E+02  0.42174255261E+02  0.36515165584E+02  0.74031892811E+02  0.41800000000E+01 0. -1.
        -11    1    4    4    0    0 -0.19881907357E+02 -0.18393698490E+02  0.97009311037E+02  0.10071953540E+03  0.00000000000E+00 0.  1.
         11    1    4    4    0    0  0.47164900723E+02 -0.49848269625E+02  0.29819514289E+02  0.74823667896E+02  0.00000000000E+00 0. -1.
</event>
<event>
 8    1  0.6493926E-009  0.1564452E+03  0.7561462E-02  0.1192770E+00
         -1   -1    0    0    0  501 -0.00000000000E+00  0.00000000000E+00  0.24087758192E+02  0.24087758192E+02  0.00000000000E+00 0.  1.
          1   -1    0    0  501    0  0.00000000000E+00 -0.00000000000E+00 -0.13197512961E+04  0.13197512961E+04  0.00000000000E+00 0. -1.
         25    2    1    2    0    0  0.10162549057E+02 -0.13987942852E+03 -0.74181210693E+03  0.76524607833E+03  0.12508727548E+03 0.  0.
         23    2    1    2    0    0 -0.10162549057E+02  0.13987942852E+03 -0.55385143098E+03  0.57859297596E+03  0.91372273182E+02 0.  0.
          5    1    3    3  502    0 -0.42054087518E+02 -0.82615744336E+02 -0.55888174766E+03  0.56653348335E+03  0.41800000000E+01 0.  1.
         -5    1    3    3    0  502  0.52216636575E+02 -0.57263684187E+02 -0.18293035927E+03  0.19871259498E+03  0.41800000000E+01 0.  1.
        -11    1    4    4    0    0 -0.17980383946E+02  0.74525795607E+02 -0.44370279323E+03  0.45027720033E+03  0.00000000000E+00 0. -1.
         11    1    4    4    0    0  0.78178348892E+01  0.65353632917E+02 -0.11014863775E+03  0.12831577564E+03  0.00000000000E+00 0.  1.
</event>
<event>
 8    1  0.6493926E-009  0.1744986E+03  0.7561462E-02  0.1173236E+00
          1   -1    0    0  501    0  0.00000000000E+00  0.00000000000E+00  0.15877496104E+04  0.15877496104E+04  0.00000000000E+00 0. -1.
         -1   -1    0    0    0  501 -0.00000000000E+00 -0.00000000000E+00 -0.26325055297E+02  0.26325055297E+02  0.00000000000E+00 0.  1.
         25    2    1    2    0    0 -0.11384522148E+03  0.90920420181E+02  0.11748113251E+04  0.11904017466E+04  0.12508961345E+03 0.  0.
         23    2    1    2    0    0  0.11384522148E+03 -0.90920420181E+02  0.38661322994E+03  0.42367291907E+03  0.93817351934E+02 0.  0.
          5    1    3    3  502    0 -0.13746331885E+03  0.82487414171E+02  0.10938240928E+04  0.11055175059E+04  0.41800000000E+01 0. -1.
         -5    1    3    3    0  502  0.23618097367E+02  0.84330060099E+01  0.80987232327E+02  0.84884240667E+02  0.41800000000E+01 0. -1.
        -11    1    4    4    0    0  0.11188193328E+03 -0.10233392986E+03  0.38237640017E+03  0.41134111343E+03  0.00000000000E+00 0. -1.
         11    1    4    4    0    0  0.19632881987E+01  0.11413509675E+02  0.42368297751E+01  0.12331805634E+02  0.00000000000E+00 0.  1.
</event>
<event>
 8    1  0.6493926E-009  0.9494224E+02  0.7561462E-02  0.1291306E+00
          1   -1    0    0  501    0  0.00000000000E+00  0.00000000000E+00  0.74137068272E+03  0.74137068272E+03  0.00000000000E+00 0. -1.
         -1   -1    0    0    0  501 -0.00000000000E+00 -0.00000000000E+00 -0.38048774874E+02  0.38048774874E+02  0.00000000000E+00 0.  1.
         25    2    1    2    0    0  0.32190970334E+02  0.47708938668E+02  0.63895503245E+03  0.65362314849E+03  0.12508910965E+03 0.  0.
         23    2    1    2    0    0 -0.32190970334E+02 -0.47708938668E+02  0.64366875394E+02  0.12579630910E+03  0.91483415630E+02 0.  0.
          5    1    3    3  502    0 -0.11238798992E+02  0.46554777886E+02  0.82695352269E+02  0.95653811391E+02  0.41800000000E+01 0. -1.
         -5    1    3    3    0  502  0.43429769326E+02  0.11541607819E+01  0.55625968018E+03  0.55796933710E+03  0.41800000000E+01 0. -1.
        -11    1    4    4    0    0 -0.34865042047E+01 -0.64709533949E+02  0.65867612259E+02  0.92401416873E+02  0.00000000000E+00 0. -1.
         11    1    4    4    0    0 -0.28704466130E+02  0.17000595281E+02 -0.15007368651E+01  0.33394892227E+02  0.00000000000E+00 0.  1.
</event>
<event>
 8    1  0.6493926E-009  0.1235458E+03  0.7561462E-02  0.1237360E+00
          2   -1    0    0  501    0  0.00000000000E+00  0.00000000000E+00  0.91435829290E+02  0.91435829290E+02  0.00000000000E+00 0. -1.
         -2   -1    0    0    0  501 -0.00000000000E+00 -0.00000000000E+00 -0.27573039759E+03  0.27573039759E+03  0.00000000000E+00 0.  1.
         25    2    1    2    0    0  0.76466611692E+02 -0.18599033211E+02 -0.12951369205E+01  0.14779676438E+03  0.12509652050E+03 0.  0.
         23    2    1    2    0    0 -0.76466611692E+02  0.18599033211E+02 -0.18299943137E+03  0.21936946250E+03  0.91875472536E+02 0.  0.
          5    1    3    3  502    0  0.37075960537E+02 -0.71275690901E+02  0.95013254460E+01  0.81009866982E+02  0.41800000000E+01 0. -1.
         -5    1    3    3    0  502  0.39390651155E+02  0.52676657690E+02 -0.10796462366E+02  0.66786897393E+02  0.41800000000E+01 0. -1.
        -11    1    4    4    0    0 -0.35801163474E+01 -0.18572623156E+02 -0.10376079945E+03  0.10547067396E+03  0.00000000000E+00 0.  1.
         11    1    4    4    0    0 -0.72886495345E+02  0.37171656367E+02 -0.79238631929E+02  0.11389878854E+03  0.00000000000E+00 0. -1.
</event>
<event>
 8    1  0.6493926E-009  0.2733853E+03  0.7561462E-02  0.1099358E+00
         -2   -1    0    0    0  501 -0.00000000000E+00  0.00000000000E+00  0.90436865992E+02  0.90436865992E+02  0.00000000000E+00 0.  1.
          2   -1    0    0  501    0  0.00000000000E+00 -0.00000000000E+00 -0.93766978168E+03  0.93766978168E+03  0.00000000000E+00 0. -1.
         25    2    1    2    0    0  0.82538354688E+02  0.25828660810E+03 -0.41880190605E+03  0.51436037448E+03  0.12508799464E+03 0.  0.
         23    2    1    2    0    0 -0.82538354688E+02 -0.25828660810E+03 -0.42843100964E+03  0.51374627319E+03  0.82810333195E+02 0.  0.
          5    1    3    3  502    0  0.32757115047E+02  0.87772551126E+02 -0.25875607541E+03  0.27522577692E+03  0.41800000000E+01 0. -1.
         -5    1    3    3    0  502  0.49781239641E+02  0.17051405697E+03 -0.16004583064E+03  0.23913459756E+03  0.41800000000E+01 0. -1.
        -11    1    4    4    0    0 -0.48091662142E+02 -0.21327595065E+03 -0.28267483251E+03  0.35735766401E+03  0.00000000000E+00 0.  1.
         11    1    4    4    0    0 -0.34446692546E+02 -0.45010657449E+02 -0.14575617712E+03  0.15638860918E+03  0.00000000000E+00 0. -1.
</event>
<event>
 8    1  0.6493926E-009  0.1120947E+03  0.7561462E-02  0.1256739E+00
          1   -1    0    0  501    0  0.00000000000E+00  0.00000000000E+00  0.78380105522E+02  0.78380105522E+02  0.00000000000E+00 0. -1.
         -1   -1    0    0    0  501 -0.00000000000E+00 -0.00000000000E+00 -0.25747242337E+03  0.25747242337E+03  0.00000000000E+00 0.  1.
         25    2    1    2    0    0  0.33167528321E+02 -0.45150389225E+02 -0.18271775812E+03  0.22841702975E+03  0.12509963136E+03 0.  0.
         23    2    1    2    0    0 -0.33167528321E+02  0.45150389225E+02  0.36254402771E+01  0.10743549913E+03  0.91600218750E+02 0.  0.
          5    1    3    3  502    0  0.42067493688E+02  0.35867899633E+02 -0.75737149505E+02  0.93860366846E+02  0.41800000000E+01 0.  1.
         -5    1    3    3    0  502 -0.88999653662E+01 -0.81018288857E+02 -0.10698060862E+03  0.13455666291E+03  0.41800000000E+01 0.  1.
        -11    1    4    4    0    0  0.19330029836E+01 -0.16274888235E+02 -0.26001412787E+02  0.30735678852E+02  0.00000000000E+00 0.  1.
         11    1    4    4    0    0 -0.35100531305E+02  0.61425277460E+02  0.29626853064E+02  0.76699820283E+02  0.00000000000E+00 0. -1.
</event>
<event>
 8    1  0.6493926E-009  0.1155501E+03  0.7561462E-02  0.1250624E+00
         -1   -1    0    0    0  501 -0.00000000000E+00  0.00000000000E+00  0.21918618891E+04  0.21918618891E+04  0.00000000000E+00 0.  1.
          1   -1    0    0  501    0  0.00000000000E+00 -0.00000000000E+00 -0.77339358785E+01  0.77339358785E+01  0.00000000000E+00 0. -1.
         25    2    1    2    0    0 -0.20346230382E+02  0.37333131961E+02  0.17086890168E+04  0.17137892985E+04  0.12509145268E+03 0.  0.
         23    2    1    2    0    0  0.20346230382E+02 -0.37333131961E+02  0.47543893637E+03  0.48580652648E+03  0.90322018983E+02 0.  0.
          5    1    3    3  502    0 -0.33828864658E+02  0.79967496609E+02  0.10725991083E+04  0.10761159381E+04  0.41800000000E+01 0. -1.
         -5    1    3    3    0  502  0.13482634276E+02 -0.42634364648E+02  0.63608990851E+03  0.63767336041E+03  0.41800000000E+01 0. -1.
        -11    1    4    4    0    0  0.44524351933E+02 -0.53929697638E+02  0.31022793941E+03  0.31801290004E+03  0.00000000000E+00 0.  1.
         11    1    4    4    0    0 -0.24178121551E+02  0.16596565677E+02  0.16521099696E+03  0.16779362643E+03  0.00000000000E+00 0. -1.
</event>
<event>
 8    1  0.6493926E-009  0.1238999E+03  0.7561462E-02  0.1236799E+00
         -2   -1    0    0    0  501 -0.00000000000E+00  0.00000000000E+00  0.55409941562E+02  0.55409941562E+02  0.00000000000E+00 0.  1.
          2   -1    0    0  501    0  0.00000000000E+00 -0.00000000000E+00 -0.40812679629E+03  0.40812679629E+03  0.00000000000E+00 0. -1.
         25    2    1    2    0    0  0.30242824928E+01 -0.78890126221E+02 -0.29484688740E+03  0.32987256813E+03  0.12509366849E+03 0.  0.
         23    2    1    2    0    0 -0.30242824928E+01  0.78890126221E+02 -0.57869967333E+02  0.13366416972E+03  0.91018563213E+02 0.  0.
          5    1    3    3  502    0  0.46357345225E+02 -0.11377043465E+02 -0.39219541427E+02  0.61919991958E+02  0.41800000000E+01 0.  1.
         -5    1    3    3    0  502 -0.43333062732E+02 -0.67513082756E+02 -0.25562734597E+03  0.26795257617E+03  0.41800000000E+01 0.  1.
        -11    1    4    4    0    0  0.12142226042E+02  0.95955802585E+02 -0.39977655756E+02  0.10465735838E+03  0.00000000000E+00 0. -1.
         11    1    4    4    0    0 -0.15166508535E+02 -0.17065676364E+02 -0.17892311577E+02  0.29006811346E+02  0.00000000000E+00 0.  1.
</event>
<event>
 8    1  0.6493926E-009  0.9054683E+02  0.7561462E-02  0.1301533E+00
         -2   -1    0    0    0  501 -0.00000000000E+00  0.00000000000E+00  0.27746224407E+02  0.27746224407E+02  0.00000000000E+00 0.  1.
          2   -1    0    0  501    0  0.00000000000E+00 -0.00000000000E+00 -0.63925855219E+03  0.63925855219E+03  0.00000000000E+00 0. -1.
         25    2    1    2    0    0 -0.64083593953E+02 -0.16492563558E+02 -0.24064217303E+03  0.27917011540E+03  0.12509430931E+03 0.  0.
         23    2    1    2    0    0  0.64083593953E+02  0.16492563558E+02 -0.37087015475E+03  0.38783466120E+03  0.92153898867E+02 0.  0.
          5    1    3    3  502    0 -0.12032241020E+02  0.87751671190E+00  0.13825808599E+02  0.18819411334E+02  0.41800000000E+01 0.  1.
         -5    1    3    3    0  502 -0.52051352933E+02 -0.17370080270E+02 -0.25446798163E+03  0.26035070406E+03  0.41800000000E+01 0.  1.
        -11    1    4    4    0    0  0.47438953165E+02 -0.35145426715E+02 -0.18305797850E+03  0.19234312774E+03  0.00000000000E+00 0.  1.
         11    1    4    4    0    0  0.16644640788E+02  0.51637990272E+02 -0.18781217626E+03  0.19549153346E+03  0.00000000000E+00 0. -1.
</event>
<event>
 8    1  0.6493926E-009  0.1545704E+03  0.7561462E-02  0.1194967E+00
         -2   -1    0    0    0  501 -0.00000000000E+00  0.00000000000E+00  0.75387780868E+02  0.75387780868E+02  0.00000000000E+00 0.  1.
          2   -1    0    0  501    0  0.00000000000E+00 -0.00000000000E+00 -0.43300820471E+03  0.43300820471E+03  0.00000000000E+00 0. -1.
         25    2    1    2    0    0  0.35715224079E+02  0.13717723797E+03 -0.14480722186E+03  0.23813827684E+03  0.12509010971E+03 0.  0.
         23    2    1    2    0    0 -0.35715224079E+02 -0.13717723797E+03 -0.21281320199E+03  0.27025770874E+03  0.87501990508E+02 0.  0.
          5    1    3    3  502    0  0.62604757645E+02  0.10519492779E+03 -0.15234083764E+03  0.19547514350E+03  0.41800000000E+01 0. -1.
         -5    1    3    3    0  502 -0.26889533567E+02  0.31982310184E+02  0.75336157833E+01  0.42663133346E+02  0.41800000000E+01 0. -1.
        -11    1    4    4    0    0  0.26540829305E+01 -0.41403241883E+02 -0.99491820841E+01  0.42664491310E+02  0.00000000000E+00 0.  1.
         11    1    4    4    0    0 -0.38369307009E+02 -0.95773996090E+02 -0.20286401990E+03  0.22759321743E+03  0.00000000000E+00 0. -1.
</event>
<event>
 8    1  0.6493926E-009  0.1687106E+03  0.7561462E-02  0.1179199E+00
          2   -1    0    0  501    0  0.00000000000E+00  0.00000000000E+00  0.10231471977E+04  0.10231471977E+04  0.00000000000E+00 0. -1.
         -2   -1    0    0    0  501 -0.00000000000E+00 -0.00000000000E+00 -0.36678242399E+02  0.36678242399E+02  0.00000000000E+00 0.  1.
         25    2    1    2    0    0  0.14219876244E+02  0.14458618760E+03  0.33218401232E+03  0.38353845426E+03  0.12509259500E+03 0.  0.
         23    2    1    2    0    0 -0.14219876244E+02 -0.14458618760E+03  0.65428494296E+03  0.67628698582E+03  0.90376601441E+02 0.  0.
          5    1    3    3  502    0  0.64838460082E+02  0.42423049458E+02  0.13122300868E+03  0.15244897979E+03  0.41800000000E+01 0.  1.
         -5    1    3    3    0  502 -0.50618583838E+02  0.10216313814E+03  0.20096100364E+03  0.23108947447E+03  0.41800000000E+01 0.  1.
        -11    1    4    4    0    0 -0.15607382889E+02 -0.10818943075E+03  0.60613566601E+03  0.61591313425E+03  0.00000000000E+00 0. -1.
         11    1    4    4    0    0  0.13875066448E+01 -0.36396756846E+02  0.48149276944E+02  0.60373851574E+02  0.00000000000E+00 0.  1.
</event>
<event>
 8    1  0.6493926E-009  0.1491275E+03  0.7561462E-02  0.1201549E+00
          2   -1    0    0  501    0  0.00000000000E+00  0.00000000000E+00  0.12885158362E+03  0.12885158362E+03  0.00000000000E+00 0. -1.
         -2   -1    0    0    0  501 -0.00000000000E+00 -0.00000000000E+00 -0.18303835432E+03  0.18303835432E+03  0.00000000000E+00 0.  1.
         25    2    1    2    0    0 -0.35981585121E+02  0.92760073403E+02 -0.43887913648E+02  0.16574971343E+03  0.12509081841E+03 0.  0.
         23    2    1    2    0    0  0.35981585121E+02 -0.92760073403E+02 -0.10298857049E+02  0.14614022452E+03  0.10654479377E+03 0.  0.
          5    1    3    3  502    0 -0.81085206357E+02  0.48220409447E+02 -0.38555223923E+02  0.10199998171E+03  0.41800000000E+01 0.  1.
         -5    1    3    3    0  502  0.45103621237E+02  0.44539663956E+02 -0.53326897257E+01  0.63749731715E+02  0.41800000000E+01 0.  1.
        -11    1    4    4    0    0 -0.72787066839E+00 -0.10235174922E+03 -0.25144156313E+02  0.10539752824E+03  0.00000000000E+00 0.  1.
         11    1    4    4    0    0  0.36709455789E+02  0.95916758133E+01  0.14845299264E+02  0.40742696272E+02  0.00000000000E+00 0. -1.
</event>
<event>
 8    1  0.6493926E-009  0.1312971E+03  0.7561462E-02  0.1225544E+00
          2   -1    0    0  501    0  0.00000000000E+00  0.00000000000E+00  0.34112522175E+03  0.34112522175E+03  0.00000000000E+00 0. -1.
         -2   -1    0    0    0  501 -0.00000000000E+00 -0.00000000000E+00 -0.62664224782E+02  0.62664224782E+02  0.00000000000E+00 0.  1.
         25    2    1    2    0    0  0.42248809350E+02  0.85552477740E+02  0.17755179084E+03  0.23722795114E+03  0.12509306149E+03 0.  0.
         23    2    1    2    0    0 -0.42248809350E+02 -0.85552477740E+02  0.10090920613E+03  0.16656149539E+03  0.91955834651E+02 0.  0.
          5    1    3    3  502    0  0.23231745718E+02 -0.16526877335E+02  0.10897551672E+03  0.11272083804E+03  0.41800000000E+01 0.  1.
         -5    1    3    3    0  502  0.19017063632E+02  0.10207935508E+03  0.68576274120E+02  0.12450711311E+03  0.41800000000E+01 0.  1.
        -11    1    4    4    0    0 -0.63107536212E+02 -0.88601553437E+02  0.70740588298E+02  0.12975757100E+03  0.00000000000E+00 0.  1.
         11    1    4    4    0    0  0.20858726863E+02  0.30490756970E+01  0.30168617833E+02  0.36803924395E+02  0.00000000000E+00 0. -1.
</event>
<event>
 8    1  0.6493926E-009  0.1711044E+03  0.7561462E-02  0.1176701E+00
          1   -1    0    0  501    0  0.00000000000E+00  0.00000000000E+00  0.74360623724E+02  0.74360623724E+02  0.00000000000E+00 0. -1.
         -1   -1    0    0    0  501 -0.00000000000E+00 -0.00000000000E+00 -0.63362454253E+03  0.63362454253E+03  0.00000000000E+00 0.  1.
         25    2    1    2    0    0 -0.16602830313E+03  0.54616788634E+01 -0.43335863046E+03  0.48066792006E+03  0.12508684746E+03 0.  0.
         23    2    1    2    0    0  0.16602830313E+03 -0.54616788634E+01 -0.12590528834E+03  0.22731724619E+03  0.90695983405E+02 0.  0.
          5    1    3    3  502    0 -0.16921444860E+03  0.45168227778E+01 -0.44040035946E+03  0.47183035120E+03  0.41800000000E+01 0. -1.
         -5    1    3    3    0  502  0.31861454699E+01  0.94485608555E+00  0.70417290031E+01  0.88375688586E+01  0.41800000000E+01 0. -1.
        -11    1    4    4    0    0  0.11452708655E+03  0.63539871682E+01 -0.13113276015E+03  0.17422005479E+03  0.00000000000E+00 0.  1.
         11    1    4    4    0    0  0.51501216581E+02 -0.11815666032E+02  0.52274718055E+01  0.53097191400E+02  0.00000000000E+00 0. -1.
</event>
<event>
 8    1  0.6493926E-009  0.1362013E+03  0.7561462E-02  0.1218534E+00
          3   -1    0    0  501    0  0.00000000000E+00  0.00000000000E+00  0.85212746198E+02  0.85212746198E+02  0.00000000000E+00 0. -1.
         -3   -1    0    0    0  501 -0.00000000000E+00 -0.00000000000E+00 -0.27781661153E+03  0.27781661153E+03  0.00000000000E+00 0.  1.
         25    2    1    2    0    0  0.82832551769E+02 -0.69351998409E+01 -0.18716621325E+03  0.23999741576E+03  0.12513288759E+03 0.  0.
         23    2    1    2    0    0 -0.82832551769E+02  0.69351998409E+01 -0.54376520774E+01  0.12303194197E+03  0.90542598013E+02 0.  0.
          5    1    3    3  502    0  0.15302324010E+02 -0.60919501042E+02 -0.90513811348E+02  0.11025229781E+03  0.41800000000E+01 0. -1.
         -5    1    3    3    0  502  0.67530227760E+02  0.53984301202E+02 -0.96652401906E+02  0.12974511795E+03  0.41800000000E+01 0. -1.
        -11    1    4    4    0    0 -0.14586836829E+02 -0.38323445889E+02 -0.27792762536E+01  0.41099716422E+02  0.00000000000E+00 0.  1.
         11    1    4    4    0    0 -0.68245714940E+02  0.45258645730E+02 -0.26583758238E+01  0.81932225547E+02  0.00000000000E+00 0. -1.
</event>
<event>
 8    1  0.6493926E-009  0.1021136E+03  0.7561462E-02  0.1275913E+00
          2   -1    0    0  501    0  0.00000000000E+00  0.00000000000E+00  0.37723643401E+03  0.37723643401E+03  0.00000000000E+00 0.  1.
         -2   -1    0    0    0  501 -0.00000000000E+00 -0.00000000000E+00 -0.46647020771E+02  0.46647020771E+02  0.00000000000E+00 0. -1.
         25    2    1    2    0    0  0.17224886364E+02 -0.29356681429E+02  0.29157637372E+03  0.31909770616E+03  0.12509217767E+03 0.  0.
         23    2    1    2    0    0 -0.17224886364E+02  0.29356681429E+02  0.39013039524E+02  0.10478574862E+03  0.91101725592E+02 0.  0.
          5    1    3    3  502    0  0.64182045005E+02 -0.41960763441E+02  0.21490621533E+03  0.22821523690E+03  0.41800000000E+01 0.  1.
         -5    1    3    3    0  502 -0.46957158641E+02  0.12604082012E+02  0.76670158390E+02  0.90882469259E+02  0.41800000000E+01 0.  1.
        -11    1    4    4    0    0 -0.10747906883E+02  0.53020605892E+02  0.53671605984E+02  0.76205927856E+02  0.00000000000E+00 0.  1.
         11    1    4    4    0    0 -0.64769794812E+01 -0.23663924463E+02 -0.14658566460E+02  0.28579820763E+02  0.00000000000E+00 0. -1.
</event>
<event>
 8    1  0.6493926E-009  0.1138353E+03  0.7561462E-02  0.1253628E+00
         -1   -1    0    0    0  501 -0.00000000000E+00  0.00000000000E+00  0.56380083286E+02  0.56380083286E+02  0.00000000000E+00 0.  1.
          1   -1    0    0  501    0  0.00000000000E+00 -0.00000000000E+00 -0.32988741370E+03  0.32988741370E+03  0.00000000000E+00 0. -1.
         25    2    1    2    0    0 -0.75172483279E+02  0.13551125176E+02 -0.14493940363E+03  0.20612949840E+03  0.12508958450E+03 0.  0.
         23    2    1    2    0    0  0.75172483279E+02 -0.13551125176E+02 -0.12856792678E+03  0.18013799858E+03  0.10042634864E+03 0.  0.
          5    1    3    3  502    0  0.24293925367E+02  0.15562201927E+02 -0.85107307316E+02  0.89961675713E+02  0.41800000000E+01 0.  1.
         -5    1    3    3    0  502 -0.99466408646E+02 -0.20110767510E+01 -0.59832096319E+02  0.11616782269E+03  0.41800000000E+01 0.  1.
        -11    1    4    4    0    0  0.71945599929E+02  0.12216172109E+02 -0.31197700158E+02  0.79364354123E+02  0.00000000000E+00 0.  1.
         11    1    4    4    0    0  0.32268833501E+01 -0.25767297284E+02 -0.97370226620E+02  0.10077364446E+03  0.00000000000E+00 0. -1.
</event>
<event>
 8    1  0.6493926E-009  0.2325560E+03  0.7561462E-02  0.1124854E+00
          2   -1    0    0  501    0  0.00000000000E+00  0.00000000000E+00  0.78521526030E+03  0.78521526030E+03  0.00000000000E+00 0. -1.
         -2   -1    0    0    0  501 -0.00000000000E+00 -0.00000000000E+00 -0.79928381243E+02  0.79928381243E+02  0.00000000000E+00 0.  1.
         25    2    1    2    0    0  0.12759300237E+03 -0.16937474781E+03  0.50843577455E+03  0.56490888673E+03  0.12508930418E+03 0.  0.
         23    2    1    2    0    0 -0.12759300237E+03  0.16937474781E+03  0.19685110451E+03  0.30023475481E+03  0.80142193634E+02 0.  0.
          5    1    3    3  502    0  0.58073637070E+02 -0.16653995574E+03  0.37063683015E+03  0.41048414883E+03  0.41800000000E+01 0. -1.
         -5    1    3    3    0  502  0.69519365299E+02 -0.28347920703E+01  0.13779894440E+03  0.15442473790E+03  0.41800000000E+01 0. -1.
        -11    1    4    4    0    0 -0.44846485278E+02  0.21959977895E+02  0.81493619164E+02  0.95575403925E+02  0.00000000000E+00 0. -1.
         11    1    4    4    0    0 -0.82746517090E+02  0.14741476992E+03  0.11535748534E+03  0.20465935089E+03  0.00000000000E+00 0.  1.
</event>
<event>
 8    1  0.6493926E-009  0.1480739E+03  0.7561462E-02  0.1202860E+00
         -1   -1    0    0    0  501 -0.00000000000E+00  0.00000000000E+00  0.32282825831E+02  0.32282825831E+02  0.00000000000E+00 0.  1.
          1   -1    0    0  501    0  0.00000000000E+00 -0.00000000000E+00 -0.95792606643E+03  0.95792606643E+03  0.00000000000E+00 0. -1.
         25    2    1    2    0    0 -0.11686355175E+03  0.38465880031E+02 -0.66888347464E+03  0.69151180410E+03  0.12508700537E+03 0.  0.
         23    2    1    2    0    0  0.11686355175E+03 -0.38465880031E+02 -0.25675976597E+03  0.29869708816E+03  0.90319761982E+02 0.  0.
          5    1    3    3  502    0 -0.74506806745E+02  0.66858114430E+02 -0.58297325463E+03  0.59152054887E+03  0.41800000000E+01 0.  1.
         -5    1    3    3    0  502 -0.42356745007E+02 -0.28392234399E+02 -0.85910220004E+02  0.99991255232E+02  0.41800000000E+01 0.  1.
        -11    1    4    4    0    0  0.42728460812E+02  0.22967127001E+02 -0.13512027738E+03  0.14356427009E+03  0.00000000000E+00 0. -1.
         11    1    4    4    0    0  0.74135090940E+02 -0.61433007031E+02 -0.12163948859E+03  0.15513281808E+03  0.00000000000E+00 0.  1.
</event>
<event>
 8    1  0.6493926E-009  0.1408646E+03  0.7561462E-02  0.1212170E+00
          1   -1    0    0  501    0  0.00000000000E+00  0.00000000000E+00  0.32540174090E+02  0.32540174090E+02  0.00000000000E+00 0. -1.
         -1   -1    0    0    0  501 -0.00000000000E+00 -0.00000000000E+00 -0.79371577010E+03  0.79371577010E+03  0.00000000000E+00 0.  1.
         25    2    1    2    0    0  0.10363175962E+03  0.46845109345E+02 -0.46614592764E+03  0.49584478455E+03  0.12504406683E+03 0.  0.
         23    2    1    2    0    0 -0.10363175962E+03 -0.46845109345E+02 -0.29502966837E+03  0.33041115963E+03  0.95890684216E+02 0.  0.
          5    1    3    3  502    0  0.10373222924E+03 -0.15938744960E+02 -0.31775675897E+03  0.33466587702E+03  0.41800000000E+01 0.  1.
         -5    1    3    3    0  502 -0.10046962103E+00  0.62783854305E+02 -0.14838916866E+03  0.16117890753E+03  0.41800000000E+01 0.  1.
        -11    1    4    4    0    0 -0.62399338295E+02 -0.29933025351E+02 -0.27116573559E+03  0.27985803470E+03  0.00000000000E+00 0.  1.
         11    1    4    4    0    0 -0.41232421321E+02 -0.16912083995E+02 -0.23863932784E+02  0.50553124937E+02  0.00000000000E+00 0. -1.
</event>
<event>
 8    1  0.6493926E-009  0.1365312E+03  0.7561462E-02  0.1218074E+00
         -2   -1    0    0    0  501 -0.00000000000E+00  0.00000000000E+00  0.21138790176E+02  0.21138790176E+02  0.00000000000E+00 0.  1.
          2   -1    0    0  501    0  0.00000000000E+00 -0.00000000000E+00 -0.95712160899E+03  0.95712160899E+03  0.00000000000E+00 0. -1.
         25    2    1    2    0    0 -0.49817457585E+02  0.63106411801E+02 -0.39062161523E+03  0.41796617809E+03  0.12508509684E+03 0.  0.
         23    2    1    2    0    0  0.49817457585E+02 -0.63106411801E+02 -0.54536120359E+03  0.56029422108E+03  0.10023259702E+03 0.  0.
          5    1    3    3  502    0  0.23473565241E+02  0.70341459611E+02 -0.17634014299E+03  0.19134327173E+03  0.41800000000E+01 0. -1.
         -5    1    3    3    0  502 -0.73291022827E+02 -0.72350478099E+01 -0.21428147224E+03  0.22662290636E+03  0.41800000000E+01 0. -1.
        -11    1    4    4    0    0  0.54755529657E+02  0.65920711708E+01 -0.17804102020E+03  0.18638730726E+03  0.00000000000E+00 0.  1.
         11    1    4    4    0    0 -0.49380720716E+01 -0.69698482972E+02 -0.36732018338E+03  0.37390691382E+03  0.00000000000E+00 0. -1.
</event>
<event>
 8    1  0.6493926E-009  0.9868475E+02  0.7561462E-02  0.1283086E+00
          2   -1    0    0  501    0  0.00000000000E+00  0.00000000000E+00  0.42702202271E+03  0.42702202271E+03  0.00000000000E+00 0. -1.
         -2   -1    0    0    0  501 -0.00000000000E+00 -0.00000000000E+00 -0.47915496516E+02  0.47915496516E+02  0.00000000000E+00 0.  1.
         25    2    1    2    0    0  0.20068617229E+02 -0.72645610334E+02  0.29723828664E+03  0.33117742307E+03  0.12509097653E+03 0.  0.
         23    2    1    2    0    0 -0.20068617229E+02  0.72645610334E+02  0.81868239557E+02  0.14376009616E+03  0.91018803006E+02 0.  0.
          5    1    3    3  502    0 -0.24271499938E+02 -0.72398384999E+02  0.85090176204E+02  0.11440473044E+03  0.41800000000E+01 0.  1.
         -5    1    3    3    0  502  0.44340117167E+02 -0.24722533567E+00  0.21214811044E+03  0.21677269264E+03  0.41800000000E+01 0.  1.
        -11    1    4    4    0    0 -0.21525371889E+01  0.30340549190E+02 -0.16923755655E+02  0.34807985391E+02  0.00000000000E+00 0.  1.
         11    1    4    4    0    0 -0.17916080040E+02  0.42305061144E+02  0.98791995212E+02  0.10895211077E+03  0.00000000000E+00 0. -1.
</event>
<event>
 8    1  0.6493926E-009  0.1006859E+03  0.7561462E-02  0.1278860E+00
         -2   -1    0    0    0  501 -0.00000000000E+00  0.00000000000E+00  0.10436450031E+02  0.10436450031E+02  0.00000000000E+00 0.  1.
          2   -1    0    0  501    0  0.00000000000E+00 -0.00000000000E+00 -0.13851662927E+04  0.13851662927E+04  0.00000000000E+00 0. -1.
         25    2    1    2    0    0 -0.19075446739E+02 -0.10048421181E+02 -0.10652984131E+04  0.10728317916E+04  0.12506998329E+03 0.  0.
         23    2    1    2    0    0  0.19075446739E+02  0.10048421181E+02 -0.30943142962E+03  0.32277095116E+03  0.89266084496E+02 0.  0.
          5    1    3    3  502    0  0.52686444307E+02 -0.59824972968E+01 -0.36757244517E+03  0.37140089733E+03  0.41800000000E+01 0. -1.
         -5    1    3    3    0  502 -0.71761891046E+02 -0.40659238844E+01 -0.69772596789E+03  0.70143089425E+03  0.41800000000E+01 0. -1.
        -11    1    4    4    0    0  0.11614535670E+02 -0.31706933851E+02 -0.52914814040E+02  0.62771049362E+02  0.00000000000E+00 0.  1.
         11    1    4    4    0    0  0.74609110691E+01  0.41755355032E+02 -0.25651661558E+03  0.25999990180E+03  0.00000000000E+00 0. -1.
</event>
<event>
 8    1  0.6493926E-009  0.9807496E+02  0.7561462E-02  0.1284397E+00
         -2   -1    0    0    0  501 -0.00000000000E+00  0.00000000000E+00  0.23688103956E+02  0.23688103956E+02  0.00000000000E+00 0.  1.
          2   -1    0    0  501    0  0.00000000000E+00 -0.00000000000E+00 -0.69767658097E+03  0.69767658097E+03  0.00000000000E+00 0. -1.
         25    2    1    2    0    0 -0.32998214249E+02 -0.52179856630E+02 -0.45761967392E+03  0.47840803102E+03  0.12508740388E+03 0.  0.
         23    2    1    2    0    0  0.32998214249E+02  0.52179856630E+02 -0.21636880309E+03  0.24295665390E+03  0.91656189871E+02 0.  0.
          5    1    3    3  502    0 -0.12480563949E+02  0.32596453260E+02 -0.25985672835E+03  0.26222373064E+03  0.41800000000E+01 0. -1.
         -5    1    3    3    0  502 -0.20517650300E+02 -0.84776309891E+02 -0.19776294557E+03  0.21618430039E+03  0.41800000000E+01 0. -1.
        -11    1    4    4    0    0  0.28486954956E+02  0.84544860013E+01 -0.90990732359E+01  0.31076970090E+02  0.00000000000E+00 0.  1.
         11    1    4    4    0    0  0.45112592926E+01  0.43725370629E+02 -0.20726972986E+03  0.21187968381E+03  0.00000000000E+00 0. -1.
</event>
<event>
 8    1  0.6493926E-009  0.1483632E+03  0.7561462E-02  0.1202499E+00
         -3   -1    0    0    0  501 -0.00000000000E+00  0.00000000000E+00  0.13917676881E+03  0.13917676881E+03  0.00000000000E+00 0.  1.
          3   -1    0    0  501    0  0.00000000000E+00 -0.00000000000E+00 -0.22235884255E+03  0.22235884255E+03  0.00000000000E+00 0. -1.
         25    2    1    2    0    0  0.90911696210E+02 -0.90124490375E+02  0.76804453930E+01  0.17915074634E+03  0.12509452586E+03 0.  0.
         23    2    1    2    0    0 -0.90911696210E+02  0.90124490375E+02 -0.90862519129E+02  0.18238486502E+03  0.92848701300E+02 0.  0.
          5    1    3    3  502    0 -0.24955562397E+02 -0.14103651686E+02 -0.23196406566E+02  0.37111167632E+02  0.41800000000E+01 0.  1.
         -5    1    3    3    0  502  0.11586725861E+03 -0.76020838690E+02  0.30876851959E+02  0.14203957871E+03  0.41800000000E+01 0.  1.
        -11    1    4    4    0    0 -0.87026633605E+02  0.79765567238E+02 -0.10930117887E+03  0.16088172169E+03  0.00000000000E+00 0. -1.
         11    1    4    4    0    0 -0.38850626049E+01  0.10358923138E+02  0.18438659738E+02  0.21503143327E+02  0.00000000000E+00 0.  1.
</event>
<event>
 8    1  0.6493926E-009  0.1083994E+03  0.7561462E-02  0.1263563E+00
         -1   -1    0    0    0  501 -0.00000000000E+00  0.00000000000E+00  0.11196774307E+03  0.11196774307E+03  0.00000000000E+00 0. -1.
          1   -1    0    0  501    0  0.00000000000E+00 -0.00000000000E+00 -0.12271321916E+03  0.12271321916E+03  0.00000000000E+00 0.  1.
         25    2    1    2    0    0 -0.33803105207E+02 -0.10140223318E+02 -0.35758085245E+02  0.13480203694E+03  0.12508986550E+03 0.  0.
         23    2    1    2    0    0  0.33803105207E+02  0.10140223318E+02  0.25012609146E+02  0.99878925293E+02  0.90026079837E+02 0.  0.
          5    1    3    3  502    0 -0.55621668173E+02  0.37866497827E+02  0.56083707700E+01  0.67650335186E+02  0.41800000000E+01 0. -1.
         -5    1    3    3    0  502  0.21818562966E+02 -0.48006721145E+02 -0.41366456015E+02  0.67151701752E+02  0.41800000000E+01 0. -1.
        -11    1    4    4    0    0  0.16899164601E+02 -0.40078801004E+02  0.79867251042E+01  0.44223069003E+02  0.00000000000E+00 0.  1.
         11    1    4    4    0    0  0.16903940606E+02  0.50219024323E+02  0.17025884042E+02  0.55655856290E+02  0.00000000000E+00 0. -1.
</event>
<event>
 8    1  0.6493926E-009  0.2265174E+03  0.7561462E-02  0.1129115E+00
          1   -1    0    0  501    0  0.00000000000E+00  0.00000000000E+00  0.30004497156E+03  0.30004497156E+03  0.00000000000E+00 0. -1.
         -1   -1    0    0    0  501 -0.00000000000E+00 -0.00000000000E+00 -0.30538938722E+03  0.30538938722E+03  0.00000000000E+00 0.  1.
         25    2    1    2    0    0 -0.53453110068E+02 -0.21727085158E+03  0.16922016534E+03  0.30715762202E+03  0.12508590044E+03 0.  0.
         23    2    1    2    0    0  0.53453110068E+02  0.21727085158E+03 -0.17456458099E+03  0.29827673676E+03  0.91827887009E+02 0.  0.
          5    1    3    3  502    0 -0.38483118403E+02 -0.20714973812E+03  0.18679517986E+03  0.28160588776E+03  0.41800000000E+01 0. -1.
         -5    1    3    3    0  502 -0.14969991665E+02 -0.10121113460E+02 -0.17575014524E+02  0.25551734259E+02  0.41800000000E+01 0. -1.
        -11    1    4    4    0    0  0.22258100476E+02  0.92596326364E+02 -0.13225175991E+03  0.16297248446E+03  0.00000000000E+00 0.  1.
         11    1    4    4    0    0  0.31195009592E+02  0.12467452521E+03 -0.42312821081E+02  0.13530425229E+03  0.00000000000E+00 0. -1.
</event>
<event>
 8    1  0.6493926E-009  0.1250766E+03  0.7561462E-02  0.1234950E+00
         -1   -1    0    0    0  501 -0.00000000000E+00  0.00000000000E+00  0.34067794179E+03  0.34067794179E+03  0.00000000000E+00 0.  1.
          1   -1    0    0  501    0  0.00000000000E+00 -0.00000000000E+00 -0.54372905480E+02  0.54372905480E+02  0.00000000000E+00 0. -1.
         25    2    1    2    0    0  0.81171233198E+02 -0.67863880224E+01  0.18875471541E+03  0.24064551699E+03  0.12508836115E+03 0.  0.
         23    2    1    2    0    0 -0.81171233198E+02  0.67863880224E+01  0.97550320904E+02  0.15440533029E+03  0.87693310754E+02 0.  0.
          5    1    3    3  502    0  0.39341419009E+01  0.50168800557E+02  0.87862910714E+02  0.10133977255E+03  0.41800000000E+01 0.  1.
         -5    1    3    3    0  502  0.77237091297E+02 -0.56955188580E+02  0.10089180470E+03  0.13930574444E+03  0.41800000000E+01 0.  1.
        -11    1    4    4    0    0 -0.42641106948E+02  0.35551191403E+02  0.12813203897E+02  0.56976568921E+02  0.00000000000E+00 0.  1.
         11    1    4    4    0    0 -0.38530126249E+02 -0.28764803380E+02  0.84737117007E+02  0.97428761365E+02  0.00000000000E+00 0. -1.
</event>
<event>
 8    1  0.6493926E-009  0.1010696E+03  0.7561462E-02  0.1278063E+00
         -1   -1    0    0    0  501 -0.00000000000E+00  0.00000000000E+00  0.35215382331E+02  0.35215382331E+02  0.00000000000E+00 0.  1.
          1   -1    0    0  501    0  0.00000000000E+00 -0.00000000000E+00 -0.46670172735E+03  0.46670172735E+03  0.00000000000E+00 0. -1.
         25    2    1    2    0    0 -0.20177527067E+02 -0.58365654800E+01 -0.37164026620E+03  0.39269090393E+03  0.12509380669E+03 0.  0.
         23    2    1    2    0    0  0.20177527067E+02  0.58365654800E+01 -0.59846078820E+02  0.10922620575E+03  0.88924759085E+02 0.  0.
          5    1    3    3  502    0 -0.50807768184E+02  0.34914941972E+02 -0.28876295571E+03  0.29529984672E+03  0.41800000000E+01 0. -1.
         -5    1    3    3    0  502  0.30630241117E+02 -0.40751507453E+02 -0.82877310493E+02  0.97391057213E+02  0.41800000000E+01 0. -1.
        -11    1    4    4    0    0 -0.33888202144E+02  0.89298360181E+01 -0.35390827836E+02  0.49806253731E+02  0.00000000000E+00 0.  1.
         11    1    4    4    0    0  0.54065729211E+02 -0.30932705381E+01 -0.24455250984E+02  0.59419952023E+02  0.00000000000E+00 0. -1.
</event>
<event>
 8    1  0.6493926E-009  0.1319990E+03  0.7561462E-02  0.1224519E+00
         -2   -1    0    0    0  501 -0.00000000000E+00  0.00000000000E+00  0.30411522621E+02  0.30411522621E+02  0.00000000000E+00 0.  1.
          2   -1    0    0  501    0  0.00000000000E+00 -0.00000000000E+00 -0.12642116268E+04  0.12642116268E+04  0.00000000000E+00 0. -1.
         25    2    1    2    0    0 -0.10441061962E+03  0.48158541023E+02 -0.10276317525E+04  0.10415832981E+04  0.12509166837E+03 0.  0.
         23    2    1    2    0    0  0.10441061962E+03 -0.48158541023E+02 -0.20616835171E+03  0.25303985139E+03  0.91120549724E+02 0.  0.
          5    1    3    3  502    0 -0.36931958382E+00  0.35759639635E+02 -0.74968298100E+02  0.83166137002E+02  0.41800000000E+01 0.  1.
         -5    1    3    3    0  502 -0.10404130003E+03  0.12398901388E+02 -0.95266345440E+03  0.95841716106E+03  0.41800000000E+01 0.  1.
        -11    1    4    4    0    0  0.24082995706E+02 -0.33845567305E+02 -0.13290191564E+02  0.43613556381E+02  0.00000000000E+00 0.  1.
         11    1    4    4    0    0  0.80327623911E+02 -0.14312973718E+02 -0.19287816015E+03  0.20942629501E+03  0.00000000000E+00 0. -1.
</event>
<event>
 8    1  0.6493926E-009  0.1516105E+03  0.7561462E-02  0.1198508E+00
          2   -1    0    0  501    0  0.00000000000E+00  0.00000000000E+00  0.19023828406E+03  0.19023828406E+03  0.00000000000E+00 0.  1.
         -2   -1    0    0    0  501 -0.00000000000E+00 -0.00000000000E+00 -0.13604885745E+03  0.13604885745E+03  0.00000000000E+00 0. -1.
         25    2    1    2    0    0  0.44157178202E+02 -0.10551152614E+03 -0.34571867642E+01  0.16951785195E+03  0.12506722774E+03 0.  0.
         23    2    1    2    0    0 -0.44157178202E+02  0.10551152614E+03  0.57646613370E+02  0.15676928956E+03  0.90393249651E+02 0.  0.
          5    1    3    3  502    0 -0.42213371487E+02 -0.25697778687E+02 -0.13538232385E+02  0.51411095085E+02  0.41800000000E+01 0. -1.
         -5    1    3    3    0  502  0.86370549689E+02 -0.79813747448E+02  0.10081045620E+02  0.11810675686E+03  0.41800000000E+01 0. -1.
        -11    1    4    4    0    0  0.11425761032E+02  0.67856950686E+02  0.82894300707E+00  0.68817155695E+02  0.00000000000E+00 0. -1.
         11    1    4    4    0    0 -0.55582939233E+02  0.37654575449E+02  0.56817670362E+02  0.87952133866E+02  0.00000000000E+00 0.  1.
</event>
<event>
 8    1  0.6493926E-009  0.2502301E+03  0.7561462E-02  0.1113159E+00
          2   -1    0    0  501    0  0.00000000000E+00  0.00000000000E+00  0.21946077171E+04  0.21946077171E+04  0.00000000000E+00 0. -1.
         -2   -1    0    0    0  501 -0.00000000000E+00 -0.00000000000E+00 -0.37608683585E+02  0.37608683585E+02  0.00000000000E+00 0.  1.
         25    2    1    2    0    0  0.19648926980E+03  0.14598187054E+03  0.15041126258E+04  0.15290263534E+04  0.12509220101E+03 0.  0.
         23    2    1    2    0    0 -0.19648926980E+03 -0.14598187054E+03  0.65288640773E+03  0.70319004725E+03  0.91086999575E+02 0.  0.
          5    1    3    3  502    0  0.13433513589E+03  0.54567571527E+02  0.56106091653E+03  0.57950873424E+03  0.41800000000E+01 0.  1.
         -5    1    3    3    0  502  0.62154133910E+02  0.91414299010E+02  0.94305170924E+03  0.94951761918E+03  0.41800000000E+01 0.  1.
        -11    1    4    4    0    0 -0.94867976050E+02 -0.70667056498E+02  0.19428834673E+03  0.22746808002E+03  0.00000000000E+00 0.  1.
         11    1    4    4    0    0 -0.10162129375E+03 -0.75314814038E+02  0.45859806100E+03  0.47572196723E+03  0.00000000000E+00 0. -1.
</event>
<event>
 8    1  0.6493926E-009  0.1419268E+03  0.7561462E-02  0.1210760E+00
          1   -1    0    0  501    0  0.00000000000E+00  0.00000000000E+00  0.25570307398E+03  0.25570307398E+03  0.00000000000E+00 0. -1.
         -1   -1    0    0    0  501 -0.00000000000E+00 -0.00000000000E+00 -0.36033523941E+03  0.36033523941E+03  0.00000000000E+00 0.  1.
         25    2    1    2    0    0 -0.82989083186E+02  0.75624410065E+02  0.21046853766E+03  0.26935198740E+03  0.12508896213E+03 0.  0.
         23    2    1    2    0    0  0.82989083186E+02 -0.75624410065E+02 -0.31510070309E+03  0.34668632599E+03  0.91086311897E+02 0.  0.
          5    1    3    3  502    0 -0.10043690837E+03  0.88100465094E+02  0.13185041774E+03  0.18775321454E+03  0.41800000000E+01 0. -1.
         -5    1    3    3    0  502  0.17447825181E+02 -0.12476055029E+02  0.78618119919E+02  0.81598772860E+02  0.41800000000E+01 0. -1.
        -11    1    4    4    0    0  0.24000246612E+02  0.86106793878E+01 -0.15019156274E+03  0.15234060902E+03  0.00000000000E+00 0.  1.
         11    1    4    4    0    0  0.58988836574E+02 -0.84235089452E+02 -0.16490914035E+03  0.19434571698E+03  0.00000000000E+00 0. -1.
</event>
<event>
 8    1  0.6493926E-009  0.1093424E+03  0.7561462E-02  0.1261792E+00
          1   -1    0    0  501    0  0.00000000000E+00  0.00000000000E+00  0.61657960317E+03  0.61657960317E+03  0.00000000000E+00 0. -1.
         -1   -1    0    0    0  501 -0.00000000000E+00 -0.00000000000E+00 -0.34620726405E+02  0.34620726405E+02  0.00000000000E+00 0.  1.
         25    2    1    2    0    0 -0.89158714231E+02 -0.16673133876E+02  0.39671075991E+03  0.42573686899E+03  0.12508071343E+03 0.  0.
         23    2    1    2    0    0  0.89158714231E+02  0.16673133876E+02  0.18524811686E+03  0.22546346059E+03  0.91047446671E+02 0.  0.
          5    1    3    3  502    0 -0.10320476410E+03 -0.67037664328E+01  0.39452654792E+03  0.40787845399E+03  0.41800000000E+01 0.  1.
         -5    1    3    3    0  502  0.14046049874E+02 -0.99693674428E+01  0.21842119946E+01  0.17858415000E+02  0.41800000000E+01 0.  1.
        -11    1    4    4    0    0  0.63384499718E+02 -0.52710970646E+01  0.18037949875E+03  0.19126458857E+03  0.00000000000E+00 0. -1.
         11    1    4    4    0    0  0.25774214513E+02  0.21944230940E+02  0.48686181015E+01  0.34198872021E+02  0.00000000000E+00 0.  1.
</event>
<event>
 8    1  0.6493926E-009  0.1486026E+03  0.7561462E-02  0.1202201E+00
          2   -1    0    0  501    0  0.00000000000E+00  0.00000000000E+00  0.56848631723E+03  0.56848631723E+03  0.00000000000E+00 0. -1.
         -2   -1    0    0    0  501 -0.00000000000E+00 -0.00000000000E+00 -0.50828650367E+02  0.50828650367E+02  0.00000000000E+00 0.  1.
         25    2    1    2    0    0 -0.93566195813E+02  0.91251449502E+02  0.26112405960E+03  0.31767042836E+03  0.12508903437E+03 0.  0.
         23    2    1    2    0    0  0.93566195813E+02 -0.91251449502E+02  0.25653360726E+03  0.30164453923E+03  0.89991534921E+02 0.  0.
          5    1    3    3  502    0  0.82392196507E+01  0.18499518174E+02 -0.69391061982E+01  0.21811476519E+02  0.41800000000E+01 0.  1.
         -5    1    3    3    0  502 -0.10180541546E+03  0.72751931329E+02  0.26806316580E+03  0.29585895185E+03  0.41800000000E+01 0.  1.
        -11    1    4    4    0    0 -0.12972142262E+02 -0.17370729336E+02  0.11780941406E+02  0.24674061136E+02  0.00000000000E+00 0.  1.
         11    1    4    4    0    0  0.10653833808E+03 -0.73880720166E+02  0.24475266586E+03  0.27697047810E+03  0.00000000000E+00 0. -1.
</event>
<event>
 8    1  0.6493926E-009  0.1437424E+03  0.7561462E-02  0.1208380E+00
          1   -1    0    0  501    0  0.00000000000E+00  0.00000000000E+00  0.95134629323E+03  0.95134629323E+03  0.00000000000E+00 0. -1.
         -1   -1    0    0    0  501 -0.00000000000E+00 -0.00000000000E+00 -0.22840837887E+02  0.22840837887E+02  0.00000000000E+00 0.  1.
         25    2    1    2    0    0  0.44807641798E+02 -0.88297352712E+02  0.55149035820E+03  0.57410326527E+03  0.12509515078E+03 0.  0.
         23    2    1    2    0    0 -0.44807641798E+02  0.88297352712E+02  0.37701509714E+03  0.40008386584E+03  0.90125295985E+02 0.  0.
          5    1    3    3  502    0  0.68943761143E+02 -0.10625092988E+03  0.47961065389E+03  0.49607091633E+03  0.41800000000E+01 0.  1.
         -5    1    3    3    0  502 -0.24136119345E+02  0.17953577166E+02  0.71879704312E+02  0.78032348947E+02  0.41800000000E+01 0.  1.
        -11    1    4    4    0    0 -0.57626466172E+02  0.20155784651E+02  0.22252474746E+03  0.23074732608E+03  0.00000000000E+00 0.  1.
         11    1    4    4    0    0  0.12818824374E+02  0.68141568061E+02  0.15449034967E+03  0.16933653976E+03  0.00000000000E+00 0. -1.
</event>
<event>
 8    1  0.6493926E-009  0.1077109E+03  0.7561462E-02  0.1264869E+00
          1   -1    0    0  501    0  0.00000000000E+00  0.00000000000E+00  0.26096006739E+03  0.26096006739E+03  0.00000000000E+00 0. -1.
         -1   -1    0    0    0  501 -0.00000000000E+00 -0.00000000000E+00 -0.88036679811E+02  0.88036679811E+02  0.00000000000E+00 0.  1.
         25    2    1    2    0    0  0.46298178626E+02 -0.67348097892E+02  0.17287201860E+03  0.22849786247E+03  0.12508897116E+03 0.  0.
         23    2    1    2    0    0 -0.46298178626E+02  0.67348097892E+02  0.51368975837E-01  0.12049888472E+03  0.88547676123E+02 0.  0.
          5    1    3    3  502    0 -0.74860894915E+01  0.21946198996E+02  0.96161022452E+02  0.99005514115E+02  0.41800000000E+01 0.  1.
         -5    1    3    3    0  502  0.53784268118E+02 -0.89294296888E+02  0.76710996147E+02  0.12949234836E+03  0.41800000000E+01 0.  1.
        -11    1    4    4    0    0 -0.44069796132E+02  0.38256743469E+02  0.40202894241E+02  0.70866057160E+02  0.00000000000E+00 0. -1.
         11    1    4    4    0    0 -0.22283824938E+01  0.29091354424E+02 -0.40151525265E+02  0.49632827563E+02  0.00000000000E+00 0.  1.
</event>
<event>
 8    1  0.6493926E-009  0.8071922E+02  0.7561462E-02  0.1327023E+00
         -2   -1    0    0    0  501 -0.00000000000E+00  0.00000000000E+00  0.14261464601E+03  0.14261464601E+03  0.00000000000E+00 0.  1.
          2   -1    0    0  501    0  0.00000000000E+00 -0.00000000000E+00 -0.12530770449E+03  0.12530770449E+03  0.00000000000E+00 0. -1.
         25    2    1    2    0    0 -0.62693796322E+02  0.27633279130E+02  0.47839193181E+02  0.15043056787E+03  0.12508659853E+03 0.  0.
         23    2    1    2    0    0  0.62693796322E+02 -0.27633279130E+02 -0.30532251661E+02  0.11749178263E+03  0.90432241935E+02 0.  0.
          5    1    3    3  502    0 -0.41964176838E+02  0.37548219489E+02 -0.33601584769E+02  0.65706923711E+02  0.41800000000E+01 0.  1.
         -5    1    3    3    0  502 -0.20729619484E+02 -0.99149403585E+01  0.81440777951E+02  0.84723644158E+02  0.41800000000E+01 0.  1.
        -11    1    4    4    0    0  0.11147070538E+02 -0.27927222924E+02 -0.53255264092E+02  0.61158074817E+02  0.00000000000E+00 0. -1.
         11    1    4    4    0    0  0.51546725785E+02  0.29394379443E+00  0.22723012430E+02  0.56333707813E+02  0.00000000000E+00 0.  1.
</event>
<event>
 8    1  0.6493926E-009  0.1028656E+03  0.7561462E-02  0.1274383E+00
         -2   -1    0    0    0  501 -0.00000000000E+00  0.00000000000E+00  0.32634397654E+03  0.32634397654E+03  0.00000000000E+00 0.  1.
          2   -1    0    0  501    0  0.00000000000E+00 -0.00000000000E+00 -0.54658932170E+02  0.54658932170E+02  0.00000000000E+00 0. -1.
         25    2    1    2    0    0 -0.88833191432E+01 -0.36563923187E+02  0.57954586818E+02  0.14290572320E+03  0.12508987870E+03 0.  0.
         23    2    1    2    0    0  0.88833191432E+01  0.36563923187E+02  0.21373045756E+03  0.23809718551E+03  0.97947574882E+02 0.  0.
          5    1    3    3  502    0 -0.30589609423E+01  0.38556467600E+02 -0.11269642931E+02  0.40502292375E+02  0.41800000000E+01 0.  1.
         -5    1    3    3    0  502 -0.58243582009E+01 -0.75120390787E+02  0.69224229749E+02  0.10240343083E+03  0.41800000000E+01 0.  1.
        -11    1    4    4    0    0 -0.37263225607E+02  0.12372139877E+02  0.37382716589E+02  0.54213331639E+02  0.00000000000E+00 0. -1.
         11    1    4    4    0    0  0.46146544751E+02  0.24191783310E+02  0.17634774097E+03  0.18388385388E+03  0.00000000000E+00 0.  1.
</event>
<event>
 8    1  0.6493926E-009  0.1023474E+03  0.7561462E-02  0.1275436E+00
          2   -1    0    0  501    0  0.00000000000E+00  0.00000000000E+00  0.14034089781E+03  0.14034089781E+03  0.00000000000E+00 0.  1.
         -2   -1    0    0    0  501 -0.00000000000E+00 -0.00000000000E+00 -0.10372958870E+03  0.10372958870E+03  0.00000000000E+00 0. -1.
         25    2    1    2    0    0  0.28147121099E+02  0.49803561823E+02  0.18234303908E+02  0.13875285008E+03  0.12508880194E+03 0.  0.
         23    2    1    2    0    0 -0.28147121099E+02 -0.49803561823E+02  0.18377005211E+02  0.10531763643E+03  0.86495289041E+02 0.  0.
          5    1    3    3  502    0 -0.31692448250E+02 -0.25360842414E+02  0.11280247789E+02  0.42335564177E+02  0.41800000000E+01 0.  1.
         -5    1    3    3    0  502  0.59839569349E+02  0.75164404237E+02  0.69540561189E+01  0.96417285902E+02  0.41800000000E+01 0.  1.
        -11    1    4    4    0    0 -0.98797448791E+01 -0.48404711790E+02 -0.27058456171E+02  0.56327484701E+02  0.00000000000E+00 0. -1.
         11    1    4    4    0    0 -0.18267376220E+02 -0.13988500328E+01  0.45435461383E+02  0.48990151729E+02  0.00000000000E+00 0.  1.
</event>
<event>
 8    1  0.6493926E-009  0.9937395E+02  0.7561462E-02  0.1281618E+00
         -1   -1    0    0    0  501 -0.00000000000E+00  0.00000000000E+00  0.15865620451E+03  0.15865620451E+03  0.00000000000E+00 0.  1.
          1   -1    0    0  501    0  0.00000000000E+00 -0.00000000000E+00 -0.18540229483E+03  0.18540229483E+03  0.00000000000E+00 0. -1.
         25    2    1    2    0    0 -0.17550360639E+02  0.90524467439E+02 -0.10962490498E+03  0.19017903869E+03  0.12509097729E+03 0.  0.
         23    2    1    2    0    0  0.17550360639E+02 -0.90524467439E+02  0.82878814665E+02  0.15387946065E+03  0.91144369686E+02 0.  0.
          5    1    3    3  502    0  0.18745296438E+02  0.25205669564E+02  0.22129805695E+02  0.38651165789E+02  0.41800000000E+01 0.  1.
         -5    1    3    3    0  502 -0.36295657077E+02  0.65318797875E+02 -0.13175471068E+03  0.15152787290E+03  0.41800000000E+01 0.  1.
        -11    1    4    4    0    0  0.15623964643E+02 -0.78646980137E+02  0.10294137877E+03  0.13048518390E+03  0.00000000000E+00 0.  1.
         11    1    4    4    0    0  0.19263959958E+01 -0.11877487302E+02 -0.20062564101E+02  0.23394276746E+02  0.00000000000E+00 0. -1.
</event>
<event>
 8    1  0.6493926E-009  0.1297771E+03  0.7561462E-02  0.1227787E+00
         -2   -1    0    0    0  501 -0.00000000000E+00  0.00000000000E+00  0.46770141607E+02  0.46770141607E+02  0.00000000000E+00 0.  1.
          2   -1    0    0  501    0  0.00000000000E+00 -0.00000000000E+00 -0.49300984537E+03  0.49300984537E+03  0.00000000000E+00 0. -1.
         25    2    1    2    0    0  0.28387235715E+02  0.96702146156E+02 -0.29981866295E+03  0.34014670634E+03  0.12510559925E+03 0.  0.
         23    2    1    2    0    0 -0.28387235715E+02 -0.96702146156E+02 -0.14642104082E+03  0.19963328063E+03  0.90869055896E+02 0.  0.
          5    1    3    3  502    0 -0.36255423266E+02  0.47787789853E+02 -0.21286268939E+03  0.22119250781E+03  0.41800000000E+01 0. -1.
         -5    1    3    3    0  502  0.64642658981E+02  0.48914356302E+02 -0.86955973553E+02  0.11895419854E+03  0.41800000000E+01 0. -1.
        -11    1    4    4    0    0 -0.47441652539E+02 -0.56590270841E+02 -0.39255349148E+02  0.83631044393E+02  0.00000000000E+00 0.  1.
         11    1    4    4    0    0  0.19054416824E+02 -0.40111875315E+02 -0.10716569167E+03  0.11600223624E+03  0.00000000000E+00 0. -1.
</event>
<event>
 8    1  0.6493926E-009  0.7269936E+02  0.7561462E-02  0.1351147E+00
         -3   -1    0    0    0  501 -0.00000000000E+00  0.00000000000E+00  0.12605326316E+03  0.12605326316E+03  0.00000000000E+00 0.  1.
          3   -1    0    0  501    0  0.00000000000E+00 -0.00000000000E+00 -0.11862642042E+03  0.11862642042E+03  0.00000000000E+00 0. -1.
         25    2    1    2    0    0  0.47196553538E+02  0.17139150948E+02  0.35629761127E+02  0.13942219126E+03  0.12509117626E+03 0.  0.
         23    2    1    2    0    0 -0.47196553538E+02 -0.17139150948E+02 -0.28202918378E+02  0.10525749231E+03  0.88104880241E+02 0.  0.
          5    1    3    3  502    0  0.10777868521E+02  0.13273732814E+02  0.79899500380E+02  0.81815383601E+02  0.41800000000E+01 0.  1.
         -5    1    3    3    0  502  0.36418685017E+02  0.38654181345E+01 -0.44269739254E+02  0.57606807664E+02  0.41800000000E+01 0.  1.
        -11    1    4    4    0    0 -0.41445365744E+02 -0.45762265887E+02  0.39009733078E+01  0.61863728578E+02  0.00000000000E+00 0. -1.
         11    1    4    4    0    0 -0.57511877934E+01  0.28623114939E+02 -0.32103891686E+02  0.43393763736E+02  0.00000000000E+00 0.  1.
</event>
<event>
 8    1  0.6493926E-009  0.1750672E+03  0.7561462E-02  0.1172664E+00
         -3   -1    0    0    0  501 -0.00000000000E+00  0.00000000000E+00  0.62403332960E+03  0.62403332960E+03  0.00000000000E+00 0.  1.
          3   -1    0    0  501    0  0.00000000000E+00 -0.00000000000E+00 -0.49912900301E+02  0.49912900301E+02  0.00000000000E+00 0. -1.
         25    2    1    2    0    0  0.10279565694E+03  0.92913176974E+02  0.28108203875E+03  0.33742221267E+03  0.12508729573E+03 0.  0.
         23    2    1    2    0    0 -0.10279565694E+03 -0.92913176974E+02  0.29303839055E+03  0.33652401724E+03  0.90427375837E+02 0.  0.
          5    1    3    3  502    0  0.22932005590E+02  0.10337842477E+03  0.15597235002E+03  0.18856781793E+03  0.41800000000E+01 0.  1.
         -5    1    3    3    0  502  0.79863651345E+02 -0.10465247797E+02  0.12510968873E+03  0.14885439474E+03  0.41800000000E+01 0.  1.
        -11    1    4    4    0    0 -0.79361410518E+02 -0.13240556161E+02  0.17003216991E+03  0.18810764102E+03  0.00000000000E+00 0. -1.
         11    1    4    4    0    0 -0.23434246417E+02 -0.79672620813E+02  0.12300622064E+03  0.14841637622E+03  0.00000000000E+00 0.  1.
</event>
<event>
 8    1  0.6493926E-009  0.1698378E+03  0.7561462E-02  0.1178017E+00
         -1   -1    0    0    0  501 -0.00000000000E+00  0.00000000000E+00  0.46743891830E+02  0.46743891830E+02  0.00000000000E+00 0.  1.
          1   -1    0    0  501    0  0.00000000000E+00 -0.00000000000E+00 -0.83943459080E+03  0.83943459080E+03  0.00000000000E+00 0. -1.
         25    2    1    2    0    0  0.13916054994E+03  0.89640425656E+02 -0.42759484089E+03  0.47527455080E+03  0.12508991211E+03 0.  0.
         23    2    1    2    0    0 -0.13916054994E+03 -0.89640425656E+02 -0.36509585809E+03  0.41090393184E+03  0.90255144089E+02 0.  0.
          5    1    3    3  502    0  0.11203072847E+03  0.80574659754E+02 -0.42427951174E+03  0.44617679948E+03  0.41800000000E+01 0. -1.
         -5    1    3    3    0  502  0.27129821466E+02  0.90657659019E+01 -0.33153291474E+01  0.29097751314E+02  0.41800000000E+01 0. -1.
        -11    1    4    4    0    0 -0.11922930844E+03 -0.51917824589E+02 -0.33307097696E+03  0.35755749774E+03  0.00000000000E+00 0. -1.
         11    1    4    4    0    0 -0.19931241499E+02 -0.37722601067E+02 -0.32024881128E+02  0.53346434091E+02  0.00000000000E+00 0.  1.
</event>
<event>
 8    1  0.6493926E-009  0.1082618E+03  0.7561462E-02  0.1263823E+00
         -3   -1    0    0    0  501 -0.00000000000E+00  0.00000000000E+00  0.21443838660E+03  0.21443838660E+03  0.00000000000E+00 0.  1.
          3   -1    0    0  501    0  0.00000000000E+00 -0.00000000000E+00 -0.82900492720E+02  0.82900492720E+02  0.00000000000E+00 0. -1.
         25    2    1    2    0    0 -0.21700587550E+02  0.72768242680E+02  0.82214120599E+02  0.16784266619E+03  0.12508343746E+03 0.  0.
         23    2    1    2    0    0  0.21700587550E+02 -0.72768242680E+02  0.49323773281E+02  0.12949621313E+03  0.92575925386E+02 0.  0.
          5    1    3    3  502    0 -0.54906642231E+01 -0.15834064969E+02 -0.23328479883E+02  0.29026804521E+02  0.41800000000E+01 0.  1.
         -5    1    3    3    0  502 -0.16209923327E+02  0.88602307649E+02  0.10554260048E+03  0.13881586167E+03  0.41800000000E+01 0.  1.
        -11    1    4    4    0    0  0.41488385065E+02 -0.91888058830E+01 -0.60121459864E+01  0.42916968069E+02  0.00000000000E+00 0. -1.
         11    1    4    4    0    0 -0.19787797515E+02 -0.63579436797E+02  0.55335919267E+02  0.86579245059E+02  0.00000000000E+00 0.  1.
</event>
<event>
 8    1  0.6493926E-009  0.1298792E+03  0.7561462E-02  0.1227635E+00
          2   -1    0    0  501    0  0.00000000000E+00  0.00000000000E+00  0.53428302344E+02  0.53428302344E+02  0.00000000000E+00 0. -1.
         -2   -1    0    0    0  501 -0.00000000000E+00 -0.00000000000E+00 -0.42522736559E+03  0.42522736559E+03  0.00000000000E+00 0.  1.
         25    2    1    2    0    0 -0.59860209135E+02  0.65315706648E+02 -0.28755049957E+03  0.32585571347E+03  0.12508904838E+03 0.  0.
         23    2    1    2    0    0  0.59860209135E+02 -0.65315706648E+02 -0.84248563673E+02  0.15279995446E+03  0.91654893106E+02 0.  0.
          5    1    3    3  502    0  0.25782781385E+02  0.33484298130E+02 -0.28527730599E+02  0.51159103299E+02  0.41800000000E+01 0.  1.
         -5    1    3    3    0  502 -0.85642990520E+02  0.31831408518E+02 -0.25902276897E+03  0.27469661017E+03  0.41800000000E+01 0.  1.
        -11    1    4    4    0    0 -0.22945660476E+02 -0.24300713640E+02 -0.33735343415E+02  0.47487908076E+02  0.00000000000E+00 0.  1.
         11    1    4    4    0    0  0.82805869611E+02 -0.41014993008E+02 -0.50513220257E+02  0.10531204639E+03  0.00000000000E+00 0. -1.
</event>
<event>
 8    1  0.6493926E-009  0.1135700E+03  0.7561462E-02  0.1254098E+00
          1   -1    0    0  501    0  0.00000000000E+00  0.00000000000E+00  0.54827908552E+03  0.54827908552E+03  0.00000000000E+00 0. -1.
         -1   -1    0    0    0  501 -0.00000000000E+00 -0.00000000000E+00 -0.33546121097E+02  0.33546121097E+02  0.00000000000E+00 0.  1.
         25    2    1    2    0    0 -0.38298685338E+02 -0.64642465651E+02  0.35223150068E+03  0.38126429352E+03  0.12509993517E+03 0.  0.
         23    2    1    2    0    0  0.38298685338E+02  0.64642465651E+02  0.16250146375E+03  0.20056091310E+03  0.90401971654E+02 0.  0.
          5    1    3    3  502    0  0.45181990932E+02 -0.21606644338E+02  0.15125349904E+03  0.15938429269E+03  0.41800000000E+01 0.  1.
         -5    1    3    3    0  502 -0.83480676271E+02 -0.43035821313E+02  0.20097800164E+03  0.22188000083E+03  0.41800000000E+01 0.  1.
        -11    1    4    4    0    0  0.38217022896E+02  0.30951589381E+02  0.18295457685E+02  0.52471568455E+02  0.00000000000E+00 0.  1.
         11    1    4    4    0    0  0.81662442172E-01  0.33690876270E+02  0.14420600606E+03  0.14808934464E+03  0.00000000000E+00 0. -1.
</event>
<event>
 8    1  0.6493926E-009  0.9578671E+02  0.7561462E-02  0.1289414E+00
          2   -1    0    0  501    0  0.00000000000E+00  0.00000000000E+00  0.31150548221E+03  0.31150548221E+03  0.00000000000E+00 0. -1.
         -2   -1    0    0    0  501 -0.00000000000E+00 -0.00000000000E+00 -0.39561622327E+02  0.39561622327E+02  0.00000000000E+00 0.  1.
         25    2    1    2    0    0  0.21575086431E+02 -0.11688380663E+02  0.17040296826E+03  0.21280840100E+03  0.12509253114E+03 0.  0.
         23    2    1    2    0    0 -0.21575086431E+02  0.11688380663E+02  0.10154089162E+03  0.13825870354E+03  0.90569386856E+02 0.  0.
          5    1    3    3  502    0  0.63071317310E+02 -0.61842216432E+01  0.38293298238E+02  0.74162556284E+02  0.41800000000E+01 0.  1.
         -5    1    3    3    0  502 -0.41496230879E+02 -0.55041590199E+01  0.13210967002E+03  0.13864584471E+03  0.41800000000E+01 0.  1.
        -11    1    4    4    0    0 -0.53249823754E+02  0.10637379897E+02  0.35133628670E+02  0.64676653009E+02  0.00000000000E+00 0. -1.
         11    1    4    4    0    0  0.31674737323E+02  0.10510007659E+01  0.66407262955E+02  0.73582050530E+02  0.00000000000E+00 0.  1.
</event>
<event>
 8    1  0.6493926E-009  0.9326616E+02  0.7561462E-02  0.1295130E+00
         -1   -1    0    0    0  501 -0.00000000000E+00  0.00000000000E+00  0.24779311535E+03  0.24779311535E+03  0.00000000000E+00 0.  1.
          1   -1    0    0  501    0  0.00000000000E+00 -0.00000000000E+00 -0.62995912187E+02  0.62995912187E+02  0.00000000000E+00 0. -1.
         25    2    1    2    0    0 -0.40683771433E+02  0.45257440027E+02  0.11250696215E+03  0.17891259158E+03  0.12509393974E+03 0.  0.
         23    2    1    2    0    0  0.40683771433E+02 -0.45257440027E+02  0.72290241010E+02  0.13187643595E+03  0.91989729202E+02 0.  0.
          5    1    3    3  502    0 -0.38915202636E+02  0.59485184853E+02  0.61049434006E+01  0.71467635662E+02  0.41800000000E+01 0.  1.
         -5    1    3    3    0  502 -0.17685687975E+01 -0.14227744826E+02  0.10640201875E+03  0.10744495592E+03  0.41800000000E+01 0.  1.
        -11    1    4    4    0    0 -0.36521800048E+01  0.20644008964E+02 -0.44515375009E+01  0.21431978700E+02  0.00000000000E+00 0. -1.
         11    1    4    4    0    0  0.44335951438E+02 -0.65901448990E+02  0.76741778511E+02  0.11044445725E+03  0.00000000000E+00 0.  1.
</event>
<event>
 8    1  0.6493926E-009  0.1163070E+03  0.7561462E-02  0.1249317E+00
          3   -1    0    0  501    0  0.00000000000E+00  0.00000000000E+00  0.24903732204E+02  0.24903732204E+02  0.00000000000E+00 0. -1.
         -3   -1    0    0    0  501 -0.00000000000E+00 -0.00000000000E+00 -0.90328531323E+03  0.90328531323E+03  0.00000000000E+00 0.  1.
         25    2    1    2    0    0  0.23086757575E+02 -0.96636305824E+02 -0.37992492847E+03  0.41214274689E+03  0.12508844296E+03 0.  0.
         23    2    1    2    0    0 -0.23086757575E+02  0.96636305824E+02 -0.49845665256E+03  0.51604629855E+03  0.89292630067E+02 0.  0.
          5    1    3    3  502    0  0.61088638565E+01 -0.15600516316E+02 -0.28737361968E+03  0.28789193113E+03  0.41800000000E+01 0.  1.
         -5    1    3    3    0  502  0.16977893718E+02 -0.81035789507E+02 -0.92551308790E+02  0.12425081575E+03  0.41800000000E+01 0.  1.
        -11    1    4    4    0    0  0.29537152078E+02  0.10196683260E+02 -0.14846953431E+03  0.15172217479E+03  0.00000000000E+00 0. -1.
         11    1    4    4    0    0 -0.52623909653E+02  0.86439622564E+02 -0.34998711825E+03  0.36432412376E+03  0.00000000000E+00 0.  1.
</event>
<event>
 8    1  0.6493926E-009  0.1058508E+03  0.7561462E-02  0.1268452E+00
         -2   -1    0    0    0  501 -0.00000000000E+00  0.00000000000E+00  0.46564078835E+02  0.46564078835E+02  0.00000000000E+00 0.  1.
          2   -1    0    0  501    0  0.00000000000E+00 -0.00000000000E+00 -0.43128025703E+03  0.43128025703E+03  0.00000000000E+00 0. -1.
         25    2    1    2    0    0  0.88369471870E+02  0.11162359841E+02 -0.23520511944E+03  0.28089481403E+03  0.12508671594E+03 0.  0.
         23    2    1    2    0    0 -0.88369471870E+02 -0.11162359841E+02 -0.14951105875E+03  0.19694952183E+03  0.92205182196E+02 0.  0.
          5    1    3    3  502    0  0.67399318397E+02  0.29922781361E+02 -0.24082658997E+03  0.25189870941E+03  0.41800000000E+01 0. -1.
         -5    1    3    3    0  502  0.20970153473E+02 -0.18760421520E+02  0.56214705335E+01  0.28996104622E+02  0.41800000000E+01 0. -1.
        -11    1    4    4    0    0 -0.91095006937E+02  0.66848775388E+01 -0.69090231830E+02  0.11452706235E+03  0.00000000000E+00 0.  1.
         11    1    4    4    0    0  0.27255350670E+01 -0.17847237380E+02 -0.80420826923E+02  0.82422459478E+02  0.00000000000E+00 0. -1.
</event>
<event>
 8    1  0.6493926E-009  0.7223283E+02  0.7561462E-02  0.1352661E+00
         -1   -1    0    0    0  501 -0.00000000000E+00  0.00000000000E+00  0.37017363913E+02  0.37017363913E+02  0.00000000000E+00 0.  1.
          1   -1    0    0  501    0  0.00000000000E+00 -0.00000000000E+00 -0.38647533446E+03  0.38647533446E+03  0.00000000000E+00 0. -1.
         25    2    1    2    0    0 -0.37562089254E+02 -0.34516043882E+02 -0.19799778263E+03  0.23969109111E+03  0.12508568821E+03 0.  0.
         23    2    1    2    0    0  0.37562089254E+02  0.34516043882E+02 -0.15146018792E+03  0.18380160727E+03  0.90777609995E+02 0.  0.
          5    1    3    3  502    0 -0.15729366329E+02 -0.57367004612E+02 -0.19905401811E+03  0.20779403435E+03  0.41800000000E+01 0.  1.
         -5    1    3    3    0  502 -0.21832722925E+02  0.22850960730E+02  0.10562354795E+01  0.31897056760E+02  0.41800000000E+01 0.  1.
        -11    1    4    4    0    0  0.69808163373E+01  0.15353662168E+02  0.91489778949E+01  0.19187770460E+02  0.00000000000E+00 0.  1.
         11    1    4    4    0    0  0.30581272917E+02  0.19162381714E+02 -0.16060916581E+03  0.16461383681E+03  0.00000000000E+00 0. -1.
</event>
<event>
 8    1  0.6493926E-009  0.2246342E+03  0.7561462E-02  0.1130474E+00
          2   -1    0    0  501    0  0.00000000000E+00  0.00000000000E+00  0.92580845818E+03  0.92580845818E+03  0.00000000000E+00 0. -1.
         -2   -1    0    0    0  501 -0.00000000000E+00 -0.00000000000E+00 -0.65988986279E+02  0.65988986279E+02  0.00000000000E+00 0.  1.
         25    2    1    2    0    0 -0.18418194946E+03 -0.99272880768E+02  0.27807461523E+03  0.36979911480E+03  0.12509115999E+03 0.  0.
         23    2    1    2    0    0  0.18418194946E+03  0.99272880768E+02  0.58174485667E+03  0.62199832966E+03  0.68386756579E+02 0.  0.
          5    1    3    3  502    0 -0.23828372582E+02 -0.73450829902E+02  0.60131560101E+02  0.97959648189E+02  0.41800000000E+01 0. -1.
         -5    1    3    3    0  502 -0.16035357688E+03 -0.25822050867E+02  0.21794305513E+03  0.27183946661E+03  0.41800000000E+01 0. -1.
        -11    1    4    4    0    0  0.83639190670E+02  0.50653244823E+02  0.36881956302E+03  0.38156144393E+03  0.00000000000E+00 0.  1.
         11    1    4    4    0    0  0.10054275879E+03  0.48619635945E+02  0.21292529366E+03  0.24043688574E+03  0.00000000000E+00 0. -1.
</event>
<event>
 7    1  0.6493926E-009  0.2007337E+03  0.7561462E-02  0.1149121E+00
          1   -1    0    0  501    0  0.00000000000E+00  0.00000000000E+00  0.96483336705E+03  0.96483336705E+03  0.00000000000E+00 0. -1.
         -1   -1    0    0    0  501 -0.00000000000E+00 -0.00000000000E+00 -0.53950016872E+02  0.53950016872E+02  0.00000000000E+00 0.  1.
         23    2    1    2    0    0  0.17011534030E+03  0.53005456474E+02  0.24687448082E+03  0.31987604162E+03  0.98106397858E+02 0.  0.
          5    1    1    2  502    0 -0.20199699195E+02  0.29804026201E+02  0.22052343951E+03  0.22348236530E+03  0.41800000000E+01 0.  1.
         -5    1    1    2    0  502 -0.14991564111E+03 -0.82809482675E+02  0.44348542984E+03  0.47542497700E+03  0.41800000000E+01 0.  1.
        -11    1    3    3    0    0  0.71030302664E+02  0.62171572690E+02  0.72184749375E+02  0.11883285063E+03  0.00000000000E+00 0.  1.
         11    1    3    3    0    0  0.99085037640E+02 -0.91661162160E+01  0.17468973144E+03  0.20104319099E+03  0.00000000000E+00 0. -1.
</event>
<event>
 8    1  0.6493926E-009  0.1322467E+03  0.7561462E-02  0.1224160E+00
          1   -1    0    0  501    0  0.00000000000E+00  0.00000000000E+00  0.24587845077E+03  0.24587845077E+03  0.00000000000E+00 0. -1.
         -1   -1    0    0    0  501 -0.00000000000E+00 -0.00000000000E+00 -0.13997976653E+03  0.13997976653E+03  0.00000000000E+00 0.  1.
         25    2    1    2    0    0 -0.84364638618E+01  0.11439570485E+03 -0.44060244095E+02  0.17533272659E+03  0.12507081471E+03 0.  0.
         23    2    1    2    0    0  0.84364638618E+01 -0.11439570485E+03  0.14995892833E+03  0.21052549071E+03  0.93143710699E+02 0.  0.
          5    1    3    3  502    0 -0.46455710850E+01 -0.16985119464E+02  0.21739717249E+02  0.28287158216E+02  0.41800000000E+01 0. -1.
         -5    1    3    3    0  502 -0.37908927768E+01  0.13138082431E+03 -0.65799961344E+02  0.14704556837E+03  0.41800000000E+01 0. -1.
        -11    1    4    4    0    0  0.37124340049E+01 -0.17846796567E+02 -0.12063026585E+02  0.21858795125E+02  0.00000000000E+00 0.  1.
         11    1    4    4    0    0  0.47240298570E+01 -0.96548908280E+02  0.16202195492E+03  0.18866669559E+03  0.00000000000E+00 0. -1.
</event>
<event>
 8    1  0.6493926E-009  0.7713605E+02  0.7561462E-02  0.1337381E+00
          2   -1    0    0  501    0  0.00000000000E+00  0.00000000000E+00  0.95496055684E+02  0.95496055684E+02  0.00000000000E+00 0. -1.
         -2   -1    0    0    0  501 -0.00000000000E+00 -0.00000000000E+00 -0.14013256558E+03  0.14013256558E+03  0.00000000000E+00 0.  1.
         25    2    1    2    0    0  0.27240691121E+02  0.22227838159E+02 -0.10052099060E+02  0.13031784115E+03  0.12508222489E+03 0.  0.
         23    2    1    2    0    0 -0.27240691121E+02 -0.22227838159E+02 -0.34584410836E+02  0.10531078012E+03  0.93049163853E+02 0.  0.
          5    1    3    3  502    0  0.45169967862E+02 -0.58725647150E+01  0.46062678918E+02  0.64915759274E+02  0.41800000000E+01 0.  1.
         -5    1    3    3    0  502 -0.17929276742E+02  0.28100402874E+02 -0.56114777978E+02  0.65402081876E+02  0.41800000000E+01 0.  1.
        -11    1    4    4    0    0 -0.48473879313E+02 -0.23076134254E+02  0.11193752514E+02  0.54840906658E+02  0.00000000000E+00 0. -1.
         11    1    4    4    0    0  0.21233188192E+02  0.84829609495E+00 -0.45778163350E+02  0.50469873457E+02  0.00000000000E+00 0.  1.
</event>
<event>
 8    1  0.6493926E-009  0.1620469E+03  0.7561462E-02  0.1186405E+00
         -1   -1    0    0    0  501 -0.00000000000E+00  0.00000000000E+00  0.97365332230E+02  0.97365332230E+02  0.00000000000E+00 0.  1.
          1   -1    0    0  501    0  0.00000000000E+00 -0.00000000000E+00 -0.40953877262E+03  0.40953877262E+03  0.00000000000E+00 0. -1.
         25    2    1    2    0    0 -0.78217044556E+02  0.14062203876E+03 -0.22570266431E+03  0.30410799029E+03  0.12509002053E+03 0.  0.
         23    2    1    2    0    0  0.78217044556E+02 -0.14062203876E+03 -0.86470776085E+02  0.20279611456E+03  0.88071590890E+02 0.  0.
          5    1    3    3  502    0 -0.19251617458E+02  0.19431114801E+02  0.12520148657E+02  0.30371360186E+02  0.41800000000E+01 0. -1.
         -5    1    3    3    0  502 -0.58965427098E+02  0.12119092396E+03 -0.23822281296E+03  0.27373663010E+03  0.41800000000E+01 0. -1.
        -11    1    4    4    0    0  0.32598020324E+02 -0.73754933117E+02 -0.91168930147E+02  0.12171357735E+03  0.00000000000E+00 0. -1.
         11    1    4    4    0    0  0.45619024232E+02 -0.66867105643E+02  0.46981540628E+01  0.81082537211E+02  0.00000000000E+00 0.  1.
</event>
<event>
 8    1  0.6493926E-009  0.9030318E+02  0.7561462E-02  0.1302119E+00
         -2   -1    0    0    0  501 -0.00000000000E+00  0.00000000000E+00  0.28218238870E+03  0.28218238870E+03  0.00000000000E+00 0.  1.
          2   -1    0    0  501    0  0.00000000000E+00 -0.00000000000E+00 -0.44425128795E+02  0.44425128795E+02  0.00000000000E+00 0. -1.
         25    2    1    2    0    0  0.19597591422E+02 -0.10827126264E+02  0.16114452837E+03  0.20522252555E+03  0.12508970267E+03 0.  0.
         23    2    1    2    0    0 -0.19597591422E+02  0.10827126264E+02  0.76612731529E+02  0.12138499194E+03  0.91452246468E+02 0.  0.
          5    1    3    3  502    0 -0.45441757838E+02 -0.17264090379E+02  0.26563482695E+02  0.55552616364E+02  0.41800000000E+01 0. -1.
         -5    1    3    3    0  502  0.65039349261E+02  0.64369641142E+01  0.13458104568E+03  0.14966990919E+03  0.41800000000E+01 0. -1.
        -11    1    4    4    0    0 -0.42357292730E+02  0.39068585626E+01  0.85894159748E+02  0.95849937246E+02  0.00000000000E+00 0.  1.
         11    1    4    4    0    0  0.22759701308E+02  0.69202677017E+01 -0.92814282182E+01  0.25535054698E+02  0.00000000000E+00 0. -1.
</event>
<event>
 8    1  0.6493926E-009  0.7918310E+02  0.7561462E-02  0.1331386E+00
          2   -1    0    0  501    0  0.00000000000E+00  0.00000000000E+00  0.53048876372E+02  0.53048876372E+02  0.00000000000E+00 0. -1.
         -2   -1    0    0    0  501 -0.00000000000E+00 -0.00000000000E+00 -0.31573894309E+03  0.31573894309E+03  0.00000000000E+00 0.  1.
         25    2    1    2    0    0 -0.45226757236E+02  0.45113704009E+02 -0.18828132718E+03  0.23490070699E+03  0.12509107930E+03 0.  0.
         23    2    1    2    0    0  0.45226757236E+02 -0.45113704009E+02 -0.74408739541E+02  0.13388711247E+03  0.91150384018E+02 0.  0.
          5    1    3    3  502    0 -0.11618506935E+02 -0.18414262429E+02  0.97272827075E+01  0.24210889968E+02  0.41800000000E+01 0. -1.
         -5    1    3    3    0  502 -0.33608250301E+02  0.63527966437E+02 -0.19800860988E+03  0.21068981702E+03  0.41800000000E+01 0. -1.
        -11    1    4    4    0    0  0.18724768302E+02 -0.23211220561E+02 -0.90963774475E+02  0.95727665670E+02  0.00000000000E+00 0.  1.
         11    1    4    4    0    0  0.26501988934E+02 -0.21902483448E+02  0.16555034933E+02  0.38159446802E+02  0.00000000000E+00 0. -1.
</event>
<event>
 8    1  0.6493926E-009  0.1127048E+03  0.7561462E-02  0.1255641E+00
          2   -1    0    0  501    0  0.00000000000E+00  0.00000000000E+00  0.43374152894E+03  0.43374152894E+03  0.00000000000E+00 0. -1.
         -2   -1    0    0    0  501 -0.00000000000E+00 -0.00000000000E+00 -0.35493448524E+02  0.35493448524E+02  0.00000000000E+00 0.  1.
         25    2    1    2    0    0 -0.30540915448E+02 -0.54172628729E+02  0.23539011888E+03  0.27374837492E+03  0.12514888529E+03 0.  0.
         23    2    1    2    0    0  0.30540915448E+02  0.54172628729E+02  0.16285796153E+03  0.19548660254E+03  0.88458323049E+02 0.  0.
          5    1    3    3  502    0 -0.66056632529E+02 -0.51540387290E+02  0.21862096436E+03  0.23416338032E+03  0.41800000000E+01 0.  1.
         -5    1    3    3    0  502  0.35515717081E+02 -0.26322414393E+01  0.16769154515E+02  0.39584994606E+02  0.41800000000E+01 0.  1.
        -11    1    4    4    0    0  0.24847928281E+02  0.77637810186E+02  0.14124659080E+03  0.16308172345E+03  0.00000000000E+00 0. -1.
         11    1    4    4    0    0  0.56929871673E+01 -0.23465181457E+02  0.21611370732E+02  0.32404879087E+02  0.00000000000E+00 0.  1.
</event>
<event>
 8    1  0.6493926E-009  0.1259233E+03  0.7561462E-02  0.1233633E+00
          1   -1    0    0  501    0  0.00000000000E+00  0.00000000000E+00  0.19728416832E+03  0.19728416832E+03  0.00000000000E+00 0.  1.
         -1   -1    0    0    0  501 -0.00000000000E+00 -0.00000000000E+00 -0.96663826961E+02  0.96663826961E+02  0.00000000000E+00 0. -1.
         25    2    1    2    0    0  0.71744179363E+02  0.11353662383E+02  0.73783548752E+01  0.14483767088E+03  0.12508947943E+03 0.  0.
         23    2    1    2    0    0 -0.71744179363E+02 -0.11353662383E+02  0.93241986480E+02  0.14911032439E+03  0.90904828672E+02 0.  0.
          5    1    3    3  502    0 -0.29311132975E+02 -0.18346021069E+02 -0.13539878105E+02  0.37370037523E+02  0.41800000000E+01 0.  1.
         -5    1    3    3    0  502  0.10105531234E+03  0.29699683453E+02  0.20918232980E+02  0.10746763336E+03  0.41800000000E+01 0.  1.
        -11    1    4    4    0    0 -0.54698024866E+02 -0.46983299973E+02  0.79406231235E+02  0.10725974995E+03  0.00000000000E+00 0. -1.
         11    1    4    4    0    0 -0.17046154497E+02  0.35629637590E+02  0.13835755245E+02  0.41850574442E+02  0.00000000000E+00 0.  1.
</event>
<event>
 8    1  0.6493926E-009  0.1064231E+03  0.7561462E-02  0.1267341E+00
          1   -1    0    0  501    0  0.00000000000E+00  0.00000000000E+00  0.61343136320E+02  0.61343136320E+02  0.00000000000E+00 0. -1.
         -1   -1    0    0    0  501 -0.00000000000E+00 -0.00000000000E+00 -0.35304910747E+03  0.35304910747E+03  0.00000000000E+00 0.  1.
         25    2    1    2    0    0  0.86890896092E+02 -0.34443659167E+02 -0.11476762159E+03  0.19379188444E+03  0.12508914433E+03 0.  0.
         23    2    1    2    0    0 -0.86890896092E+02  0.34443659167E+02 -0.17693834956E+03  0.22060035935E+03  0.92849046943E+02 0.  0.
          5    1    3    3  502    0  0.70943245292E+02 -0.15676866947E+02 -0.14031293779E+03  0.15806296568E+03  0.41800000000E+01 0. -1.
         -5    1    3    3    0  502  0.15947650800E+02 -0.18766792220E+02  0.25545316196E+02  0.35728918761E+02  0.41800000000E+01 0. -1.
        -11    1    4    4    0    0  0.64313316520E+01  0.19559617964E+02 -0.89549225339E+02  0.91885822849E+02  0.00000000000E+00 0.  1.
         11    1    4    4    0    0 -0.93322227744E+02  0.14884041203E+02 -0.87389124221E+02  0.12871453650E+03  0.00000000000E+00 0. -1.
</event>
<event>
 8    1  0.6493926E-009  0.5947511E+02  0.7561462E-02  0.1400048E+00
          1   -1    0    0  501    0  0.00000000000E+00  0.00000000000E+00  0.55139751801E+03  0.55139751801E+03  0.00000000000E+00 0. -1.
         -1   -1    0    0    0  501 -0.00000000000E+00 -0.00000000000E+00 -0.26598721106E+02  0.26598721106E+02  0.00000000000E+00 0.  1.
         25    2    1    2    0    0 -0.20684513019E+01  0.28193575025E+02  0.40655974038E+03  0.42630769179E+03  0.12509304304E+03 0.  0.
         23    2    1    2    0    0  0.20684513019E+01 -0.28193575025E+02  0.11823905652E+03  0.15168854733E+03  0.90718161023E+02 0.  0.
          5    1    3    3  502    0  0.50428391558E+01  0.10055171190E+01  0.39591002541E+03  0.39596548070E+03  0.41800000000E+01 0.  1.
         -5    1    3    3    0  502 -0.71112904577E+01  0.27188057906E+02  0.10649714978E+02  0.30342211089E+02  0.41800000000E+01 0.  1.
        -11    1    4    4    0    0  0.40387102564E+02 -0.18279471932E+02  0.97272052740E+02  0.10689765850E+03  0.00000000000E+00 0.  1.
         11    1    4    4    0    0 -0.38318651262E+02 -0.99141030929E+01  0.20967003783E+02  0.44790888831E+02  0.00000000000E+00 0. -1.
</event>
<event>
 8    1  0.6493926E-009  0.1426203E+03  0.7561462E-02  0.1209846E+00
          1   -1    0    0  501    0  0.00000000000E+00  0.00000000000E+00  0.87531693204E+02  0.87531693204E+02  0.00000000000E+00 0. -1.
         -1   -1    0    0    0  501 -0.00000000000E+00 -0.00000000000E+00 -0.32038318170E+03  0.32038318170E+03  0.00000000000E+00 0.  1.
         25    2    1    2    0    0 -0.12119358929E+03 -0.36299028824E+02 -0.11517748941E+03  0.21194065573E+03  0.12508989530E+03 0.  0.
         23    2    1    2    0    0  0.12119358929E+03  0.36299028824E+02 -0.11767399908E+03  0.19597421917E+03  0.92483614448E+02 0.  0.
          5    1    3    3  502    0 -0.11133339162E+03 -0.59028558297E+02 -0.13134109945E+03  0.18206441604E+03  0.41800000000E+01 0.  1.
         -5    1    3    3    0  502 -0.98601976695E+01  0.22729529473E+02  0.16163610043E+02  0.29876239686E+02  0.41800000000E+01 0.  1.
        -11    1    4    4    0    0  0.50216249132E+02  0.38095202733E+02 -0.10698776402E+03  0.12417446516E+03  0.00000000000E+00 0.  1.
         11    1    4    4    0    0  0.70977340157E+02 -0.17961739093E+01 -0.10686235067E+02  0.71799754013E+02  0.00000000000E+00 0. -1.
</event>
<event>
 8    1  0.6493926E-009  0.4068712E+03  0.7561462E-02  0.1041426E+00
         -2   -1    0    0    0  501 -0.00000000000E+00  0.00000000000E+00  0.15265811220E+03  0.15265811220E+03  0.00000000000E+00 0.  1.
          2   -1    0    0  501    0  0.00000000000E+00 -0.00000000000E+00 -0.12831280364E+04  0.12831280364E+04  0.00000000000E+00 0. -1.
         25    2    1    2    0    0 -0.14293884106E+03 -0.37784035422E+03 -0.33650777648E+03  0.54044372626E+03  0.12508833703E+03 0.  0.
         23    2    1    2    0    0  0.14293884106E+03  0.37784035422E+03 -0.79396214774E+03  0.89534242236E+03  0.89818236856E+02 0.  0.
          5    1    3    3  502    0 -0.10839862530E+03 -0.32810850888E+03 -0.22169242996E+03  0.41057333263E+03  0.41800000000E+01 0.  1.
         -5    1    3    3    0  502 -0.34540215757E+02 -0.49731845344E+02 -0.11481534651E+03  0.12987039362E+03  0.41800000000E+01 0.  1.
        -11    1    4    4    0    0  0.12870712073E+03  0.27473138776E+03 -0.65377338996E+03  0.72073747216E+03  0.00000000000E+00 0.  1.
         11    1    4    4    0    0  0.14231720327E+02  0.10310896646E+03 -0.14018875778E+03  0.17460495020E+03  0.00000000000E+00 0. -1.
</event>
<event>
 8    1  0.6493926E-009  0.9058211E+02  0.7561462E-02  0.1301448E+00
          1   -1    0    0  501    0  0.00000000000E+00  0.00000000000E+00  0.48803215814E+03  0.48803215814E+03  0.00000000000E+00 0. -1.
         -1   -1    0    0    0  501 -0.00000000000E+00 -0.00000000000E+00 -0.28729516203E+02  0.28729516203E+02  0.00000000000E+00 0.  1.
         25    2    1    2    0    0  0.34573024773E+02  0.16083181221E+02  0.32895628110E+03  0.35399816805E+03  0.12509398606E+03 0.  0.
         23    2    1    2    0    0 -0.34573024773E+02 -0.16083181221E+02  0.13034636084E+03  0.16276350629E+03  0.89709656319E+02 0.  0.
          5    1    3    3  502    0  0.66443087619E+02  0.16706246824E+02  0.30815430720E+03  0.31570608486E+03  0.41800000000E+01 0. -1.
         -5    1    3    3    0  502 -0.31870062845E+02 -0.62306560350E+00  0.20801973900E+02  0.38292083185E+02  0.41800000000E+01 0. -1.
        -11    1    4    4    0    0 -0.30344846969E+02  0.24852478061E+02  0.11014263111E+03  0.11691815338E+03  0.00000000000E+00 0. -1.
         11    1    4    4    0    0 -0.42281778042E+01 -0.40935659282E+02  0.20203729732E+02  0.45845352910E+02  0.00000000000E+00 0.  1.
</event>
<event>
 8    1  0.6493926E-009  0.1023275E+03  0.7561462E-02  0.1275476E+00
          1   -1    0    0  501    0  0.00000000000E+00  0.00000000000E+00  0.83197689029E+02  0.83197689029E+02  0.00000000000E+00 0. -1.
         -1   -1    0    0    0  501 -0.00000000000E+00 -0.00000000000E+00 -0.19990462631E+03  0.19990462631E+03  0.00000000000E+00 0.  1.
         25    2    1    2    0    0 -0.57822049918E+02  0.33882531113E+02 -0.83725034978E+02  0.16477014748E+03  0.12509158503E+03 0.  0.
         23    2    1    2    0    0  0.57822049918E+02 -0.33882531113E+02 -0.32981902301E+02  0.11833216786E+03  0.91778432649E+02 0.  0.
          5    1    3    3  502    0 -0.43024660380E+00 -0.42005847918E+02 -0.77067652895E+01  0.42913203128E+02  0.41800000000E+01 0.  1.
         -5    1    3    3    0  502 -0.57391803314E+02  0.75888379032E+02 -0.76018269688E+02  0.12185694435E+03  0.41800000000E+01 0.  1.
        -11    1    4    4    0    0  0.25009626662E+02 -0.17517103822E+02 -0.63608097991E+02  0.70557214245E+02  0.00000000000E+00 0.  1.
         11    1    4    4    0    0  0.32812423256E+02 -0.16365427291E+02  0.30626195690E+02  0.47774953614E+02  0.00000000000E+00 0. -1.
</event>
<event>
 8    1  0.6493926E-009  0.1245377E+03  0.7561462E-02  0.1235794E+00
          1   -1    0    0  501    0  0.00000000000E+00  0.00000000000E+00  0.10901655677E+04  0.10901655677E+04  0.00000000000E+00 0. -1.
         -1   -1    0    0    0  501 -0.00000000000E+00 -0.00000000000E+00 -0.31557568121E+02  0.31557568121E+02  0.00000000000E+00 0.  1.
         25    2    1    2    0    0 -0.51060149007E+02 -0.94541764179E+02  0.86773413598E+03  0.88326353140E+03  0.12508657464E+03 0.  0.
         23    2    1    2    0    0  0.51060149007E+02  0.94541764179E+02  0.19087386359E+03  0.23845960441E+03  0.94259573233E+02 0.  0.
          5    1    3    3  502    0 -0.54941914145E+02 -0.28629827771E+02  0.70305782388E+03  0.70579462813E+03  0.41800000000E+01 0. -1.
         -5    1    3    3    0  502  0.38817651381E+01 -0.65911936407E+02  0.16467631210E+03  0.17746890327E+03  0.41800000000E+01 0. -1.
        -11    1    4    4    0    0  0.19212665542E+01  0.61675260366E+02  0.16059052523E+03  0.17203733839E+03  0.00000000000E+00 0. -1.
         11    1    4    4    0    0  0.49138882453E+02  0.32866503813E+02  0.30283338353E+02  0.66422266021E+02  0.00000000000E+00 0.  1.
</event>
<event>
 8    1  0.6493926E-009  0.1795265E+03  0.7561462E-02  0.1168262E+00
         -2   -1    0    0    0  501 -0.00000000000E+00  0.00000000000E+00  0.55856326016E+02  0.55856326016E+02  0.00000000000E+00 0.  1.
          2   -1    0    0  501    0  0.00000000000E+00 -0.00000000000E+00 -0.64232907242E+03  0.64232907242E+03  0.00000000000E+00 0. -1.
         25    2    1    2    0    0  0.14374640842E+03 -0.56436868203E+02 -0.35082769089E+03  0.40321222285E+03  0.12510746556E+03 0.  0.
         23    2    1    2    0    0 -0.14374640842E+03  0.56436868203E+02 -0.23564505551E+03  0.29497317558E+03  0.87363791674E+02 0.  0.
          5    1    3    3  502    0 -0.13504819853E+02 -0.17290833251E+02 -0.11433018022E+03  0.11649126826E+03  0.41800000000E+01 0. -1.
         -5    1    3    3    0  502  0.15725122828E+03 -0.39146034952E+02 -0.23649751067E+03  0.28672095459E+03  0.41800000000E+01 0. -1.
        -11    1    4    4    0    0 -0.42258586463E+02 -0.20779431862E+02 -0.41939530325E+02  0.63059472899E+02  0.00000000000E+00 0.  1.
         11    1    4    4    0    0 -0.10148782196E+03  0.77216300066E+02 -0.19370552519E+03  0.23191370268E+03  0.00000000000E+00 0. -1.
</event>
<event>
 8    1  0.6493926E-009  0.1004411E+03  0.7561462E-02  0.1279371E+00
          2   -1    0    0  501    0  0.00000000000E+00  0.00000000000E+00  0.12299820832E+04  0.12299820832E+04  0.00000000000E+00 0.  1.
         -2   -1    0    0    0  501 -0.00000000000E+00 -0.00000000000E+00 -0.15612567862E+02  0.15612567862E+02  0.00000000000E+00 0. -1.
         25    2    1    2    0    0 -0.74266630725E+02  0.28041487912E+02  0.80493568301E+03  0.81845763120E+03  0.12509829256E+03 0.  0.
         23    2    1    2    0    0  0.74266630725E+02 -0.28041487912E+02  0.40943383234E+03  0.42713701988E+03  0.92239434078E+02 0.  0.
          5    1    3    3  502    0 -0.39034709495E+02 -0.15021078002E+02  0.68378923244E+03  0.68507994288E+03  0.41800000000E+01 0.  1.
         -5    1    3    3    0  502 -0.35231921231E+02  0.43062565914E+02  0.12114645057E+03  0.13337768832E+03  0.41800000000E+01 0.  1.
        -11    1    4    4    0    0  0.76068440451E+01 -0.35197697411E+02  0.50669271285E+02  0.62162022425E+02  0.00000000000E+00 0.  1.
         11    1    4    4    0    0  0.66659786680E+02  0.71562094989E+01  0.35876456106E+03  0.36497499745E+03  0.00000000000E+00 0. -1.
</event>
<event>
 8    1  0.6493926E-009  0.1072546E+03  0.7561462E-02  0.1265740E+00
         -2   -1    0    0    0  501 -0.00000000000E+00  0.00000000000E+00  0.89117330447E+02  0.89117330447E+02  0.00000000000E+00 0.  1.
          2   -1    0    0  501    0  0.00000000000E+00 -0.00000000000E+00 -0.16035344491E+03  0.16035344491E+03  0.00000000000E+00 0. -1.
         25    2    1    2    0    0 -0.64203875174E+01  0.33505768820E+02  0.78760392201E+00  0.12966530077E+03  0.12509441228E+03 0.  0.
         23    2    1    2    0    0  0.64203875174E+01 -0.33505768820E+02 -0.72023718386E+02  0.11980547458E+03  0.89454333656E+02 0.  0.
          5    1    3    3  502    0 -0.52130259934E+02 -0.22616864598E+02  0.37541084195E+01  0.57102121633E+02  0.41800000000E+01 0. -1.
         -5    1    3    3    0  502  0.45709872416E+02  0.56122633418E+02 -0.29665044975E+01  0.72563179141E+02  0.41800000000E+01 0. -1.
        -11    1    4    4    0    0  0.30865184634E+02  0.12205746064E+02 -0.27786160856E+01  0.33307064819E+02  0.00000000000E+00 0.  1.
         11    1    4    4    0    0 -0.24444797117E+02 -0.45711514884E+02 -0.69245102300E+02  0.86498409764E+02  0.00000000000E+00 0. -1.
</event>
<event>
 8    1  0.6493926E-009  0.8309891E+02  0.7561462E-02  0.1320480E+00
          2   -1    0    0  501    0  0.00000000000E+00  0.00000000000E+00  0.65796003090E+02  0.65796003090E+02  0.00000000000E+00 0. -1.
         -2   -1    0    0    0  501 -0.00000000000E+00 -0.00000000000E+00 -0.19041902936E+03  0.19041902936E+03  0.00000000000E+00 0.  1.
         25    2    1    2    0    0 -0.50274129764E+01 -0.49054421083E+01 -0.10409669639E+03  0.16287449109E+03  0.12507053771E+03 0.  0.
         23    2    1    2    0    0  0.50274129764E+01  0.49054421083E+01 -0.20526329881E+02  0.93340541364E+02  0.90784294899E+02 0.  0.
          5    1    3    3  502    0  0.39529144913E+00  0.54365699781E+02 -0.16651880821E+02  0.57013534384E+02  0.41800000000E+01 0.  1.
         -5    1    3    3    0  502 -0.54227044255E+01 -0.59271141890E+02 -0.87444815569E+02  0.10586095670E+03  0.41800000000E+01 0.  1.
        -11    1    4    4    0    0  0.25202122679E+02 -0.97990842523E+01 -0.48696425000E+02  0.55700187141E+02  0.00000000000E+00 0.  1.
         11    1    4    4    0    0 -0.20174709703E+02  0.14704526361E+02  0.28170095119E+02  0.37640354224E+02  0.00000000000E+00 0. -1.
</event>
<event>
 8    1  0.6493926E-009  0.1265066E+03  0.7561462E-02  0.1232733E+00
         -1   -1    0    0    0  501 -0.00000000000E+00  0.00000000000E+00  0.12366496535E+03  0.12366496535E+03  0.00000000000E+00 0.  1.
          1   -1    0    0  501    0  0.00000000000E+00 -0.00000000000E+00 -0.14718278375E+03  0.14718278375E+03  0.00000000000E+00 0. -1.
         25    2    1    2    0    0 -0.48346716189E+02  0.57128383668E+02  0.17154547825E+02  0.14677303518E+03  0.12508792171E+03 0.  0.
         23    2    1    2    0    0  0.48346716189E+02 -0.57128383668E+02 -0.40672366229E+02  0.12407471392E+03  0.90217714854E+02 0.  0.
          5    1    3    3  502    0  0.41940849337E+02  0.20166567225E+02 -0.38726684635E+01  0.46884914821E+02  0.41800000000E+01 0. -1.
         -5    1    3    3    0  502 -0.90287565526E+02  0.36961816443E+02  0.21027216289E+02  0.99888120356E+02  0.41800000000E+01 0. -1.
        -11    1    4    4    0    0  0.31915633713E+01 -0.63020054353E+02 -0.46195391162E+02  0.78203116895E+02  0.00000000000E+00 0. -1.
         11    1    4    4    0    0  0.45155152818E+02  0.58916706852E+01  0.55230249333E+01  0.45871597028E+02  0.00000000000E+00 0.  1.
</event>
<event>
 8    1  0.6493926E-009  0.9296083E+02  0.7561462E-02  0.1295836E+00
         -1   -1    0    0    0  501 -0.00000000000E+00  0.00000000000E+00  0.26202539532E+02  0.26202539532E+02  0.00000000000E+00 0.  1.
          1   -1    0    0  501    0  0.00000000000E+00 -0.00000000000E+00 -0.63890226993E+03  0.63890226993E+03  0.00000000000E+00 0. -1.
         25    2    1    2    0    0  0.15743213955E+02 -0.51811394493E+02 -0.22447327644E+03  0.26261791133E+03  0.12509055173E+03 0.  0.
         23    2    1    2    0    0 -0.15743213955E+02  0.51811394493E+02 -0.38822645396E+03  0.40248689813E+03  0.91343605289E+02 0.  0.
          5    1    3    3  502    0 -0.22734694384E+02 -0.27146148000E+02 -0.21211078476E+03  0.21508658045E+03  0.41800000000E+01 0. -1.
         -5    1    3    3    0  502  0.38477908339E+02 -0.24665246492E+02 -0.12362491681E+02  0.47531330880E+02  0.41800000000E+01 0. -1.
        -11    1    4    4    0    0  0.14655986176E+02  0.68254448344E+02 -0.22248308710E+03  0.23317845462E+03  0.00000000000E+00 0.  1.
         11    1    4    4    0    0 -0.30399200131E+02 -0.16443053852E+02 -0.16574336685E+03  0.16930844351E+03  0.00000000000E+00 0. -1.
</event>
<event>
 8    1  0.6493926E-009  0.9368523E+02  0.7561462E-02  0.1294165E+00
         -1   -1    0    0    0  501 -0.00000000000E+00  0.00000000000E+00  0.49256322828E+02  0.49256322828E+02  0.00000000000E+00 0.  1.
          1   -1    0    0  501    0  0.00000000000E+00 -0.00000000000E+00 -0.24832598067E+03  0.24832598067E+03  0.00000000000E+00 0. -1.
         25    2    1    2    0    0 -0.79948033527E+01  0.18576628660E+02 -0.10577326067E+03  0.16506091269E+03  0.12509242269E+03 0.  0.
         23    2    1    2    0    0  0.79948033527E+01 -0.18576628660E+02 -0.93296397170E+02  0.13252139080E+03  0.91916773666E+02 0.  0.
          5    1    3    3  502    0 -0.61603897978E+02 -0.49328178533E+01 -0.79445512694E+02  0.10073944027E+03  0.41800000000E+01 0.  1.
         -5    1    3    3    0  502  0.53609094626E+02  0.23509446514E+02 -0.26327747973E+02  0.64321472428E+02  0.41800000000E+01 0.  1.
        -11    1    4    4    0    0  0.34570921537E+02 -0.45264029496E+00 -0.94196381651E+02  0.10034097775E+03  0.00000000000E+00 0. -1.
         11    1    4    4    0    0 -0.26576118185E+02 -0.18123988365E+02  0.89998448152E+00  0.32180413051E+02  0.00000000000E+00 0.  1.
</event>
<event>
 8    1  0.6493926E-009  0.6949881E+02  0.7561462E-02  0.1361806E+00
          4   -1    0    0  501    0  0.00000000000E+00  0.00000000000E+00  0.38452443940E+02  0.38452443940E+02  0.00000000000E+00 0.  1.
         -4   -1    0    0    0  501 -0.00000000000E+00 -0.00000000000E+00 -0.34363337163E+03  0.34363337163E+03  0.00000000000E+00 0. -1.
         25    2    1    2    0    0 -0.16067610767E+02  0.34090054591E+02 -0.19721940734E+03  0.23656667432E+03  0.12509195349E+03 0.  0.
         23    2    1    2    0    0  0.16067610767E+02 -0.34090054591E+02 -0.10796152035E+03  0.14551914125E+03  0.89999059198E+02 0.  0.
          5    1    3    3  502    0  0.81733828036E+00  0.19204808045E+02 -0.20961239085E+03  0.21053341656E+03  0.41800000000E+01 0. -1.
         -5    1    3    3    0  502 -0.16884949047E+02  0.14885246546E+02  0.12392983507E+02  0.26033257753E+02  0.41800000000E+01 0. -1.
        -11    1    4    4    0    0  0.51692276070E+02 -0.31893877549E+02 -0.56962046201E+02  0.83270556248E+02  0.00000000000E+00 0.  1.
         11    1    4    4    0    0 -0.35624665303E+02 -0.21961770422E+01 -0.50999474151E+02  0.62248585006E+02  0.00000000000E+00 0. -1.
</event>
<event>
 8    1  0.6493926E-009  0.1680690E+03  0.7561462E-02  0.1179877E+00
         -3   -1    0    0    0  501 -0.00000000000E+00  0.00000000000E+00  0.10177315109E+03  0.10177315109E+03  0.00000000000E+00 0.  1.
          3   -1    0    0  501    0  0.00000000000E+00 -0.00000000000E+00 -0.42560141350E+03  0.42560141350E+03  0.00000000000E+00 0. -1.
         25    2    1    2    0    0  0.14442620998E+03 -0.18131931352E+02 -0.40470951400E+02  0.19615232004E+03  0.12510051034E+03 0.  0.
         23    2    1    2    0    0 -0.14442620998E+03  0.18131931352E+02 -0.28335731101E+03  0.33122224455E+03  0.90714455965E+02 0.  0.
          5    1    3    3  502    0 -0.21223020519E+02 -0.11889193021E+02 -0.13563089641E+02  0.28163794333E+02  0.41800000000E+01 0. -1.
         -5    1    3    3    0  502  0.16564923050E+03 -0.62427383310E+01 -0.26907861759E+02  0.16798852571E+03  0.41800000000E+01 0. -1.
        -11    1    4    4    0    0 -0.70409124093E+02  0.64758031899E+01 -0.22616556905E+03  0.23696043004E+03  0.00000000000E+00 0. -1.
         11    1    4    4    0    0 -0.74017085884E+02  0.11656128162E+02 -0.57191741964E+02  0.94261814514E+02  0.00000000000E+00 0.  1.
</event>
<event>
 8    1  0.6493926E-009  0.1486648E+03  0.7561462E-02  0.1202123E+00
          2   -1    0    0  501    0  0.00000000000E+00  0.00000000000E+00  0.35834605886E+03  0.35834605886E+03  0.00000000000E+00 0. -1.
         -2   -1    0    0    0  501 -0.00000000000E+00 -0.00000000000E+00 -0.87122776280E+02  0.87122776280E+02  0.00000000000E+00 0.  1.
         25    2    1    2    0    0  0.97289712285E+02  0.88885329060E+02  0.20835209934E+03  0.27644933450E+03  0.12509095655E+03 0.  0.
         23    2    1    2    0    0 -0.97289712285E+02 -0.88885329060E+02  0.62871183240E+02  0.16901950064E+03  0.85140566562E+02 0.  0.
          5    1    3    3  502    0  0.41690065591E+02  0.10000086389E+03  0.76013425844E+02  0.13241505827E+03  0.41800000000E+01 0.  1.
         -5    1    3    3    0  502  0.55599646694E+02 -0.11115534835E+02  0.13233867349E+03  0.14403427623E+03  0.41800000000E+01 0.  1.
        -11    1    4    4    0    0 -0.62581020368E+02 -0.62572762479E+02 -0.47061235904E+01  0.88622132189E+02  0.00000000000E+00 0.  1.
         11    1    4    4    0    0 -0.34708691917E+02 -0.26312566581E+02  0.67577306830E+02  0.80397368447E+02  0.00000000000E+00 0. -1.
</event>
<event>
 8    1  0.6493926E-009  0.6979159E+02  0.7561462E-02  0.1360803E+00
          2   -1    0    0  501    0  0.00000000000E+00  0.00000000000E+00  0.21786986953E+03  0.21786986953E+03  0.00000000000E+00 0. -1.
         -2   -1    0    0    0  501 -0.00000000000E+00 -0.00000000000E+00 -0.72668817972E+02  0.72668817972E+02  0.00000000000E+00 0.  1.
         25    2    1    2    0    0 -0.17659640432E+02  0.28660437751E+02  0.15676456610E+03  0.20336244701E+03  0.12509145485E+03 0.  0.
         23    2    1    2    0    0  0.17659640432E+02 -0.28660437751E+02 -0.11563514542E+02  0.87176240494E+02  0.79578253598E+02 0.  0.
          5    1    3    3  502    0 -0.36177770648E+02  0.26997545862E+02 -0.11051404648E+00  0.45334128259E+02  0.41800000000E+01 0.  1.
         -5    1    3    3    0  502  0.18518130215E+02  0.16628918891E+01  0.15687508015E+03  0.15802831875E+03  0.41800000000E+01 0.  1.
        -11    1    4    4    0    0  0.43551476476E+02 -0.19630161285E+02  0.13903242638E+02  0.49753135491E+02  0.00000000000E+00 0. -1.
         11    1    4    4    0    0 -0.25891836043E+02 -0.90302764664E+01 -0.25466757180E+02  0.37423105003E+02  0.00000000000E+00 0.  1.
</event>
<event>
 8    1  0.6493926E-009  0.7991626E+02  0.7561462E-02  0.1329289E+00
          1   -1    0    0  501    0  0.00000000000E+00  0.00000000000E+00  0.25106123806E+02  0.25106123806E+02  0.00000000000E+00 0. -1.
         -1   -1    0    0    0  501 -0.00000000000E+00 -0.00000000000E+00 -0.51946650368E+03  0.51946650368E+03  0.00000000000E+00 0.  1.
         25    2    1    2    0    0  0.99910317499E+01 -0.34742453068E+02 -0.28891093087E+03  0.31689717651E+03  0.12508971079E+03 0.  0.
         23    2    1    2    0    0 -0.99910317499E+01  0.34742453068E+02 -0.20544944901E+03  0.22767545098E+03  0.91212806768E+02 0.  0.
          5    1    3    3  502    0  0.55816256388E+01  0.12564032405E+02 -0.26148393045E+03  0.26187845986E+03  0.41800000000E+01 0. -1.
         -5    1    3    3    0  502  0.44094061110E+01 -0.47306485473E+02 -0.27427000415E+02  0.55018716650E+02  0.41800000000E+01 0. -1.
        -11    1    4    4    0    0 -0.47320029266E+02  0.37442104978E+02 -0.13593808382E+03  0.14872881035E+03  0.00000000000E+00 0.  1.
         11    1    4    4    0    0  0.37328997516E+02 -0.26996519106E+01 -0.69511365188E+02  0.78946640627E+02  0.00000000000E+00 0. -1.
</event>
<event>
 8    1  0.6493926E-009  0.1364819E+03  0.7561462E-02  0.1218143E+00
         -1   -1    0    0    0  501 -0.00000000000E+00  0.00000000000E+00  0.96414376696E+02  0.96414376696E+02  0.00000000000E+00 0.  1.
          1   -1    0    0  501    0  0.00000000000E+00 -0.00000000000E+00 -0.39273905971E+03  0.39273905971E+03  0.00000000000E+00 0. -1.
         25    2    1    2    0    0 -0.34622485339E+02 -0.13006507565E+03 -0.26686144904E+03  0.32399908480E+03  0.12507890937E+03 0.  0.
         23    2    1    2    0    0  0.34622485339E+02  0.13006507565E+03 -0.29463233974E+02  0.16515435161E+03  0.91061722511E+02 0.  0.
          5    1    3    3  502    0 -0.24333732567E+02 -0.83970850919E+02 -0.26212299533E+03  0.27634972666E+03  0.41800000000E+01 0.  1.
         -5    1    3    3    0  502 -0.10288752772E+02 -0.46094224727E+02 -0.47384537084E+01  0.47649358131E+02  0.41800000000E+01 0.  1.
        -11    1    4    4    0    0  0.40314700410E+02  0.11769543976E+03 -0.55147760840E+02  0.13608367696E+03  0.00000000000E+00 0. -1.
         11    1    4    4    0    0 -0.56922150713E+01  0.12369635884E+02  0.25684526866E+02  0.29070674651E+02  0.00000000000E+00 0.  1.
</event>
<event>
 8    1  0.6493926E-009  0.6900370E+02  0.7561462E-02  0.1363514E+00
         -1   -1    0    0    0  501 -0.00000000000E+00  0.00000000000E+00  0.28344525412E+02  0.28344525412E+02  0.00000000000E+00 0.  1.
          1   -1    0    0  501    0  0.00000000000E+00 -0.00000000000E+00 -0.53942806347E+03  0.53942806347E+03  0.00000000000E+00 0. -1.
         25    2    1    2    0    0 -0.11849694740E+00 -0.59282962303E+02 -0.27900637660E+03  0.31145947284E+03  0.12509181179E+03 0.  0.
         23    2    1    2    0    0  0.11849694740E+00  0.59282962303E+02 -0.23207716146E+03  0.25631311605E+03  0.91225659358E+02 0.  0.
          5    1    3    3  502    0 -0.17023042008E+02 -0.24824813658E+02 -0.27014286710E+03  0.27184682521E+03  0.41800000000E+01 0.  1.
         -5    1    3    3    0  502  0.16904545060E+02 -0.34458148645E+02 -0.88635095077E+01  0.39612647634E+02  0.41800000000E+01 0.  1.
        -11    1    4    4    0    0  0.14416911307E+02  0.49818166843E+02 -0.23342123905E+03  0.23911330352E+03  0.00000000000E+00 0. -1.
         11    1    4    4    0    0 -0.14298414360E+02  0.94647954600E+01  0.13440775953E+01  0.17199812525E+02  0.00000000000E+00 0.  1.
</event>
<event>
 8    1  0.6493926E-009  0.1962700E+03  0.7561462E-02  0.1152925E+00
          2   -1    0    0  501    0  0.00000000000E+00  0.00000000000E+00  0.76631812929E+03  0.76631812929E+03  0.00000000000E+00 0. -1.
         -2   -1    0    0    0  501 -0.00000000000E+00 -0.00000000000E+00 -0.59515566766E+02  0.59515566766E+02  0.00000000000E+00 0.  1.
         25    2    1    2    0    0  0.10328719800E+03  0.13337462576E+03  0.22788170924E+03  0.30989493612E+03  0.12509101470E+03 0.  0.
         23    2    1    2    0    0 -0.10328719800E+03 -0.13337462576E+03  0.47892085328E+03  0.51593875993E+03  0.91490896957E+02 0.  0.
          5    1    3    3  502    0  0.92442681322E+02  0.15630111856E+03  0.18098031961E+03  0.25641185128E+03  0.41800000000E+01 0. -1.
         -5    1    3    3    0  502  0.10844516680E+02 -0.22926492799E+02  0.46901389634E+02  0.53483084837E+02  0.41800000000E+01 0. -1.
        -11    1    4    4    0    0 -0.61313884206E+02 -0.20307692941E+02  0.23667795918E+03  0.24533293939E+03  0.00000000000E+00 0. -1.
         11    1    4    4    0    0 -0.41973313797E+02 -0.11306693282E+03  0.24224289410E+03  0.27060582054E+03  0.00000000000E+00 0.  1.
</event>
<event>
 8    1  0.6493926E-009  0.2246724E+03  0.7561462E-02  0.1130447E+00
         -2   -1    0    0    0  501 -0.00000000000E+00  0.00000000000E+00  0.67639960123E+02  0.67639960123E+02  0.00000000000E+00 0.  1.
          2   -1    0    0  501    0  0.00000000000E+00 -0.00000000000E+00 -0.78365546031E+03  0.78365546031E+03  0.00000000000E+00 0. -1.
         25    2    1    2    0    0  0.17032193197E+03 -0.99016444035E+02 -0.45575676198E+03  0.51203123180E+03  0.12509172454E+03 0.  0.
         23    2    1    2    0    0 -0.17032193197E+03  0.99016444035E+02 -0.26025873820E+03  0.33926418863E+03  0.92475738295E+02 0.  0.
          5    1    3    3  502    0  0.14269623420E+03 -0.12895443153E+03 -0.37197591576E+03  0.41877800201E+03  0.41800000000E+01 0. -1.
         -5    1    3    3    0  502  0.27625697779E+02  0.29937987490E+02 -0.83780846219E+02  0.93253229788E+02  0.41800000000E+01 0. -1.
        -11    1    4    4    0    0 -0.97444496397E+02  0.56943474168E+01 -0.13834526412E+03  0.16931410920E+03  0.00000000000E+00 0. -1.
         11    1    4    4    0    0 -0.72877435578E+02  0.93322096618E+02 -0.12191347408E+03  0.16995007942E+03  0.00000000000E+00 0.  1.
</event>
<event>
 8    1  0.6493926E-009  0.7859848E+02  0.7561462E-02  0.1333076E+00
         -1   -1    0    0    0  501 -0.00000000000E+00  0.00000000000E+00  0.35103096885E+02  0.35103096885E+02  0.00000000000E+00 0.  1.
          1   -1    0    0  501    0  0.00000000000E+00 -0.00000000000E+00 -0.40084082265E+03  0.40084082265E+03  0.00000000000E+00 0. -1.
         25    2    1    2    0    0  0.33344023407E+02 -0.13397153114E+02 -0.26256258784E+03  0.29304857086E+03  0.12508814787E+03 0.  0.
         23    2    1    2    0    0 -0.33344023407E+02  0.13397153114E+02 -0.10317513792E+03  0.14289534868E+03  0.92101378816E+02 0.  0.
          5    1    3    3  502    0  0.46233095428E+02  0.34122977084E+01 -0.21938668369E+02  0.51457948446E+02  0.41800000000E+01 0. -1.
         -5    1    3    3    0  502 -0.12889072020E+02 -0.16809450823E+02 -0.24062391947E+03  0.24159062241E+03  0.41800000000E+01 0. -1.
        -11    1    4    4    0    0 -0.51796332197E+02 -0.16122050449E+02 -0.30308494082E+02  0.62140046293E+02  0.00000000000E+00 0.  1.
         11    1    4    4    0    0  0.18452308789E+02  0.29519203563E+02 -0.72866643842E+02  0.80755302386E+02  0.00000000000E+00 0. -1.
</event>
<event>
 8    1  0.6493926E-009  0.1094773E+03  0.7561462E-02  0.1261541E+00
          1   -1    0    0  501    0  0.00000000000E+00  0.00000000000E+00  0.23600402757E+03  0.23600402757E+03  0.00000000000E+00 0. -1.
         -1   -1    0    0    0  501 -0.00000000000E+00 -0.00000000000E+00 -0.85120263623E+02  0.85120263623E+02  0.00000000000E+00 0.  1.
         25    2    1    2    0    0 -0.47422413859E+02  0.23855535764E+02  0.16611740971E+03  0.21461711752E+03  0.12509013312E+03 0.  0.
         23    2    1    2    0    0  0.47422413859E+02 -0.23855535764E+02 -0.15233645759E+02  0.10650717367E+03  0.91069984945E+02 0.  0.
          5    1    3    3  502    0 -0.82223725795E+02  0.18991754288E-01  0.14618857811E+03  0.16777757364E+03  0.41800000000E+01 0. -1.
         -5    1    3    3    0  502  0.34801311936E+02  0.23836544010E+02  0.19928831596E+02  0.46839543888E+02  0.41800000000E+01 0. -1.
        -11    1    4    4    0    0  0.50127210781E+02 -0.48318953629E+02 -0.32102927045E+02  0.76668484173E+02  0.00000000000E+00 0.  1.
         11    1    4    4    0    0 -0.27047969228E+01  0.24463417865E+02  0.16869281285E+02  0.29838689500E+02  0.00000000000E+00 0. -1.
</event>
<event>
 8    1  0.6493926E-009  0.1352444E+03  0.7561462E-02  0.1219875E+00
         -1   -1    0    0    0  501 -0.00000000000E+00  0.00000000000E+00  0.17053511499E+03  0.17053511499E+03  0.00000000000E+00 0.  1.
          1   -1    0    0  501    0  0.00000000000E+00 -0.00000000000E+00 -0.12272840431E+03  0.12272840431E+03  0.00000000000E+00 0. -1.
         25    2    1    2    0    0 -0.57569412050E+02  0.75229069204E+02  0.23327188667E+02  0.15862437116E+03  0.12507551054E+03 0.  0.
         23    2    1    2    0    0  0.57569412050E+02 -0.75229069204E+02  0.24479522011E+02  0.13463914815E+03  0.92492178909E+02 0.  0.
          5    1    3    3  502    0 -0.34553589619E+02  0.10451331557E+03  0.40541441909E+02  0.11738000085E+03  0.41800000000E+01 0. -1.
         -5    1    3    3    0  502 -0.23015822431E+02 -0.29284246368E+02 -0.17214253242E+02  0.41244370309E+02  0.41800000000E+01 0. -1.
        -11    1    4    4    0    0  0.74930035544E+02 -0.43386775860E+02  0.39768395651E+02  0.95280889159E+02  0.00000000000E+00 0.  1.
         11    1    4    4    0    0 -0.17360623495E+02 -0.31842293344E+02 -0.15288873640E+02  0.39358258990E+02  0.00000000000E+00 0. -1.
</event>
<event>
 8    1  0.6493926E-009  0.2280902E+03  0.7561462E-02  0.1127991E+00
         -2   -1    0    0    0  501 -0.00000000000E+00  0.00000000000E+00  0.25573768432E+02  0.25573768432E+02  0.00000000000E+00 0.  1.
          2   -1    0    0  501    0  0.00000000000E+00 -0.00000000000E+00 -0.32980581827E+04  0.32980581827E+04  0.00000000000E+00 0. -1.
         25    2    1    2    0    0 -0.67241977748E+01  0.20632362440E+03 -0.26580360181E+04  0.26689730727E+04  0.12508851435E+03 0.  0.
         23    2    1    2    0    0  0.67241977748E+01 -0.20632362440E+03 -0.61444839617E+03  0.65465887844E+03  0.91742916598E+02 0.  0.
          5    1    3    3  502    0 -0.56349475160E+02  0.15090509911E+03 -0.15248770955E+04  0.15333672884E+04  0.41800000000E+01 0. -1.
         -5    1    3    3    0  502  0.49625277385E+02  0.55418525288E+02 -0.11331589226E+04  0.11356057843E+04  0.41800000000E+01 0. -1.
        -11    1    4    4    0    0 -0.34890017244E+02 -0.11503870529E+03 -0.40427258704E+03  0.42176716521E+03  0.00000000000E+00 0. -1.
         11    1    4    4    0    0  0.41614215019E+02 -0.91284919103E+02 -0.21017580913E+03  0.23289171323E+03  0.00000000000E+00 0.  1.
</event>
<event>
 8    1  0.6493926E-009  0.1053113E+03  0.7561462E-02  0.1269507E+00
          2   -1    0    0  501    0  0.00000000000E+00  0.00000000000E+00  0.51494539965E+03  0.51494539965E+03  0.00000000000E+00 0. -1.
         -2   -1    0    0    0  501 -0.00000000000E+00 -0.00000000000E+00 -0.24670520602E+02  0.24670520602E+02  0.00000000000E+00 0.  1.
         25    2    1    2    0    0  0.19920125381E+02  0.15141344071E+02  0.22904879206E+03  0.26217783057E+03  0.12509114278E+03 0.  0.
         23    2    1    2    0    0 -0.19920125381E+02 -0.15141344071E+02  0.26122608698E+03  0.27743808968E+03  0.90037511005E+02 0.  0.
          5    1    3    3  502    0 -0.49571945873E+02  0.25694824420E+02  0.11925299458E+03  0.13174350434E+03  0.41800000000E+01 0.  1.
         -5    1    3    3    0  502  0.69492071253E+02 -0.10553480349E+02  0.10979579748E+03  0.13043432623E+03  0.41800000000E+01 0.  1.
        -11    1    4    4    0    0 -0.16085438482E+01 -0.47237811762E+02  0.83851971195E+02  0.96255656180E+02  0.00000000000E+00 0.  1.
         11    1    4    4    0    0 -0.18311581533E+02  0.32096467691E+02  0.17737411579E+03  0.18118243350E+03  0.00000000000E+00 0. -1.
</event>
<event>
 7    1  0.6493926E-009  0.9625215E+02  0.7561462E-02  0.1288381E+00
          1   -1    0    0  501    0  0.00000000000E+00  0.00000000000E+00  0.78103334178E+03  0.78103334178E+03  0.00000000000E+00 0. -1.
         -1   -1    0    0    0  501 -0.00000000000E+00 -0.00000000000E+00 -0.14174467194E+02  0.14174467194E+02  0.00000000000E+00 0.  1.
         25    2    1    2    0    0  0.33297378443E+02 -0.42825301296E+02  0.55626801970E+03  0.57273411361E+03  0.12509010079E+03 0.  0.
          5    1    3    3  502    0  0.53347011937E+02 -0.78139715216E+02  0.35864240949E+03  0.37093607139E+03  0.41800000000E+01 0. -1.
         -5    1    3    3    0  502 -0.20049633494E+02  0.35314413920E+02  0.19762561021E+03  0.20179804222E+03  0.41800000000E+01 0. -1.
        -11    1    1    2    0    0 -0.21985656006E+02  0.14140976107E+02  0.32379384835E+02  0.41614430640E+02  0.00000000000E+00 0.  1.
         11    1    1    2    0    0 -0.11311722437E+02  0.28684325189E+02  0.17821147005E+03  0.18085926472E+03  0.00000000000E+00 0. -1.
</event>
<event>
 8    1  0.6493926E-009  0.1103586E+03  0.7561462E-02  0.1259907E+00
          1   -1    0    0  501    0  0.00000000000E+00  0.00000000000E+00  0.10705380938E+04  0.10705380938E+04  0.00000000000E+00 0. -1.
         -1   -1    0    0    0  501 -0.00000000000E+00 -0.00000000000E+00 -0.15331980578E+02  0.15331980578E+02  0.00000000000E+00 0.  1.
         25    2    1    2    0    0  0.30219189902E+02  0.56731237407E+02  0.65629388909E+03  0.67119276303E+03  0.12508566487E+03 0.  0.
         23    2    1    2    0    0 -0.30219189902E+02 -0.56731237407E+02  0.39891222410E+03  0.41467731131E+03  0.93245253196E+02 0.  0.
          5    1    3    3  502    0  0.27097749726E+02 -0.17963654582E+02  0.46919803415E+02  0.57235664395E+02  0.41800000000E+01 0. -1.
         -5    1    3    3    0  502  0.31214401756E+01  0.74694891989E+02  0.60937408567E+03  0.61395709864E+03  0.41800000000E+01 0. -1.
        -11    1    4    4    0    0 -0.10535064479E+01 -0.77341322523E+02  0.26143892098E+03  0.27264097170E+03  0.00000000000E+00 0. -1.
         11    1    4    4    0    0 -0.29165683454E+02  0.20610085116E+02  0.13747330312E+03  0.14203633961E+03  0.00000000000E+00 0.  1.
</event>
<event>
 8    1  0.6493926E-009  0.8191028E+02  0.7561462E-02  0.1323716E+00
         -2   -1    0    0    0  501 -0.00000000000E+00  0.00000000000E+00  0.36633484251E+03  0.36633484251E+03  0.00000000000E+00 0. -1.
          2   -1    0    0  501    0  0.00000000000E+00 -0.00000000000E+00 -0.42600927923E+02  0.42600927923E+02  0.00000000000E+00 0.  1.
         25    2    1    2    0    0  0.16787937376E+02  0.32661580207E+02  0.26906740785E+03  0.29898645450E+03  0.12508803437E+03 0.  0.
         23    2    1    2    0    0 -0.16787937376E+02 -0.32661580207E+02  0.54666506733E+02  0.10994931593E+03  0.88044372067E+02 0.  0.
          5    1    3    3  502    0  0.50381408055E+01  0.48705851934E+02  0.27375545664E+03  0.27813156116E+03  0.41800000000E+01 0. -1.
         -5    1    3    3    0  502  0.11749796571E+02 -0.16044271726E+02 -0.46880487850E+01  0.20854893337E+02  0.41800000000E+01 0. -1.
        -11    1    4    4    0    0 -0.15327709120E+02 -0.62565686943E+02  0.44653999893E+02  0.78379739448E+02  0.00000000000E+00 0. -1.
         11    1    4    4    0    0 -0.14602282561E+01  0.29904106736E+02  0.10012506840E+02  0.31569576485E+02  0.00000000000E+00 0.  1.
</event>
<event>
 8    1  0.6493926E-009  0.1026188E+03  0.7561462E-02  0.1274883E+00
         -1   -1    0    0    0  501 -0.00000000000E+00  0.00000000000E+00  0.34499084011E+03  0.34499084011E+03  0.00000000000E+00 0.  1.
          1   -1    0    0  501    0  0.00000000000E+00 -0.00000000000E+00 -0.41580758218E+02  0.41580758218E+02  0.00000000000E+00 0. -1.
         25    2    1    2    0    0 -0.99153678932E+01  0.67537049147E+01  0.25175488518E+03  0.28137463064E+03  0.12508890241E+03 0.  0.
         23    2    1    2    0    0  0.99153678932E+01 -0.67537049147E+01  0.51655196708E+02  0.10519696768E+03  0.90852713841E+02 0.  0.
          5    1    3    3  502    0  0.52966824694E+02  0.52482606304E+01  0.16969942125E+03  0.17789995708E+03  0.41800000000E+01 0. -1.
         -5    1    3    3    0  502 -0.62882192587E+02  0.15054442844E+01  0.82055463933E+02  0.10347467356E+03  0.41800000000E+01 0. -1.
        -11    1    4    4    0    0 -0.22907790485E+02 -0.37428978005E+02  0.38518639586E+02  0.58389903707E+02  0.00000000000E+00 0.  1.
         11    1    4    4    0    0  0.32823158378E+02  0.30675273090E+02  0.13136557122E+02  0.46807063976E+02  0.00000000000E+00 0. -1.
</event>
<event>
 8    1  0.6493926E-009  0.1458643E+03  0.7561462E-02  0.1205649E+00
          2   -1    0    0  501    0  0.00000000000E+00  0.00000000000E+00  0.10456496819E+04  0.10456496819E+04  0.00000000000E+00 0. -1.
         -2   -1    0    0    0  501 -0.00000000000E+00 -0.00000000000E+00 -0.21288995901E+02  0.21288995901E+02  0.00000000000E+00 0.  1.
         25    2    1    2    0    0  0.75960272589E+02 -0.68266077988E+02  0.56132854193E+03  0.58409547615E+03  0.12509025888E+03 0.  0.
         23    2    1    2    0    0 -0.75960272589E+02  0.68266077988E+02  0.46303214410E+03  0.48284320167E+03  0.91151360479E+02 0.  0.
          5    1    3    3  502    0 -0.71325102931E+01 -0.71406746883E+02  0.34253532913E+03  0.34999674328E+03  0.41800000000E+01 0. -1.
         -5    1    3    3    0  502  0.83092782883E+02  0.31406688956E+01  0.21879321279E+03  0.23409873287E+03  0.41800000000E+01 0. -1.
        -11    1    4    4    0    0  0.10314302342E+01  0.59035714747E+02  0.21617885554E+03  0.22409724908E+03  0.00000000000E+00 0. -1.
         11    1    4    4    0    0 -0.76991702824E+02  0.92303632404E+01  0.24685328856E+03  0.25874595259E+03  0.00000000000E+00 0.  1.
</event>
<event>
 8    1  0.6493926E-009  0.1285770E+03  0.7561462E-02  0.1229583E+00
         -2   -1    0    0    0  501 -0.00000000000E+00  0.00000000000E+00  0.27597168807E+03  0.27597168807E+03  0.00000000000E+00 0.  1.
          2   -1    0    0  501    0  0.00000000000E+00 -0.00000000000E+00 -0.72369054083E+02  0.72369054083E+02  0.00000000000E+00 0. -1.
         25    2    1    2    0    0  0.67337692279E+02  0.55284314571E+02  0.13910452904E+03  0.20637461530E+03  0.12509872742E+03 0.  0.
         23    2    1    2    0    0 -0.67337692279E+02 -0.55284314571E+02  0.64498104945E+02  0.14196612685E+03  0.91671453534E+02 0.  0.
          5    1    3    3  502    0  0.82966794334E+02  0.10512967702E+02  0.13464901463E+03  0.15856178920E+03  0.41800000000E+01 0. -1.
         -5    1    3    3    0  502 -0.15629102055E+02  0.44771346869E+02  0.44555144124E+01  0.47812826106E+02  0.41800000000E+01 0. -1.
        -11    1    4    4    0    0  0.20500146751E+02  0.25328423280E+01  0.16178122427E+02  0.26237434180E+02  0.00000000000E+00 0. -1.
         11    1    4    4    0    0 -0.87837839030E+02 -0.57817156899E+02  0.48319982518E+02  0.11572869267E+03  0.00000000000E+00 0.  1.
</event>
<event>
 8    1  0.6493926E-009  0.1239499E+03  0.7561462E-02  0.1236720E+00
          2   -1    0    0  501    0  0.00000000000E+00  0.00000000000E+00  0.17529333016E+02  0.17529333016E+02  0.00000000000E+00 0. -1.
         -2   -1    0    0    0  501 -0.00000000000E+00 -0.00000000000E+00 -0.98707767177E+03  0.98707767177E+03  0.00000000000E+00 0.  1.
         25    2    1    2    0    0 -0.16689526456E+02  0.59337362627E+02 -0.70337961287E+03  0.71707016492E+03  0.12508908313E+03 0.  0.
         23    2    1    2    0    0  0.16689526456E+02 -0.59337362627E+02 -0.26616872588E+03  0.28753683986E+03  0.89622434391E+02 0.  0.
          5    1    3    3  502    0  0.49906102835E+02  0.52082671094E+02 -0.37655891147E+03  0.38342836350E+03  0.41800000000E+01 0.  1.
         -5    1    3    3    0  502 -0.66595629291E+02  0.72546915329E+01 -0.32682070140E+03  0.33364180142E+03  0.41800000000E+01 0.  1.
        -11    1    4    4    0    0  0.13844187245E+01  0.23876095414E+02 -0.67045941123E+02  0.71183865928E+02  0.00000000000E+00 0. -1.
         11    1    4    4    0    0  0.15305107731E+02 -0.83213458041E+02 -0.19912278475E+03  0.21635297393E+03  0.00000000000E+00 0.  1.
</event>
<event>
 8    1  0.6493926E-009  0.1061402E+03  0.7561462E-02  0.1267889E+00
         -2   -1    0    0    0  501 -0.00000000000E+00  0.00000000000E+00  0.11561288376E+03  0.11561288376E+03  0.00000000000E+00 0.  1.
          2   -1    0    0  501    0  0.00000000000E+00 -0.00000000000E+00 -0.17643711327E+03  0.17643711327E+03  0.00000000000E+00 0. -1.
         25    2    1    2    0    0 -0.60822840088E+01  0.63613562900E+02 -0.10169682543E+03  0.17341759143E+03  0.12509091555E+03 0.  0.
         23    2    1    2    0    0  0.60822840088E+01 -0.63613562900E+02  0.40872595922E+02  0.11863240560E+03  0.91210739482E+02 0.  0.
          5    1    3    3  502    0  0.30038194661E+02 -0.24028606678E+02 -0.56087782454E+02  0.68139407232E+02  0.41800000000E+01 0. -1.
         -5    1    3    3    0  502 -0.36120478669E+02  0.87642169578E+02 -0.45609042972E+02  0.10527818420E+03  0.41800000000E+01 0. -1.
        -11    1    4    4    0    0 -0.20119263839E+02 -0.26546759634E+02  0.60590170025E+02  0.69142490034E+02  0.00000000000E+00 0.  1.
         11    1    4    4    0    0  0.26201547847E+02 -0.37066803266E+02 -0.19717574103E+02  0.49489915564E+02  0.00000000000E+00 0. -1.
</event>
<event>
 8    1  0.6493926E-009  0.1453064E+03  0.7561462E-02  0.1206362E+00
          4   -1    0    0  501    0  0.00000000000E+00  0.00000000000E+00  0.16827131792E+03  0.16827131792E+03  0.00000000000E+00 0. -1.
         -4   -1    0    0    0  501 -0.00000000000E+00 -0.00000000000E+00 -0.18300500085E+03  0.18300500085E+03  0.00000000000E+00 0.  1.
         25    2    1    2    0    0 -0.13759599641E+02 -0.10912201536E+03  0.73839958586E+02  0.18220114895E+03  0.12509187974E+03 0.  0.
         23    2    1    2    0    0  0.13759599641E+02  0.10912201536E+03 -0.88573641519E+02  0.16907516982E+03  0.92974094551E+02 0.  0.
          5    1    3    3  502    0  0.37950238210E+02 -0.71956997404E+01  0.53370792368E+02  0.66014487447E+02  0.41800000000E+01 0. -1.
         -5    1    3    3    0  502 -0.51709837851E+02 -0.10192631562E+03  0.20469166218E+02  0.11618666151E+03  0.41800000000E+01 0. -1.
        -11    1    4    4    0    0  0.33656904416E+02  0.83543974278E+01 -0.46668877541E+02  0.58142646157E+02  0.00000000000E+00 0. -1.
         11    1    4    4    0    0 -0.19897304774E+02  0.10076761793E+03 -0.41904763978E+02  0.11093252366E+03  0.00000000000E+00 0.  1.
</event>
<event>
 8    1  0.6493926E-009  0.9693720E+02  0.7561462E-02  0.1286872E+00
          2   -1    0    0  501    0  0.00000000000E+00  0.00000000000E+00  0.13533008396E+03  0.13533008396E+03  0.00000000000E+00 0.  1.
         -2   -1    0    0    0  501 -0.00000000000E+00 -0.00000000000E+00 -0.10128514511E+03  0.10128514511E+03  0.00000000000E+00 0. -1.
         25    2    1    2    0    0 -0.26282752635E+02 -0.37643672220E+02  0.14357345975E+02  0.13401916623E+03  0.12508866611E+03 0.  0.
         23    2    1    2    0    0  0.26282752635E+02  0.37643672220E+02  0.19687592877E+02  0.10259606283E+03  0.89613177890E+02 0.  0.
          5    1    3    3  502    0 -0.64722880092E+02  0.42269134586E+01 -0.19336731946E+02  0.67810763210E+02  0.41800000000E+01 0.  1.
         -5    1    3    3    0  502  0.38440127457E+02 -0.41870585679E+02  0.33694077921E+02  0.66208403024E+02  0.41800000000E+01 0.  1.
        -11    1    4    4    0    0  0.19526266480E+02 -0.11244646779E+02  0.42593637105E+02  0.48186461643E+02  0.00000000000E+00 0. -1.
         11    1    4    4    0    0  0.67564861543E+01  0.48888318999E+02 -0.22906044228E+02  0.54409601192E+02  0.00000000000E+00 0.  1.
</event>
<event>
 8    1  0.6493926E-009  0.1236345E+03  0.7561462E-02  0.1237219E+00
         -1   -1    0    0    0  501 -0.00000000000E+00  0.00000000000E+00  0.22239855138E+02  0.22239855138E+02  0.00000000000E+00 0.  1.
          1   -1    0    0  501    0  0.00000000000E+00 -0.00000000000E+00 -0.75075648033E+03  0.75075648033E+03  0.00000000000E+00 0. -1.
         25    2    1    2    0    0 -0.65117607869E+02 -0.23039401806E+01 -0.49450556948E+03  0.51422742568E+03  0.12509386910E+03 0.  0.
         23    2    1    2    0    0  0.65117607869E+02  0.23039401806E+01 -0.23401105572E+03  0.25876890979E+03  0.89188359552E+02 0.  0.
          5    1    3    3  502    0 -0.10075119604E+03 -0.39099689721E+01 -0.41318052764E+03  0.42532541916E+03  0.41800000000E+01 0. -1.
         -5    1    3    3    0  502  0.35633588172E+02  0.16060287915E+01 -0.81325041835E+02  0.88902006524E+02  0.41800000000E+01 0. -1.
        -11    1    4    4    0    0  0.70277389093E+01  0.40378705631E+02 -0.88752897587E+02  0.97759428255E+02  0.00000000000E+00 0. -1.
         11    1    4    4    0    0  0.58089868960E+02 -0.38074765451E+02 -0.14525815813E+03  0.16100948153E+03  0.00000000000E+00 0.  1.
</event>
<event>
 8    1  0.6493926E-009  0.1085871E+03  0.7561462E-02  0.1263209E+00
          2   -1    0    0  501    0  0.00000000000E+00  0.00000000000E+00  0.68021656059E+02  0.68021656059E+02  0.00000000000E+00 0. -1.
         -2   -1    0    0    0  501 -0.00000000000E+00 -0.00000000000E+00 -0.20787448801E+03  0.20787448801E+03  0.00000000000E+00 0.  1.
         25    2    1    2    0    0 -0.29845840496E+02 -0.26395183034E+02 -0.11227164085E+03  0.17274157323E+03  0.12508896794E+03 0.  0.
         23    2    1    2    0    0  0.29845840496E+02  0.26395183034E+02 -0.27581191107E+02  0.10315457084E+03  0.91064062619E+02 0.  0.
          5    1    3    3  502    0  0.47146374219E+02 -0.23271196920E+02 -0.33574587054E+02  0.62522432006E+02  0.41800000000E+01 0. -1.
         -5    1    3    3    0  502 -0.76992214715E+02 -0.31239861141E+01 -0.78697053792E+02  0.11021914122E+03  0.41800000000E+01 0. -1.
        -11    1    4    4    0    0  0.56509472904E+02  0.18185457980E+02 -0.41050283563E+02  0.72174491272E+02  0.00000000000E+00 0.  1.
         11    1    4    4    0    0 -0.26663632408E+02  0.82097250536E+01  0.13469092456E+02  0.30980079571E+02  0.00000000000E+00 0. -1.
</event>
<event>
 8    1  0.6493926E-009  0.2759663E+03  0.7561462E-02  0.1097913E+00
          1   -1    0    0  501    0  0.00000000000E+00  0.00000000000E+00  0.10446566522E+04  0.10446566522E+04  0.00000000000E+00 0. -1.
         -1   -1    0    0    0  501 -0.00000000000E+00 -0.00000000000E+00 -0.75846581974E+02  0.75846581974E+02  0.00000000000E+00 0.  1.
         25    2    1    2    0    0  0.20061557885E+03  0.15812420046E+03  0.40855903998E+03  0.49781305119E+03  0.12508985384E+03 0.  0.
         23    2    1    2    0    0 -0.20061557885E+03 -0.15812420046E+03  0.56025103020E+03  0.62269018294E+03  0.92800721145E+02 0.  0.
          5    1    3    3  502    0  0.18358785749E+03  0.77726968090E+02  0.25623962582E+03  0.32468785199E+03  0.41800000000E+01 0.  1.
         -5    1    3    3    0  502  0.17027721354E+02  0.80397232375E+02  0.15231941416E+03  0.17312519920E+03  0.41800000000E+01 0.  1.
        -11    1    4    4    0    0 -0.73028150986E+02 -0.11371009046E+03  0.31324120260E+03  0.34114974207E+03  0.00000000000E+00 0.  1.
         11    1    4    4    0    0 -0.12758742786E+03 -0.44414110005E+02  0.24700982760E+03  0.28154044087E+03  0.00000000000E+00 0. -1.
</event>
<event>
 8    1  0.6493926E-009  0.1111865E+03  0.7561462E-02  0.1258388E+00
          2   -1    0    0  501    0  0.00000000000E+00  0.00000000000E+00  0.32394838857E+03  0.32394838857E+03  0.00000000000E+00 0. -1.
         -2   -1    0    0    0  501 -0.00000000000E+00 -0.00000000000E+00 -0.46803621832E+02  0.46803621832E+02  0.00000000000E+00 0.  1.
         25    2    1    2    0    0  0.57322626774E+02 -0.11477500542E+02  0.14869418771E+03  0.20291643573E+03  0.12508997510E+03 0.  0.
         23    2    1    2    0    0 -0.57322626774E+02  0.11477500542E+02  0.12845057903E+03  0.16783557467E+03  0.90838385688E+02 0.  0.
          5    1    3    3  502    0  0.12269087010E+02 -0.53224343506E+02  0.16696343912E+02  0.57267805421E+02  0.41800000000E+01 0. -1.
         -5    1    3    3    0  502  0.45053539764E+02  0.41746842964E+02  0.13199784380E+03  0.14564863031E+03  0.41800000000E+01 0. -1.
        -11    1    4    4    0    0  0.18923711814E+02  0.22046108411E+02  0.21873361588E+02  0.36367316537E+02  0.00000000000E+00 0.  1.
         11    1    4    4    0    0 -0.76246338588E+02 -0.10568607869E+02  0.10657721744E+03  0.13146825814E+03  0.00000000000E+00 0. -1.
</event>
<event>
 8    1  0.6493926E-009  0.1714125E+03  0.7561462E-02  0.1176383E+00
         -1   -1    0    0    0  501 -0.00000000000E+00  0.00000000000E+00  0.61232967085E+02  0.61232967085E+02  0.00000000000E+00 0.  1.
          1   -1    0    0  501    0  0.00000000000E+00 -0.00000000000E+00 -0.57448705211E+03  0.57448705211E+03  0.00000000000E+00 0. -1.
         25    2    1    2    0    0  0.87487527019E+02  0.12353018431E+03 -0.23701049216E+03  0.30779071705E+03  0.12508948114E+03 0.  0.
         23    2    1    2    0    0 -0.87487527019E+02 -0.12353018431E+03 -0.27624359287E+03  0.32792930215E+03  0.91177468620E+02 0.  0.
          5    1    3    3  502    0 -0.24297895815E+02  0.29755493942E+02 -0.10153829438E+03  0.10864287729E+03  0.41800000000E+01 0. -1.
         -5    1    3    3    0  502  0.11178542283E+03  0.93774690366E+02 -0.13547219778E+03  0.19914783976E+03  0.41800000000E+01 0. -1.
        -11    1    4    4    0    0 -0.32055613228E+02 -0.13057795124E+02 -0.13894902089E+03  0.14319531682E+03  0.00000000000E+00 0. -1.
         11    1    4    4    0    0 -0.55431913792E+02 -0.11047238918E+03 -0.13729457198E+03  0.18473398533E+03  0.00000000000E+00 0.  1.
</event>
<event>
 8    1  0.6493926E-009  0.8934444E+02  0.7561462E-02  0.1304447E+00
          2   -1    0    0  501    0  0.00000000000E+00  0.00000000000E+00  0.17849550939E+03  0.17849550939E+03  0.00000000000E+00 0. -1.
         -2   -1    0    0    0  501 -0.00000000000E+00 -0.00000000000E+00 -0.82958771928E+02  0.82958771928E+02  0.00000000000E+00 0.  1.
         25    2    1    2    0    0 -0.88231305606E+01  0.51886778516E+02  0.73364459455E+02  0.15427187106E+03  0.12508949145E+03 0.  0.
         23    2    1    2    0    0  0.88231305606E+01 -0.51886778516E+02  0.22172278008E+02  0.10718241026E+03  0.90699359087E+02 0.  0.
          5    1    3    3  502    0 -0.60852536885E+02  0.26466846988E+02  0.81976014667E+01  0.66994016931E+02  0.41800000000E+01 0. -1.
         -5    1    3    3    0  502  0.52029406324E+02  0.25419931529E+02  0.65166857988E+02  0.87277854130E+02  0.41800000000E+01 0. -1.
        -11    1    4    4    0    0  0.11775581395E+02 -0.33300310770E+02 -0.33337516485E+02  0.48569177674E+02  0.00000000000E+00 0.  1.
         11    1    4    4    0    0 -0.29524508341E+01 -0.18586467746E+02  0.55509794493E+02  0.58613232583E+02  0.00000000000E+00 0. -1.
</event>
<event>
 8    1  0.6493926E-009  0.1181590E+03  0.7561462E-02  0.1246165E+00
          2   -1    0    0  501    0  0.00000000000E+00  0.00000000000E+00  0.24663688172E+03  0.24663688172E+03  0.00000000000E+00 0. -1.
         -2   -1    0    0    0  501 -0.00000000000E+00 -0.00000000000E+00 -0.63053002860E+02  0.63053002860E+02  0.00000000000E+00 0.  1.
         25    2    1    2    0    0 -0.56948698552E+02 -0.20710587927E+02  0.93750333576E+02  0.16765674986E+03  0.12509027944E+03 0.  0.
         23    2    1    2    0    0  0.56948698552E+02  0.20710587927E+02  0.89833545286E+02  0.14203313472E+03  0.91821907955E+02 0.  0.
          5    1    3    3  502    0 -0.91268076674E+02 -0.14793520353E+02  0.34445543995E+02  0.98755647764E+02  0.41800000000E+01 0. -1.
         -5    1    3    3    0  502  0.34319378121E+02 -0.59170675738E+01  0.59304789581E+02  0.68901102100E+02  0.41800000000E+01 0. -1.
        -11    1    4    4    0    0 -0.24660328239E+02  0.73879817069E+00  0.30237337350E+02  0.39025301813E+02  0.00000000000E+00 0. -1.
         11    1    4    4    0    0  0.81609026791E+02  0.19971789756E+02  0.59596207936E+02  0.10300783291E+03  0.00000000000E+00 0.  1.
</event>
<event>
 8    1  0.6493926E-009  0.9271866E+02  0.7561462E-02  0.1296398E+00
         -1   -1    0    0    0  501 -0.00000000000E+00  0.00000000000E+00  0.14607881406E+03  0.14607881406E+03  0.00000000000E+00 0.  1.
          1   -1    0    0  501    0  0.00000000000E+00 -0.00000000000E+00 -0.86516014943E+02  0.86516014943E+02  0.00000000000E+00 0. -1.
         25    2    1    2    0    0  0.92071263353E+01  0.23711060648E+01  0.41993739319E+01  0.12551944715E+03  0.12508838297E+03 0.  0.
         23    2    1    2    0    0 -0.92071263353E+01 -0.23711060648E+01  0.55363425185E+02  0.10707538185E+03  0.91157200651E+02 0.  0.
          5    1    3    3  502    0 -0.50810800311E+02 -0.47716591859E+01  0.30357582009E+02  0.59527819925E+02  0.41800000000E+01 0.  1.
         -5    1    3    3    0  502  0.60017926647E+02  0.71427652507E+01 -0.26158208077E+02  0.65991627228E+02  0.41800000000E+01 0.  1.
        -11    1    4    4    0    0  0.31948380230E+02 -0.53068831976E+01 -0.61902360396E+01  0.32972428343E+02  0.00000000000E+00 0. -1.
         11    1    4    4    0    0 -0.41155506566E+02  0.29357771327E+01  0.61553661224E+02  0.74102953505E+02  0.00000000000E+00 0.  1.
</event>
<event>
 8    1  0.6493926E-009  0.1242430E+03  0.7561462E-02  0.1236257E+00
         -1   -1    0    0    0  501 -0.00000000000E+00  0.00000000000E+00  0.13083390376E+03  0.13083390376E+03  0.00000000000E+00 0.  1.
          1   -1    0    0  501    0  0.00000000000E+00 -0.00000000000E+00 -0.17334439147E+03  0.17334439147E+03  0.00000000000E+00 0. -1.
         25    2    1    2    0    0 -0.28372726054E+02 -0.90080071243E+02 -0.67943822902E+02  0.17081832394E+03  0.12507240265E+03 0.  0.
         23    2    1    2    0    0  0.28372726054E+02  0.90080071243E+02  0.25433335199E+02  0.13335997128E+03  0.90656475679E+02 0.  0.
          5    1    3    3  502    0 -0.71958932594E+02 -0.44652810791E+02 -0.10403189929E+02  0.85426344018E+02  0.41800000000E+01 0. -1.
         -5    1    3    3    0  502  0.43586206540E+02 -0.45427260453E+02 -0.57540632973E+02  0.85391979926E+02  0.41800000000E+01 0. -1.
        -11    1    4    4    0    0 -0.33375328213E+01  0.46951515648E+02 -0.30381700345E+02  0.56023492062E+02  0.00000000000E+00 0. -1.
         11    1    4    4    0    0  0.31710258875E+02  0.43128555596E+02  0.55815035544E+02  0.77336479222E+02  0.00000000000E+00 0.  1.
</event>
<event>
 8    1  0.6493926E-009  0.9560225E+02  0.7561462E-02  0.1289825E+00
         -4   -1    0    0    0  501 -0.00000000000E+00  0.00000000000E+00  0.70114866613E+02  0.70114866613E+02  0.00000000000E+00 0. -1.
          4   -1    0    0  501    0  0.00000000000E+00 -0.00000000000E+00 -0.22271277662E+03  0.22271277662E+03  0.00000000000E+00 0.  1.
         25    2    1    2    0    0 -0.53295120196E+02 -0.35652109464E+02 -0.68144067548E+02  0.15621372024E+03  0.12509064595E+03 0.  0.
         23    2    1    2    0    0  0.53295120196E+02  0.35652109464E+02 -0.84453842459E+02  0.13661392299E+03  0.86136343683E+02 0.  0.
          5    1    3    3  502    0  0.98449191211E+01 -0.15287787715E+02  0.31393924048E+02  0.36519717316E+02  0.41800000000E+01 0.  1.
         -5    1    3    3    0  502 -0.63140039317E+02 -0.20364321749E+02 -0.99537991597E+02  0.11969400293E+03  0.41800000000E+01 0.  1.
        -11    1    4    4    0    0  0.42870292581E+02  0.63341626709E+02 -0.50876472710E+02  0.91860977219E+02  0.00000000000E+00 0. -1.
         11    1    4    4    0    0  0.10424827614E+02 -0.27689517245E+02 -0.33577369749E+02  0.44752945772E+02  0.00000000000E+00 0.  1.
</event>
<event>
 8    1  0.6493926E-009  0.2249964E+03  0.7561462E-02  0.1130212E+00
          2   -1    0    0  501    0  0.00000000000E+00  0.00000000000E+00  0.57140490582E+03  0.57140490582E+03  0.00000000000E+00 0. -1.
         -2   -1    0    0    0  501 -0.00000000000E+00 -0.00000000000E+00 -0.10866731690E+03  0.10866731690E+03  0.00000000000E+00 0.  1.
         25    2    1    2    0    0  0.94623656457E+02 -0.19375172325E+03  0.31883116754E+03  0.40471548385E+03  0.12509173775E+03 0.  0.
         23    2    1    2    0    0 -0.94623656457E+02  0.19375172325E+03  0.14390642138E+03  0.27535673887E+03  0.92838078957E+02 0.  0.
          5    1    3    3  502    0  0.19345391046E+02 -0.67688966864E+02  0.21106480587E+03  0.22253508727E+03  0.41800000000E+01 0. -1.
         -5    1    3    3    0  502  0.75278265411E+02 -0.12606275638E+03  0.10776636166E+03  0.18218039657E+03  0.41800000000E+01 0. -1.
        -11    1    4    4    0    0 -0.80681798419E+02  0.66463172593E+02  0.46193734305E+02  0.11428371273E+03  0.00000000000E+00 0.  1.
         11    1    4    4    0    0 -0.13941858037E+02  0.12728855065E+03  0.97712687076E+02  0.16107302614E+03  0.00000000000E+00 0. -1.
</event>
<event>
 8    1  0.6493926E-009  0.1242122E+03  0.7561462E-02  0.1236306E+00
         -2   -1    0    0    0  501 -0.00000000000E+00  0.00000000000E+00  0.69917251762E+03  0.69917251762E+03  0.00000000000E+00 0.  1.
          2   -1    0    0  501    0  0.00000000000E+00 -0.00000000000E+00 -0.27347150062E+02  0.27347150062E+02  0.00000000000E+00 0. -1.
         25    2    1    2    0    0 -0.77511622687E+02  0.25294768342E+02  0.38099806666E+03  0.40921196930E+03  0.12508809720E+03 0.  0.
         23    2    1    2    0    0  0.77511622687E+02 -0.25294768342E+02  0.29082730089E+03  0.31730769838E+03  0.97240832725E+02 0.  0.
          5    1    3    3  502    0 -0.49285177851E+02  0.62741720733E+02  0.33112764662E+03  0.34062962736E+03  0.41800000000E+01 0. -1.
         -5    1    3    3    0  502 -0.28226444836E+02 -0.37446952391E+02  0.49870420041E+02  0.68582341944E+02  0.41800000000E+01 0. -1.
        -11    1    4    4    0    0 -0.13253041713E+02 -0.27643193200E+02  0.11995979461E+03  0.12381494888E+03  0.00000000000E+00 0.  1.
         11    1    4    4    0    0  0.90764664400E+02  0.23484248581E+01  0.17086750629E+03  0.19349274950E+03  0.00000000000E+00 0. -1.
</event>
<event>
 8    1  0.6493926E-009  0.1468860E+03  0.7561462E-02  0.1204352E+00
         -2   -1    0    0    0  501 -0.00000000000E+00  0.00000000000E+00  0.61503780975E+02  0.61503780975E+02  0.00000000000E+00 0.  1.
          2   -1    0    0  501    0  0.00000000000E+00 -0.00000000000E+00 -0.42439724877E+03  0.42439724877E+03  0.00000000000E+00 0. -1.
         25    2    1    2    0    0  0.97431204848E+02  0.33441897736E+02 -0.11138281754E+03  0.19662026241E+03  0.12506876247E+03 0.  0.
         23    2    1    2    0    0 -0.97431204848E+02 -0.33441897736E+02 -0.25151065025E+03  0.28928076733E+03  0.99068435705E+02 0.  0.
          5    1    3    3  502    0  0.12529455244E+03  0.38417735426E+02 -0.10320485917E+03  0.16686330520E+03  0.41800000000E+01 0. -1.
         -5    1    3    3    0  502 -0.27863347589E+02 -0.49758376892E+01 -0.81779583716E+01  0.29756957215E+02  0.41800000000E+01 0. -1.
        -11    1    4    4    0    0 -0.67250290933E+02  0.22134812957E+02 -0.18210114277E+03  0.19538008541E+03  0.00000000000E+00 0.  1.
         11    1    4    4    0    0 -0.30180913915E+02 -0.55576710694E+02 -0.69409507479E+02  0.93900681918E+02  0.00000000000E+00 0. -1.
</event>
<event>
 8    1  0.6493926E-009  0.1019300E+03  0.7561462E-02  0.1276289E+00
          2   -1    0    0  501    0  0.00000000000E+00  0.00000000000E+00  0.90172856803E+03  0.90172856803E+03  0.00000000000E+00 0. -1.
         -2   -1    0    0    0  501 -0.00000000000E+00 -0.00000000000E+00 -0.20370079744E+02  0.20370079744E+02  0.00000000000E+00 0.  1.
         25    2    1    2    0    0  0.68965357251E+02  0.52140854139E+01  0.62555292318E+03  0.64167553350E+03  0.12509046086E+03 0.  0.
         23    2    1    2    0    0 -0.68965357251E+02 -0.52140854139E+01  0.25580556511E+03  0.28042311428E+03  0.91745455993E+02 0.  0.
          5    1    3    3  502    0  0.76081464620E+02  0.28380952026E+02  0.60251743845E+03  0.60797911455E+03  0.41800000000E+01 0.  1.
         -5    1    3    3    0  502 -0.71161073698E+01 -0.23166866612E+02  0.23035484732E+02  0.33696418943E+02  0.41800000000E+01 0.  1.
        -11    1    4    4    0    0 -0.43071711662E+01 -0.28808137004E+02  0.21462811979E+02  0.36181663577E+02  0.00000000000E+00 0.  1.
         11    1    4    4    0    0 -0.64658186084E+02  0.23594051590E+02  0.23434275313E+03  0.24424145070E+03  0.00000000000E+00 0. -1.
</event>
<event>
 8    1  0.6493926E-009  0.9658888E+02  0.7561462E-02  0.1287637E+00
          2   -1    0    0  501    0  0.00000000000E+00  0.00000000000E+00  0.13095476177E+04  0.13095476177E+04  0.00000000000E+00 0. -1.
         -2   -1    0    0    0  501 -0.00000000000E+00 -0.00000000000E+00 -0.18361836302E+02  0.18361836302E+02  0.00000000000E+00 0.  1.
         25    2    1    2    0    0  0.43948126939E+02  0.59617639310E+02  0.10480036414E+04  0.10580383156E+04  0.12509094316E+03 0.  0.
         23    2    1    2    0    0 -0.43948126939E+02 -0.59617639310E+02  0.24318214001E+03  0.26987113844E+03  0.90593473074E+02 0.  0.
          5    1    3    3  502    0  0.57182098424E+02 -0.54855389927E+00  0.81427523624E+03  0.81629144675E+03  0.41800000000E+01 0.  1.
         -5    1    3    3    0  502 -0.13233971485E+02  0.60166193209E+02  0.23372840518E+03  0.24174686884E+03  0.41800000000E+01 0.  1.
        -11    1    4    4    0    0 -0.15545603942E+02 -0.22772173146E+02  0.60627101186E+01  0.28231084388E+02  0.00000000000E+00 0.  1.
         11    1    4    4    0    0 -0.28402522997E+02 -0.36845466164E+02  0.23711942989E+03  0.24164005405E+03  0.00000000000E+00 0. -1.
</event>
<event>
 8    1  0.6493926E-009  0.1374429E+03  0.7561462E-02  0.1216812E+00
         -2   -1    0    0    0  501 -0.00000000000E+00  0.00000000000E+00  0.19690642997E+03  0.19690642997E+03  0.00000000000E+00 0.  1.
          2   -1    0    0  501    0  0.00000000000E+00 -0.00000000000E+00 -0.13596567652E+03  0.13596567652E+03  0.00000000000E+00 0. -1.
         25    2    1    2    0    0  0.51658068427E+02 -0.11000625823E+03  0.22493879923E+02  0.17585404700E+03  0.12509491728E+03 0.  0.
         23    2    1    2    0    0 -0.51658068427E+02  0.11000625823E+03  0.38446873526E+02  0.15701805950E+03  0.91687382130E+02 0.  0.
          5    1    3    3  502    0  0.28073365295E+02 -0.41107464503E+02  0.72047032645E+02  0.87670889068E+02  0.41800000000E+01 0. -1.
         -5    1    3    3    0  502  0.23584703132E+02 -0.68898793724E+02 -0.49553152722E+02  0.88183157933E+02  0.41800000000E+01 0. -1.
        -11    1    4    4    0    0 -0.77450246161E+02  0.70045325125E+02  0.30565515620E+02  0.10880780738E+03  0.00000000000E+00 0. -1.
         11    1    4    4    0    0  0.25792177734E+02  0.39960933102E+02  0.78813579057E+01  0.48210252116E+02  0.00000000000E+00 0.  1.
</event>
<event>
 8    1  0.6493926E-009  0.9912994E+02  0.7561462E-02  0.1282136E+00
         -2   -1    0    0    0  501 -0.00000000000E+00  0.00000000000E+00  0.22528510136E+02  0.22528510136E+02  0.00000000000E+00 0.  1.
          2   -1    0    0  501    0  0.00000000000E+00 -0.00000000000E+00 -0.66978511551E+03  0.66978511551E+03  0.00000000000E+00 0. -1.
         25    2    1    2    0    0 -0.47808367721E+02 -0.37053216145E+02 -0.38604483803E+03  0.41029153578E+03  0.12509974625E+03 0.  0.
         23    2    1    2    0    0  0.47808367721E+02  0.37053216145E+02 -0.26121176735E+03  0.28202208987E+03  0.87443072475E+02 0.  0.
          5    1    3    3  502    0  0.18235930989E+02  0.28886322519E+02 -0.19041841252E+03  0.19350352202E+03  0.41800000000E+01 0.  1.
         -5    1    3    3    0  502 -0.66044298710E+02 -0.65939538664E+02 -0.19562642551E+03  0.21678801375E+03  0.41800000000E+01 0.  1.
        -11    1    4    4    0    0  0.46353202895E+02  0.15580068452E+02 -0.25496392807E+03  0.25961117574E+03  0.00000000000E+00 0. -1.
         11    1    4    4    0    0  0.14551648259E+01  0.21473147693E+02 -0.62478392739E+01  0.22410914129E+02  0.00000000000E+00 0.  1.
</event>
<event>
 8    1  0.6493926E-009  0.7695167E+02  0.7561462E-02  0.1337932E+00
         -2   -1    0    0    0  501 -0.00000000000E+00  0.00000000000E+00  0.45519929161E+02  0.45519929161E+02  0.00000000000E+00 0.  1.
          2   -1    0    0  501    0  0.00000000000E+00 -0.00000000000E+00 -0.22263921059E+03  0.22263921059E+03  0.00000000000E+00 0. -1.
         25    2    1    2    0    0 -0.17996868026E+02  0.11218582524E+02 -0.12325116203E+03  0.17688513319E+03  0.12509099708E+03 0.  0.
         23    2    1    2    0    0  0.17996868026E+02 -0.11218582524E+02 -0.53868119399E+02  0.91274006553E+02  0.70565048941E+02 0.  0.
          5    1    3    3  502    0 -0.62377633778E+02 -0.36753128673E+01 -0.11236954373E+03  0.12864238757E+03  0.41800000000E+01 0.  1.
         -5    1    3    3    0  502  0.44380765753E+02  0.14893895392E+02 -0.10881618292E+02  0.48242745625E+02  0.41800000000E+01 0.  1.
        -11    1    4    4    0    0 -0.26999590841E+01 -0.21150306949E+02  0.98936848565E+01  0.23505536861E+02  0.00000000000E+00 0.  1.
         11    1    4    4    0    0  0.20696827110E+02  0.99317244250E+01 -0.63761804255E+02  0.67768469692E+02  0.00000000000E+00 0. -1.
</event>
<event>
 8    1  0.6493926E-009  0.1612879E+03  0.7561462E-02  0.1187250E+00
          1   -1    0    0  501    0  0.00000000000E+00  0.00000000000E+00  0.43919369700E+03  0.43919369700E+03  0.00000000000E+00 0. -1.
         -1   -1    0    0    0  501 -0.00000000000E+00 -0.00000000000E+00 -0.81967138686E+02  0.81967138686E+02  0.00000000000E+00 0.  1.
         25    2    1    2    0    0 -0.37842064525E+02  0.11625284872E+03  0.31442836198E+03  0.35980897711E+03  0.12510219224E+03 0.  0.
         23    2    1    2    0    0  0.37842064525E+02 -0.11625284872E+03  0.42798196331E+02  0.16135185858E+03  0.96208055659E+02 0.  0.
          5    1    3    3  502    0 -0.76660123245E+01  0.13661634075E+03  0.26510347220E+03  0.29836238985E+03  0.41800000000E+01 0.  1.
         -5    1    3    3    0  502 -0.30176052201E+02 -0.20363492022E+02  0.49324889783E+02  0.61446587260E+02  0.41800000000E+01 0.  1.
        -11    1    4    4    0    0  0.50553751514E+02 -0.24086767588E+02  0.38989928396E+02  0.68235391707E+02  0.00000000000E+00 0. -1.
         11    1    4    4    0    0 -0.12711686989E+02 -0.92166081136E+02  0.38082679354E+01  0.93116466872E+02  0.00000000000E+00 0.  1.
</event>
<event>
 8    1  0.6493926E-009  0.1004295E+03  0.7561462E-02  0.1279395E+00
         -2   -1    0    0    0  501 -0.00000000000E+00  0.00000000000E+00  0.14063926205E+03  0.14063926205E+03  0.00000000000E+00 0.  1.
          2   -1    0    0  501    0  0.00000000000E+00 -0.00000000000E+00 -0.10775127335E+03  0.10775127335E+03  0.00000000000E+00 0. -1.
         25    2    1    2    0    0  0.24465812568E+02 -0.51219825339E+02  0.15630864051E+02  0.13824944500E+03  0.12508612489E+03 0.  0.
         23    2    1    2    0    0 -0.24465812568E+02  0.51219825339E+02  0.17257124647E+02  0.11014109040E+03  0.92796578334E+02 0.  0.
          5    1    3    3  502    0  0.52553777974E+02 -0.19413032649E+02 -0.39409963915E+02  0.68624944968E+02  0.41800000000E+01 0.  1.
         -5    1    3    3    0  502 -0.28087965406E+02 -0.31806792691E+02  0.55040827967E+02  0.69624500035E+02  0.41800000000E+01 0.  1.
        -11    1    4    4    0    0 -0.43872100989E+02 -0.34696205583E+01  0.26511035829E+02  0.51377373743E+02  0.00000000000E+00 0.  1.
         11    1    4    4    0    0  0.19406288421E+02  0.54689445897E+02 -0.92539111820E+01  0.58763716654E+02  0.00000000000E+00 0. -1.
</event>
<event>
 8    1  0.6493926E-009  0.1071958E+03  0.7561462E-02  0.1265853E+00
          2   -1    0    0  501    0  0.00000000000E+00  0.00000000000E+00  0.61000492852E+03  0.61000492852E+03  0.00000000000E+00 0. -1.
         -2   -1    0    0    0  501 -0.00000000000E+00 -0.00000000000E+00 -0.32875725400E+02  0.32875725400E+02  0.00000000000E+00 0.  1.
         25    2    1    2    0    0  0.68566903884E+02 -0.54486276378E+02  0.25825622689E+03  0.30002317145E+03  0.12508976798E+03 0.  0.
         23    2    1    2    0    0 -0.68566903884E+02  0.54486276378E+02  0.31887297623E+03  0.34285748247E+03  0.90559945327E+02 0.  0.
          5    1    3    3  502    0  0.39632828466E+02 -0.25492626345E+02  0.25429617510E+03  0.25865933612E+03  0.41800000000E+01 0. -1.
         -5    1    3    3    0  502  0.28934075418E+02 -0.28993650033E+02  0.39600517868E+01  0.41363835324E+02  0.41800000000E+01 0. -1.
        -11    1    4    4    0    0 -0.70063297355E+02  0.76562737305E+02  0.25830122645E+03  0.27837069165E+03  0.00000000000E+00 0.  1.
         11    1    4    4    0    0  0.14963934700E+01 -0.22076460928E+02  0.60571749775E+02  0.64486790828E+02  0.00000000000E+00 0. -1.
</event>
<event>
 8    1  0.6493926E-009  0.1326808E+03  0.7561462E-02  0.1223531E+00
         -1   -1    0    0    0  501 -0.00000000000E+00  0.00000000000E+00  0.21335046796E+03  0.21335046796E+03  0.00000000000E+00 0.  1.
          1   -1    0    0  501    0  0.00000000000E+00 -0.00000000000E+00 -0.11518294100E+03  0.11518294100E+03  0.00000000000E+00 0. -1.
         25    2    1    2    0    0  0.84202070305E+01 -0.78692485865E+02 -0.25253717484E+02  0.15016288322E+03  0.12509090307E+03 0.  0.
         23    2    1    2    0    0 -0.84202070305E+01  0.78692485865E+02  0.12342124445E+03  0.17837052574E+03  0.10158658206E+03 0.  0.
          5    1    3    3  502    0 -0.18284184635E+02  0.29800616394E+02  0.13294982459E+01  0.35236743760E+02  0.41800000000E+01 0. -1.
         -5    1    3    3    0  502  0.26704391666E+02 -0.10849310226E+03 -0.26583215730E+02  0.11492613946E+03  0.41800000000E+01 0. -1.
        -11    1    4    4    0    0 -0.17366997584E+02 -0.15768073779E+02  0.59519901347E+02  0.63975490714E+02  0.00000000000E+00 0.  1.
         11    1    4    4    0    0  0.89467905530E+01  0.94460559644E+02  0.63901343100E+02  0.11439503503E+03  0.00000000000E+00 0. -1.
</event>
<event>
 8    1  0.6493926E-009  0.2972389E+03  0.7561462E-02  0.1086629E+00
          1   -1    0    0  501    0  0.00000000000E+00  0.00000000000E+00  0.12594456380E+04  0.12594456380E+04  0.00000000000E+00 0. -1.
         -1   -1    0    0    0  501 -0.00000000000E+00 -0.00000000000E+00 -0.73754322895E+02  0.73754322895E+02  0.00000000000E+00 0.  1.
         25    2    1    2    0    0  0.90681176619E+02  0.26295199618E+03  0.73322458774E+03  0.79412385424E+03  0.12509025427E+03 0.  0.
         23    2    1    2    0    0 -0.90681176619E+02 -0.26295199618E+03  0.45246672733E+03  0.53907610663E+03  0.92250101909E+02 0.  0.
          5    1    3    3  502    0  0.47300740280E+02  0.25519845090E+03  0.64874187658E+03  0.69874680980E+03  0.41800000000E+01 0.  1.
         -5    1    3    3    0  502  0.43380436340E+02  0.77535452877E+01  0.84482711162E+02  0.95377044444E+02  0.41800000000E+01 0.  1.
        -11    1    4    4    0    0 -0.90920965268E+02 -0.13547800297E+03  0.28782542502E+03  0.33085402597E+03  0.00000000000E+00 0.  1.
         11    1    4    4    0    0  0.23978864901E+00 -0.12747399322E+03  0.16464130231E+03  0.20822208065E+03  0.00000000000E+00 0. -1.
</event>
<event>
 7    1  0.6493926E-009  0.1311403E+03  0.7561462E-02  0.1225773E+00
          1   -1    0    0  501    0  0.00000000000E+00  0.00000000000E+00  0.55406674629E+03  0.55406674629E+03  0.00000000000E+00 0. -1.
         -1   -1    0    0    0  501 -0.00000000000E+00 -0.00000000000E+00 -0.35361135493E+02  0.35361135493E+02  0.00000000000E+00 0.  1.
         23    2    1    2    0    0  0.81345034591E+02  0.28569293096E+02  0.27358596035E+03  0.30100013476E+03  0.91206273149E+02 0.  0.
          5    1    1    2  502    0 -0.52342963215E+00  0.41817695374E+02  0.95461233809E+02  0.10430394616E+03  0.41800000000E+01 0.  1.
         -5    1    1    2    0  502 -0.80821604959E+02 -0.70386988470E+02  0.14965841664E+03  0.18412380087E+03  0.41800000000E+01 0.  1.
        -11    1    3    3    0    0  0.19482836560E+02 -0.24629794718E+02  0.27506550127E+02  0.41747071852E+02  0.00000000000E+00 0.  1.
         11    1    3    3    0    0  0.61862198031E+02  0.53199087815E+02  0.24607941022E+03  0.25925306290E+03  0.00000000000E+00 0. -1.
</event>
<event>
 8    1  0.6493926E-009  0.1071208E+03  0.7561462E-02  0.1265997E+00
          2   -1    0    0  501    0  0.00000000000E+00  0.00000000000E+00  0.68120224336E+03  0.68120224336E+03  0.00000000000E+00 0.  1.
         -2   -1    0    0    0  501 -0.00000000000E+00 -0.00000000000E+00 -0.42007614636E+02  0.42007614636E+02  0.00000000000E+00 0. -1.
         25    2    1    2    0    0  0.45790592844E+02 -0.72086543734E+02  0.54445170098E+03  0.56512670462E+03  0.12508912582E+03 0.  0.
         23    2    1    2    0    0 -0.45790592844E+02  0.72086543734E+02  0.94742927746E+02  0.15808315337E+03  0.93385292431E+02 0.  0.
          5    1    3    3  502    0  0.36580914364E+01 -0.19196381560E+02  0.39187153305E+01  0.20364464830E+02  0.41800000000E+01 0.  1.
         -5    1    3    3    0  502  0.42132501407E+02 -0.52890162174E+02  0.54053298565E+03  0.54476223979E+03  0.41800000000E+01 0.  1.
        -11    1    4    4    0    0 -0.67593238256E+02  0.78682850371E+02  0.79161984506E+02  0.13048546506E+03  0.00000000000E+00 0.  1.
         11    1    4    4    0    0  0.21802645412E+02 -0.65963066363E+01  0.15580943240E+02  0.27597688317E+02  0.00000000000E+00 0. -1.
</event>
<event>
 8    1  0.6493926E-009  0.2444353E+03  0.7561462E-02  0.1116873E+00
         -1   -1    0    0    0  501 -0.00000000000E+00  0.00000000000E+00  0.30098093142E+03  0.30098093142E+03  0.00000000000E+00 0.  1.
          1   -1    0    0  501    0  0.00000000000E+00 -0.00000000000E+00 -0.22573151750E+03  0.22573151750E+03  0.00000000000E+00 0. -1.
         25    2    1    2    0    0  0.18545821375E+03  0.12329849260E+03  0.12083993257E+03  0.28257202294E+03  0.12508953402E+03 0.  0.
         23    2    1    2    0    0 -0.18545821375E+03 -0.12329849260E+03 -0.45590518644E+02  0.24414042598E+03  0.89043724569E+02 0.  0.
          5    1    3    3  502    0  0.17219469202E+03  0.14548944930E+03  0.12199899987E+03  0.25635799224E+03  0.41800000000E+01 0. -1.
         -5    1    3    3    0  502  0.13263521730E+02 -0.22190956705E+02 -0.11590673069E+01  0.26214030693E+02  0.41800000000E+01 0. -1.
        -11    1    4    4    0    0 -0.16965782465E+03 -0.73365199930E+02 -0.50279402499E+02  0.19155742831E+03  0.00000000000E+00 0. -1.
         11    1    4    4    0    0 -0.15800389098E+02 -0.49933292667E+02  0.46888838547E+01  0.52582997670E+02  0.00000000000E+00 0.  1.
</event>
<event>
 8    1  0.6493926E-009  0.9001904E+02  0.7561462E-02  0.1302806E+00
         -2   -1    0    0    0  501 -0.00000000000E+00  0.00000000000E+00  0.50753594456E+03  0.50753594456E+03  0.00000000000E+00 0.  1.
          2   -1    0    0  501    0  0.00000000000E+00 -0.00000000000E+00 -0.30755992009E+02  0.30755992009E+02  0.00000000000E+00 0. -1.
         25    2    1    2    0    0  0.42713977301E+02 -0.16238592461E+02  0.35456918744E+03  0.37875455203E+03  0.12509007261E+03 0.  0.
         23    2    1    2    0    0 -0.42713977301E+02  0.16238592461E+02  0.12221076511E+03  0.15953738453E+03  0.91807027032E+02 0.  0.
          5    1    3    3  502    0 -0.79250390998E+01 -0.29589483502E+02  0.13623236214E+02  0.33784741283E+02  0.41800000000E+01 0.  1.
         -5    1    3    3    0  502  0.50639016401E+02  0.13350891041E+02  0.34094595122E+03  0.34496981075E+03  0.41800000000E+01 0.  1.
        -11    1    4    4    0    0 -0.77857954410E+01  0.48450321373E+02  0.88785534839E+02  0.10144418883E+03  0.00000000000E+00 0.  1.
         11    1    4    4    0    0 -0.34928181860E+02 -0.32211728912E+02  0.33425230271E+02  0.58093195697E+02  0.00000000000E+00 0. -1.
</event>
<event>
 8    1  0.6493926E-009  0.2929358E+03  0.7561462E-02  0.1088826E+00
          2   -1    0    0  501    0  0.00000000000E+00  0.00000000000E+00  0.55408616909E+03  0.55408616909E+03  0.00000000000E+00 0. -1.
         -2   -1    0    0    0  501 -0.00000000000E+00 -0.00000000000E+00 -0.20366737786E+03  0.20366737786E+03  0.00000000000E+00 0.  1.
         25    2    1    2    0    0  0.27087407863E+03  0.64123599887E+02  0.56867952780E+01  0.30522901064E+03  0.12509119376E+03 0.  0.
         23    2    1    2    0    0 -0.27087407863E+03 -0.64123599887E+02  0.34473199596E+03  0.45252453631E+03  0.91944028572E+02 0.  0.
          5    1    3    3  502    0  0.24303392889E+03  0.24686245679E+02  0.37617947385E+02  0.24719927930E+03  0.41800000000E+01 0. -1.
         -5    1    3    3    0  502  0.27840149739E+02  0.39437354207E+02 -0.31931152107E+02  0.58029731339E+02  0.41800000000E+01 0. -1.
        -11    1    4    4    0    0 -0.68002252926E+02  0.23723909487E+02  0.80948355294E+02  0.10835020309E+03  0.00000000000E+00 0.  1.
         11    1    4    4    0    0 -0.20287182571E+03 -0.87847509373E+02  0.26378364066E+03  0.34417433322E+03  0.00000000000E+00 0. -1.
</event>
<event>
 8    1  0.6493926E-009  0.1014370E+03  0.7561462E-02  0.1277303E+00
          2   -1    0    0  501    0  0.00000000000E+00  0.00000000000E+00  0.31673357928E+03  0.31673357928E+03  0.00000000000E+00 0. -1.
         -2   -1    0    0    0  501 -0.00000000000E+00 -0.00000000000E+00 -0.78771584162E+02  0.78771584162E+02  0.00000000000E+00 0.  1.
         25    2    1    2    0    0  0.33539164169E+02 -0.42672637816E+02  0.25106254586E+03  0.28570424160E+03  0.12509469286E+03 0.  0.
         23    2    1    2    0    0 -0.33539164169E+02  0.42672637816E+02 -0.13100550742E+02  0.10980092185E+03  0.94545166228E+02 0.  0.
          5    1    3    3  502    0  0.58130001390E+02 -0.24155566781E+02  0.24632992714E+03  0.25428034504E+03  0.41800000000E+01 0.  1.
         -5    1    3    3    0  502 -0.24590837221E+02 -0.18517071034E+02  0.47326187210E+01  0.31423896558E+02  0.41800000000E+01 0.  1.
        -11    1    4    4    0    0 -0.33904518918E+02 -0.24321318715E+02 -0.89678214848E+01  0.42678621924E+02  0.00000000000E+00 0.  1.
         11    1    4    4    0    0  0.36535474900E+00  0.66993956531E+02 -0.41327292573E+01  0.67122299922E+02  0.00000000000E+00 0. -1.
</event>
<event>
 8    1  0.6493926E-009  0.1180632E+03  0.7561462E-02  0.1246327E+00
          2   -1    0    0  501    0  0.00000000000E+00  0.00000000000E+00  0.16718474977E+03  0.16718474977E+03  0.00000000000E+00 0.  1.
         -2   -1    0    0    0  501 -0.00000000000E+00 -0.00000000000E+00 -0.96988909044E+02  0.96988909044E+02  0.00000000000E+00 0. -1.
         25    2    1    2    0    0 -0.48735242876E+02  0.46991477961E+02  0.46347427031E+02  0.14960237514E+03  0.12509781675E+03 0.  0.
         23    2    1    2    0    0  0.48735242876E+02 -0.46991477961E+02  0.23848413691E+02  0.11457128367E+03  0.89300108105E+02 0.  0.
          5    1    3    3  502    0 -0.32454451812E+01  0.83194780510E+02  0.20535634699E+02  0.85855047091E+02  0.41800000000E+01 0.  1.
         -5    1    3    3    0  502 -0.45489797694E+02 -0.36203302549E+02  0.25811792332E+02  0.63747328047E+02  0.41800000000E+01 0.  1.
        -11    1    4    4    0    0  0.42488250041E+02 -0.63738280848E+02  0.43431586052E+02  0.88057495445E+02  0.00000000000E+00 0.  1.
         11    1    4    4    0    0  0.62469928344E+01  0.16746802887E+02 -0.19583172361E+02  0.26513788227E+02  0.00000000000E+00 0. -1.
</event>
<event>
 8    1  0.6493926E-009  0.1221344E+03  0.7561462E-02  0.1239617E+00
          1   -1    0    0  501    0  0.00000000000E+00  0.00000000000E+00  0.10159924665E+04  0.10159924665E+04  0.00000000000E+00 0. -1.
         -1   -1    0    0    0  501 -0.00000000000E+00 -0.00000000000E+00 -0.18019169201E+02  0.18019169201E+02  0.00000000000E+00 0.  1.
         25    2    1    2    0    0 -0.26845437280E+02  0.76951623747E+02  0.57904636712E+03  0.59798454926E+03  0.12509434827E+03 0.  0.
         23    2    1    2    0    0  0.26845437280E+02 -0.76951623747E+02  0.41892693020E+03  0.43602708647E+03  0.89317508859E+02 0.  0.
          5    1    3    3  502    0  0.13367199814E+02  0.82971079874E+02  0.51621241221E+03  0.52302543824E+03  0.41800000000E+01 0.  1.
         -5    1    3    3    0  502 -0.40212637093E+02 -0.60194561276E+01  0.62833954914E+02  0.74959111015E+02  0.41800000000E+01 0.  1.
        -11    1    4    4    0    0  0.51174708742E+02 -0.79752371613E+02  0.30019157776E+03  0.31479243154E+03  0.00000000000E+00 0.  1.
         11    1    4    4    0    0 -0.24329271463E+02  0.28007478662E+01  0.11873535244E+03  0.12123465494E+03  0.00000000000E+00 0. -1.
</event>
<event>
 8    1  0.6493926E-009  0.2275268E+03  0.7561462E-02  0.1128393E+00
         -2   -1    0    0    0  501 -0.00000000000E+00  0.00000000000E+00  0.46661674235E+03  0.46661674235E+03  0.00000000000E+00 0.  1.
          2   -1    0    0  501    0  0.00000000000E+00 -0.00000000000E+00 -0.14094870701E+03  0.14094870701E+03  0.00000000000E+00 0. -1.
         25    2    1    2    0    0 -0.16184672747E+03 -0.15635685270E+03  0.95671878382E+02  0.27466770836E+03  0.12508962037E+03 0.  0.
         23    2    1    2    0    0  0.16184672747E+03  0.15635685270E+03  0.22999615696E+03  0.33289774099E+03  0.85327868612E+02 0.  0.
          5    1    3    3  502    0 -0.15669614800E+02 -0.27903992296E+02  0.71606746054E+02  0.78544051936E+02  0.41800000000E+01 0.  1.
         -5    1    3    3    0  502 -0.14617711268E+03 -0.12845286041E+03  0.24065132328E+02  0.19612365643E+03  0.41800000000E+01 0.  1.
        -11    1    4    4    0    0  0.98662146082E+02  0.69300879130E+02  0.67949095173E+02  0.13839765335E+03  0.00000000000E+00 0.  1.
         11    1    4    4    0    0  0.63184581392E+02  0.87055973572E+02  0.16204706179E+03  0.19450008764E+03  0.00000000000E+00 0. -1.
</event>
<event>
 8    1  0.6493926E-009  0.1090218E+03  0.7561462E-02  0.1262392E+00
          4   -1    0    0  501    0  0.00000000000E+00  0.00000000000E+00  0.67972335587E+02  0.67972335587E+02  0.00000000000E+00 0.  1.
         -4   -1    0    0    0  501 -0.00000000000E+00 -0.00000000000E+00 -0.21294723345E+03  0.21294723345E+03  0.00000000000E+00 0. -1.
         25    2    1    2    0    0  0.22259314282E+02 -0.16852796144E+02 -0.13223992688E+03  0.18415270552E+03  0.12508128108E+03 0.  0.
         23    2    1    2    0    0 -0.22259314282E+02  0.16852796144E+02 -0.12734970986E+02  0.96766863525E+02  0.91772286559E+02 0.  0.
          5    1    3    3  502    0 -0.41766861425E+00 -0.66891873376E+02 -0.44172825365E+02  0.80270841976E+02  0.41800000000E+01 0.  1.
         -5    1    3    3    0  502  0.22676982897E+02  0.50039077231E+02 -0.88067101515E+02  0.10388186354E+03  0.41800000000E+01 0.  1.
        -11    1    4    4    0    0 -0.57724457507E+02  0.28521821147E+01 -0.79539404280E+01  0.58339635803E+02  0.00000000000E+00 0.  1.
         11    1    4    4    0    0  0.35465143225E+02  0.14000614030E+02 -0.47810305584E+01  0.38427227722E+02  0.00000000000E+00 0. -1.
</event>
<event>
 8    1  0.6493926E-009  0.1010995E+03  0.7561462E-02  0.1278001E+00
         -3   -1    0    0    0  501 -0.00000000000E+00  0.00000000000E+00  0.10824532536E+03  0.10824532536E+03  0.00000000000E+00 0.  1.
          3   -1    0    0  501    0  0.00000000000E+00 -0.00000000000E+00 -0.26231031303E+03  0.26231031303E+03  0.00000000000E+00 0. -1.
         25    2    1    2    0    0 -0.37949900047E+01  0.79772413256E+02 -0.19287368648E+03  0.24336992468E+03  0.12510244376E+03 0.  0.
         23    2    1    2    0    0  0.37949900047E+01 -0.79772413256E+02  0.38808698814E+02  0.12718571371E+03  0.91060698450E+02 0.  0.
          5    1    3    3  502    0 -0.14947489452E+02  0.44363833370E+02 -0.19990506970E+03  0.20535599929E+03  0.41800000000E+01 0.  1.
         -5    1    3    3    0  502  0.11152499447E+02  0.35408579886E+02  0.70313832166E+01  0.38013925388E+02  0.41800000000E+01 0.  1.
        -11    1    4    4    0    0  0.31415218013E+02  0.20499561104E+01  0.23954084482E+02  0.39559024334E+02  0.00000000000E+00 0.  1.
         11    1    4    4    0    0 -0.27620228009E+02 -0.81822369366E+02  0.14854614333E+02  0.87626689376E+02  0.00000000000E+00 0. -1.
</event>
<event>
 8    1  0.6493926E-009  0.1232295E+03  0.7561462E-02  0.1237863E+00
         -1   -1    0    0    0  501 -0.00000000000E+00  0.00000000000E+00  0.36224096304E+02  0.36224096304E+02  0.00000000000E+00 0.  1.
          1   -1    0    0  501    0  0.00000000000E+00 -0.00000000000E+00 -0.45327146516E+03  0.45327146516E+03  0.00000000000E+00 0. -1.
         25    2    1    2    0    0  0.83479946869E+01 -0.60788095557E+02 -0.28451335910E+03  0.31679861572E+03  0.12509448365E+03 0.  0.
         23    2    1    2    0    0 -0.83479946869E+01  0.60788095557E+02 -0.13253400975E+03  0.17269694574E+03  0.92163386166E+02 0.  0.
          5    1    3    3  502    0 -0.85696496656E+01 -0.97474818245E+02 -0.18523122963E+03  0.20953009311E+03  0.41800000000E+01 0.  1.
         -5    1    3    3    0  502  0.16917644352E+02  0.36686722688E+02 -0.99282129468E+02  0.10726852261E+03  0.41800000000E+01 0.  1.
        -11    1    4    4    0    0 -0.48282237267E+02  0.25450323640E+02 -0.86349893480E+02  0.10215281451E+03  0.00000000000E+00 0.  1.
         11    1    4    4    0    0  0.39934242580E+02  0.35337771917E+02 -0.46184116274E+02  0.70544131226E+02  0.00000000000E+00 0. -1.
</event>
<event>
 8    1  0.6493926E-009  0.7045263E+02  0.7561462E-02  0.1358561E+00
         -1   -1    0    0    0  501 -0.00000000000E+00  0.00000000000E+00  0.25501365870E+03  0.25501365870E+03  0.00000000000E+00 0.  1.
          1   -1    0    0  501    0  0.00000000000E+00 -0.00000000000E+00 -0.62410530030E+02  0.62410530030E+02  0.00000000000E+00 0. -1.
         25    2    1    2    0    0  0.21404344455E+02 -0.22437816465E+02  0.18564864966E+03  0.22599817314E+03  0.12509257201E+03 0.  0.
         23    2    1    2    0    0 -0.21404344455E+02  0.22437816465E+02  0.69544790125E+01  0.91426015595E+02  0.85724850422E+02 0.  0.
          5    1    3    3  502    0  0.32092182814E+02 -0.30548780491E+02  0.49777404273E+01  0.44781541812E+02  0.41800000000E+01 0. -1.
         -5    1    3    3    0  502 -0.10687838359E+02  0.81109640267E+01  0.18067090923E+03  0.18121663133E+03  0.41800000000E+01 0. -1.
        -11    1    4    4    0    0  0.18319594424E+02  0.35983253454E+02  0.23028333099E+02  0.46483396974E+02  0.00000000000E+00 0.  1.
         11    1    4    4    0    0 -0.39723938879E+02 -0.13545436989E+02 -0.16073854086E+02  0.44942618621E+02  0.00000000000E+00 0. -1.
</event>
<event>
 8    1  0.6493926E-009  0.1454543E+03  0.7561462E-02  0.1206173E+00
         -2   -1    0    0    0  501 -0.00000000000E+00  0.00000000000E+00  0.22983921108E+02  0.22983921108E+02  0.00000000000E+00 0.  1.
          2   -1    0    0  501    0  0.00000000000E+00 -0.00000000000E+00 -0.14660452849E+04  0.14660452849E+04  0.00000000000E+00 0. -1.
         25    2    1    2    0    0 -0.58098396235E+01  0.12911826580E+03 -0.11524749512E+04  0.11664268581E+04  0.12509125225E+03 0.  0.
         23    2    1    2    0    0  0.58098396235E+01 -0.12911826580E+03 -0.29058641261E+03  0.32260234791E+03  0.54097420306E+02 0.  0.
          5    1    3    3  502    0  0.33627240792E+02  0.99720924403E+02 -0.44755096279E+03  0.45977645740E+03  0.41800000000E+01 0. -1.
         -5    1    3    3    0  502 -0.39437080415E+02  0.29397341398E+02 -0.70492398839E+03  0.70665040070E+03  0.41800000000E+01 0. -1.
        -11    1    4    4    0    0  0.23865691781E+02 -0.55347051836E+02 -0.16700469847E+03  0.17754840664E+03  0.00000000000E+00 0.  1.
         11    1    4    4    0    0 -0.18055852157E+02 -0.73771213965E+02 -0.12358171415E+03  0.14505394127E+03  0.00000000000E+00 0. -1.
</event>
<event>
 8    1  0.6493926E-009  0.1137309E+03  0.7561462E-02  0.1253813E+00
          1   -1    0    0  501    0  0.00000000000E+00  0.00000000000E+00  0.11193968513E+04  0.11193968513E+04  0.00000000000E+00 0. -1.
         -1   -1    0    0    0  501 -0.00000000000E+00 -0.00000000000E+00 -0.18797617581E+02  0.18797617581E+02  0.00000000000E+00 0.  1.
         25    2    1    2    0    0  0.15412375891E+02  0.45041929838E+02  0.95659805137E+03  0.96591578488E+03  0.12508858788E+03 0.  0.
         23    2    1    2    0    0 -0.15412375891E+02 -0.45041929838E+02  0.14400118239E+03  0.17227868405E+03  0.81714672320E+02 0.  0.
          5    1    3    3  502    0  0.15976860143E+02 -0.42534704449E+02  0.28767923534E+03  0.29127525811E+03  0.41800000000E+01 0. -1.
         -5    1    3    3    0  502 -0.56448425274E+00  0.87576634286E+02  0.66891881604E+03  0.67464052677E+03  0.41800000000E+01 0. -1.
        -11    1    4    4    0    0  0.26233648724E+02 -0.45483903977E+02  0.88241166838E+02  0.10268151426E+03  0.00000000000E+00 0.  1.
         11    1    4    4    0    0 -0.41646024615E+02  0.44197413919E+00  0.55760015553E+02  0.69597169783E+02  0.00000000000E+00 0. -1.
</event>
<event>
 8    1  0.6493926E-009  0.7153565E+02  0.7561462E-02  0.1354947E+00
         -4   -1    0    0    0  501 -0.00000000000E+00  0.00000000000E+00  0.19578942197E+02  0.19578942197E+02  0.00000000000E+00 0.  1.
          4   -1    0    0  501    0  0.00000000000E+00 -0.00000000000E+00 -0.78115180152E+03  0.78115180152E+03  0.00000000000E+00 0. -1.
         25    2    1    2    0    0  0.33427486310E+02  0.24301041648E+02 -0.56266895333E+03  0.57788702575E+03  0.12509646686E+03 0.  0.
         23    2    1    2    0    0 -0.33427486310E+02 -0.24301041648E+02 -0.19890390599E+03  0.22284371797E+03  0.91589417252E+02 0.  0.
          5    1    3    3  502    0  0.17818285998E+02  0.19071532241E+02 -0.56008368071E+03  0.56070706831E+03  0.41800000000E+01 0.  1.
         -5    1    3    3    0  502  0.15609200312E+02  0.52295094071E+01 -0.25852726211E+01  0.17179957437E+02  0.41800000000E+01 0.  1.
        -11    1    4    4    0    0 -0.23024731385E+02  0.33652029057E+02 -0.67645310244E+02  0.78984082656E+02  0.00000000000E+00 0.  1.
         11    1    4    4    0    0 -0.10402754925E+02 -0.57953070705E+02 -0.13125859575E+03  0.14385963531E+03  0.00000000000E+00 0. -1.
</event>
<event>
 8    1  0.6493926E-009  0.2205197E+03  0.7561462E-02  0.1133496E+00
          1   -1    0    0  501    0  0.00000000000E+00  0.00000000000E+00  0.63705732748E+03  0.63705732748E+03  0.00000000000E+00 0. -1.
         -1   -1    0    0    0  501 -0.00000000000E+00 -0.00000000000E+00 -0.96074957822E+02  0.96074957822E+02  0.00000000000E+00 0.  1.
         25    2    1    2    0    0 -0.19737436944E+03 -0.21133752863E+02  0.42503103465E+03  0.48549191371E+03  0.12509092949E+03 0.  0.
         23    2    1    2    0    0  0.19737436944E+03  0.21133752863E+02  0.11595133502E+03  0.24764037160E+03  0.92074775771E+02 0.  0.
          5    1    3    3  502    0 -0.17525898945E+03  0.28219484688E+02  0.35479871859E+03  0.39675137783E+03  0.41800000000E+01 0. -1.
         -5    1    3    3    0  502 -0.22115379991E+02 -0.49353237551E+02  0.70232316059E+02  0.88740535878E+02  0.41800000000E+01 0. -1.
        -11    1    4    4    0    0  0.72160094986E+02  0.40154734569E+02  0.11305393249E+02  0.83350428512E+02  0.00000000000E+00 0.  1.
         11    1    4    4    0    0  0.12521427445E+03 -0.19020981705E+02  0.10464594177E+03  0.16428994309E+03  0.00000000000E+00 0. -1.
</event>
<event>
 8    1  0.6493926E-009  0.1243339E+03  0.7561462E-02  0.1236114E+00
         -2   -1    0    0    0  501 -0.00000000000E+00  0.00000000000E+00  0.43147844334E+03  0.43147844334E+03  0.00000000000E+00 0.  1.
          2   -1    0    0  501    0  0.00000000000E+00 -0.00000000000E+00 -0.47440778712E+02  0.47440778712E+02  0.00000000000E+00 0. -1.
         25    2    1    2    0    0  0.52720132759E+02 -0.57484138438E+02  0.29815575482E+03  0.33260781373E+03  0.12508902852E+03 0.  0.
         23    2    1    2    0    0 -0.52720132759E+02  0.57484138438E+02  0.85881909813E+02  0.14631140832E+03  0.89148680312E+02 0.  0.
          5    1    3    3  502    0  0.64499128918E+02  0.10604760914E+02  0.78151967230E+02  0.10196960806E+03  0.41800000000E+01 0.  1.
         -5    1    3    3    0  502 -0.11778996159E+02 -0.68088899352E+02  0.22000378759E+03  0.23063820568E+03  0.41800000000E+01 0.  1.
        -11    1    4    4    0    0 -0.73954482631E+02  0.55795488754E+02  0.83781120925E+02  0.12490667832E+03  0.00000000000E+00 0.  1.
         11    1    4    4    0    0  0.21234349872E+02  0.16886496834E+01  0.21007888878E+01  0.21404729996E+02  0.00000000000E+00 0. -1.
</event>
<event>
 8    1  0.6493926E-009  0.8444707E+02  0.7561462E-02  0.1316885E+00
          2   -1    0    0  501    0  0.00000000000E+00  0.00000000000E+00  0.43648076241E+02  0.43648076241E+02  0.00000000000E+00 0. -1.
         -2   -1    0    0    0  501 -0.00000000000E+00 -0.00000000000E+00 -0.34573763558E+03  0.34573763558E+03  0.00000000000E+00 0.  1.
         25    2    1    2    0    0  0.33565814180E+02  0.34289180663E+02 -0.22225404529E+03  0.25951228686E+03  0.12508938640E+03 0.  0.
         23    2    1    2    0    0 -0.33565814180E+02 -0.34289180663E+02 -0.79835514043E+02  0.12987342496E+03  0.90504062978E+02 0.  0.
          5    1    3    3  502    0  0.41082859111E+02 -0.28621161617E+02 -0.33559109196E+02  0.60420678704E+02  0.41800000000E+01 0.  1.
         -5    1    3    3    0  502 -0.75170449307E+01  0.62910342280E+02 -0.18869493609E+03  0.19909160816E+03  0.41800000000E+01 0.  1.
        -11    1    4    4    0    0 -0.21402316838E+02 -0.36952532343E+02 -0.98544816408E+02  0.10739939317E+03  0.00000000000E+00 0.  1.
         11    1    4    4    0    0 -0.12163497342E+02  0.26633516796E+01  0.18709302365E+02  0.22474031786E+02  0.00000000000E+00 0. -1.
</event>
<event>
 8    1  0.6493926E-009  0.1689596E+03  0.7561462E-02  0.1178937E+00
         -2   -1    0    0    0  501 -0.00000000000E+00  0.00000000000E+00  0.52364446268E+02  0.52364446268E+02  0.00000000000E+00 0.  1.
          2   -1    0    0  501    0  0.00000000000E+00 -0.00000000000E+00 -0.74721596100E+03  0.74721596100E+03  0.00000000000E+00 0. -1.
         25    2    1    2    0    0 -0.88747819094E+02 -0.11177016459E+03 -0.19505854595E+03  0.27214671804E+03  0.12508898715E+03 0.  0.
         23    2    1    2    0    0  0.88747819094E+02  0.11177016459E+03 -0.49979296878E+03  0.52743368923E+03  0.89579795743E+02 0.  0.
          5    1    3    3  502    0 -0.10635426842E+03 -0.68317266038E+02 -0.84832123816E+02  0.15229064607E+03  0.41800000000E+01 0. -1.
         -5    1    3    3    0  502  0.17606449328E+02 -0.43452898548E+02 -0.11022642213E+03  0.11985607196E+03  0.41800000000E+01 0. -1.
        -11    1    4    4    0    0  0.22812951943E+02 -0.10765058604E+02 -0.42330995775E+02  0.49277078510E+02  0.00000000000E+00 0.  1.
         11    1    4    4    0    0  0.65934867151E+02  0.12253522319E+03 -0.45746197301E+03  0.47815661072E+03  0.00000000000E+00 0. -1.
</event>
<event>
 8    1  0.6493926E-009  0.9303982E+02  0.7561462E-02  0.1295653E+00
          1   -1    0    0  501    0  0.00000000000E+00  0.00000000000E+00  0.17720810573E+02  0.17720810573E+02  0.00000000000E+00 0. -1.
         -1   -1    0    0    0  501 -0.00000000000E+00 -0.00000000000E+00 -0.68635599272E+03  0.68635599272E+03  0.00000000000E+00 0.  1.
         25    2    1    2    0    0 -0.10261699672E+02 -0.23156157849E+02 -0.41805392687E+03  0.43710119942E+03  0.12508742001E+03 0.  0.
         23    2    1    2    0    0  0.10261699672E+02  0.23156157849E+02 -0.25058125528E+03  0.26697560387E+03  0.88563522037E+02 0.  0.
          5    1    3    3  502    0 -0.27191731634E+02  0.34864065957E+02 -0.63990859222E+02  0.77892206467E+02  0.41800000000E+01 0.  1.
         -5    1    3    3    0  502  0.16930031962E+02 -0.58020223805E+02 -0.35406306764E+03  0.35920899296E+03  0.41800000000E+01 0.  1.
        -11    1    4    4    0    0  0.41743962671E+02  0.26468417012E+02 -0.20871853211E+03  0.21449140114E+03  0.00000000000E+00 0.  1.
         11    1    4    4    0    0 -0.31482262999E+02 -0.33122591629E+01 -0.41862723177E+02  0.52484202729E+02  0.00000000000E+00 0. -1.
</event>
<event>
 8    1  0.6493926E-009  0.1089219E+03  0.7561462E-02  0.1262580E+00
         -1   -1    0    0    0  501 -0.00000000000E+00  0.00000000000E+00  0.78014916933E+02  0.78014916933E+02  0.00000000000E+00 0.  1.
          1   -1    0    0  501    0  0.00000000000E+00 -0.00000000000E+00 -0.22755956893E+03  0.22755956893E+03  0.00000000000E+00 0. -1.
         25    2    1    2    0    0 -0.10595295535E+02  0.10470634623E+02  0.45240220398E+01  0.12605491307E+03  0.12508988710E+03 0.  0.
         23    2    1    2    0    0  0.10595295535E+02 -0.10470634623E+02 -0.15406867404E+03  0.17951957280E+03  0.90929787315E+02 0.  0.
          5    1    3    3  502    0 -0.13562053742E+02 -0.56664619906E+02 -0.16812848272E+01  0.58438921700E+02  0.41800000000E+01 0.  1.
         -5    1    3    3    0  502  0.29667582072E+01  0.67135254529E+02  0.62053068670E+01  0.67615991365E+02  0.41800000000E+01 0.  1.
        -11    1    4    4    0    0 -0.27367241846E+02 -0.36827813258E+02 -0.73999088865E+02  0.87069621043E+02  0.00000000000E+00 0. -1.
         11    1    4    4    0    0  0.37962537381E+02  0.26357178635E+02 -0.80069585173E+02  0.92449951756E+02  0.00000000000E+00 0.  1.
</event>
<event>
 8    1  0.6493926E-009  0.1045320E+03  0.7561462E-02  0.1271044E+00
          1   -1    0    0  501    0  0.00000000000E+00  0.00000000000E+00  0.51351111019E+02  0.51351111019E+02  0.00000000000E+00 0. -1.
         -1   -1    0    0    0  501 -0.00000000000E+00 -0.00000000000E+00 -0.34324057884E+03  0.34324057884E+03  0.00000000000E+00 0.  1.
         25    2    1    2    0    0  0.56031660084E+02 -0.37976946810E+02 -0.12450012025E+03  0.18902261046E+03  0.12508985531E+03 0.  0.
         23    2    1    2    0    0 -0.56031660084E+02  0.37976946810E+02 -0.16738934757E+03  0.20556907940E+03  0.98273380447E+02 0.  0.
          5    1    3    3  502    0 -0.25056557882E+02  0.12374710369E+02  0.43772871823E+01  0.28593663506E+02  0.41800000000E+01 0. -1.
         -5    1    3    3    0  502  0.81088217966E+02 -0.50351657179E+02 -0.12887740743E+03  0.16042894695E+03  0.41800000000E+01 0. -1.
        -11    1    4    4    0    0 -0.20835524840E+02  0.44806367853E+02 -0.19050358261E+02  0.52958907140E+02  0.00000000000E+00 0. -1.
         11    1    4    4    0    0 -0.35196135245E+02 -0.68294210430E+01 -0.14833898931E+03  0.15261017226E+03  0.00000000000E+00 0.  1.
</event>
<event>
 8    1  0.6493926E-009  0.1145239E+03  0.7561462E-02  0.1252415E+00
         -1   -1    0    0    0  501 -0.00000000000E+00  0.00000000000E+00  0.54697401384E+03  0.54697401384E+03  0.00000000000E+00 0.  1.
          1   -1    0    0  501    0  0.00000000000E+00 -0.00000000000E+00 -0.26601892601E+02  0.26601892601E+02  0.00000000000E+00 0. -1.
         25    2    1    2    0    0  0.28609044661E+02 -0.44113631764E+02  0.26618147181E+03  0.29876736722E+03  0.12507947008E+03 0.  0.
         23    2    1    2    0    0 -0.28609044661E+02  0.44113631764E+02  0.25419064943E+03  0.27480853922E+03  0.90235009990E+02 0.  0.
          5    1    3    3  502    0  0.28993076000E+02 -0.82353027991E+02  0.22962738083E+03  0.24570068397E+03  0.41800000000E+01 0.  1.
         -5    1    3    3    0  502 -0.38403133891E+00  0.38239396227E+02  0.36554090976E+02  0.53066683248E+02  0.41800000000E+01 0.  1.
        -11    1    4    4    0    0 -0.29042645611E+02  0.70777064976E+02  0.20574706746E+03  0.21951019102E+03  0.00000000000E+00 0.  1.
         11    1    4    4    0    0  0.43360094967E+00 -0.26663433212E+02  0.48443581967E+02  0.55298348205E+02  0.00000000000E+00 0. -1.
</event>
<event>
 8    1  0.6493926E-009  0.1073407E+03  0.7561462E-02  0.1265575E+00
          2   -1    0    0  501    0  0.00000000000E+00  0.00000000000E+00  0.66843162349E+02  0.66843162349E+02  0.00000000000E+00 0. -1.
         -2   -1    0    0    0  501 -0.00000000000E+00 -0.00000000000E+00 -0.30007424370E+03  0.30007424370E+03  0.00000000000E+00 0.  1.
         25    2    1    2    0    0  0.65854267745E+02  0.42133414658E+02 -0.18446866791E+03  0.23617931519E+03  0.12505986677E+03 0.  0.
         23    2    1    2    0    0 -0.65854267745E+02 -0.42133414658E+02 -0.48762413440E+02  0.13073809085E+03  0.92750559158E+02 0.  0.
          5    1    3    3  502    0 -0.46234200756E+01 -0.29323769915E+02 -0.48348053345E+01  0.30366218696E+02  0.41800000000E+01 0. -1.
         -5    1    3    3    0  502  0.70477687820E+02  0.71457184573E+02 -0.17963386257E+03  0.20581309650E+03  0.41800000000E+01 0. -1.
        -11    1    4    4    0    0 -0.30236459917E+02 -0.15825768369E+01 -0.67197909890E+02  0.73704186796E+02  0.00000000000E+00 0.  1.
         11    1    4    4    0    0 -0.35617807828E+02 -0.40550837821E+02  0.18435496450E+02  0.57033904055E+02  0.00000000000E+00 0. -1.
</event>
<event>
 8    1  0.6493926E-009  0.9340272E+02  0.7561462E-02  0.1294815E+00
         -1   -1    0    0    0  501 -0.00000000000E+00  0.00000000000E+00  0.19063653755E+02  0.19063653755E+02  0.00000000000E+00 0. -1.
          1   -1    0    0  501    0  0.00000000000E+00 -0.00000000000E+00 -0.68229782494E+03  0.68229782494E+03  0.00000000000E+00 0.  1.
         25    2    1    2    0    0 -0.78958945123E+01 -0.32139570296E+02 -0.42865240932E+03  0.44775596553E+03  0.12508884653E+03 0.  0.
         23    2    1    2    0    0  0.78958945123E+01  0.32139570296E+02 -0.23458176187E+03  0.25360551316E+03  0.90508873472E+02 0.  0.
          5    1    3    3  502    0 -0.36871004928E+02  0.14543251187E+02 -0.44774187058E+02  0.59943117922E+02  0.41800000000E+01 0.  1.
         -5    1    3    3    0  502  0.28975110415E+02 -0.46682821483E+02 -0.38387822226E+03  0.38781284761E+03  0.41800000000E+01 0.  1.
        -11    1    4    4    0    0 -0.20824724780E+01 -0.29415296540E+02 -0.43075917327E+02  0.52202787433E+02  0.00000000000E+00 0.  1.
         11    1    4    4    0    0  0.99783669903E+01  0.61554866836E+02 -0.19150584454E+03  0.20140272573E+03  0.00000000000E+00 0. -1.
</event>
<event>
 8    1  0.6493926E-009  0.1420694E+03  0.7561462E-02  0.1210571E+00
          2   -1    0    0  501    0  0.00000000000E+00  0.00000000000E+00  0.11066771532E+04  0.11066771532E+04  0.00000000000E+00 0. -1.
         -2   -1    0    0    0  501 -0.00000000000E+00 -0.00000000000E+00 -0.25768456906E+02  0.25768456906E+02  0.00000000000E+00 0.  1.
         25    2    1    2    0    0 -0.98807763794E+02 -0.59524128403E+02  0.72969497185E+03  0.74927175734E+03  0.12508924153E+03 0.  0.
         23    2    1    2    0    0  0.98807763794E+02  0.59524128403E+02  0.35121372447E+03  0.38317385280E+03  0.10082174947E+03 0.  0.
          5    1    3    3  502    0 -0.10368272045E+03 -0.24425841268E+02  0.30524077612E+03  0.32332047886E+03  0.41800000000E+01 0. -1.
         -5    1    3    3    0  502  0.48749566589E+01 -0.35098287135E+02  0.42445419573E+03  0.42595127848E+03  0.41800000000E+01 0. -1.
        -11    1    4    4    0    0  0.66083314304E+02 -0.82475364081E+01  0.23865944751E+03  0.24777683139E+03  0.00000000000E+00 0. -1.
         11    1    4    4    0    0  0.32724449489E+02  0.67771664811E+02  0.11255427696E+03  0.13539702141E+03  0.00000000000E+00 0.  1.
</event>
<event>
 8    1  0.6493926E-009  0.8130490E+02  0.7561462E-02  0.1325389E+00
         -1   -1    0    0    0  501 -0.00000000000E+00  0.00000000000E+00  0.80371299221E+02  0.80371299221E+02  0.00000000000E+00 0.  1.
          1   -1    0    0  501    0  0.00000000000E+00 -0.00000000000E+00 -0.16196325166E+03  0.16196325166E+03  0.00000000000E+00 0. -1.
         25    2    1    2    0    0 -0.51068759477E+01 -0.29830620447E+02 -0.67404211351E+02  0.14527892240E+03  0.12508673586E+03 0.  0.
         23    2    1    2    0    0  0.51068759477E+01  0.29830620447E+02 -0.14187741085E+02  0.97055628473E+02  0.91118367649E+02 0.  0.
          5    1    3    3  502    0  0.21521248858E+02  0.71281541815E+01 -0.90953414613E+02  0.93829477054E+02  0.41800000000E+01 0.  1.
         -5    1    3    3    0  502 -0.26628124806E+02 -0.36958774628E+02  0.23549203261E+02  0.51449445351E+02  0.41800000000E+01 0.  1.
        -11    1    4    4    0    0  0.32643389500E+02  0.49977198073E+02  0.10155731375E+01  0.59702115491E+02  0.00000000000E+00 0.  1.
         11    1    4    4    0    0 -0.27536513553E+02 -0.20146577627E+02 -0.15203314223E+02  0.37353512982E+02  0.00000000000E+00 0. -1.
</event>
<event>
 8    1  0.6493926E-009  0.1172455E+03  0.7561462E-02  0.1247712E+00
         -2   -1    0    0    0  501 -0.00000000000E+00  0.00000000000E+00  0.11207868871E+03  0.11207868871E+03  0.00000000000E+00 0.  1.
          2   -1    0    0  501    0  0.00000000000E+00 -0.00000000000E+00 -0.16648906386E+03  0.16648906386E+03  0.00000000000E+00 0. -1.
         25    2    1    2    0    0 -0.79967424370E+02 -0.24030018051E+02 -0.17411825851E+02  0.15141020856E+03  0.12509855654E+03 0.  0.
         23    2    1    2    0    0  0.79967424370E+02  0.24030018051E+02 -0.36998549302E+02  0.12715754401E+03  0.88475519890E+02 0.  0.
          5    1    3    3  502    0 -0.62130735881E+02 -0.73592243636E+02 -0.20201955636E+02  0.98496893738E+02  0.41800000000E+01 0.  1.
         -5    1    3    3    0  502 -0.17836688488E+02  0.49562225585E+02  0.27901297849E+01  0.52913314821E+02  0.41800000000E+01 0.  1.
        -11    1    4    4    0    0  0.34082830362E+02  0.14620351667E+01  0.28226738976E+02  0.44277823632E+02  0.00000000000E+00 0.  1.
         11    1    4    4    0    0  0.45884594008E+02  0.22567982884E+02 -0.65225288278E+02  0.82879720376E+02  0.00000000000E+00 0. -1.
</event>
<event>
 8    1  0.6493926E-009  0.3470789E+03  0.7561462E-02  0.1063820E+00
          2   -1    0    0  501    0  0.00000000000E+00  0.00000000000E+00  0.19504206896E+04  0.19504206896E+04  0.00000000000E+00 0. -1.
         -2   -1    0    0    0  501 -0.00000000000E+00 -0.00000000000E+00 -0.67313785647E+02  0.67313785647E+02  0.00000000000E+00 0.  1.
         25    2    1    2    0    0  0.18406372695E+03 -0.29053046516E+03  0.10266395135E+04  0.10899219054E+04  0.12511459693E+03 0.  0.
         23    2    1    2    0    0 -0.18406372695E+03  0.29053046516E+03  0.85646739042E+03  0.92781256984E+03  0.94933487958E+02 0.  0.
          5    1    3    3  502    0  0.99710934536E+02 -0.21199635630E+03  0.52048545751E+03  0.57079533060E+03  0.41800000000E+01 0. -1.
         -5    1    3    3    0  502  0.84352792416E+02 -0.78534108860E+02  0.50615405600E+03  0.51912657479E+03  0.41800000000E+01 0. -1.
        -11    1    4    4    0    0 -0.10897919327E+03  0.15328847592E+03  0.34475140347E+03  0.39271790335E+03  0.00000000000E+00 0.  1.
         11    1    4    4    0    0 -0.75084533680E+02  0.13724198925E+03  0.51171598695E+03  0.53509466649E+03  0.00000000000E+00 0. -1.
</event>
<event>
 8    1  0.6493926E-009  0.1121711E+03  0.7561462E-02  0.1256601E+00
          1   -1    0    0  501    0  0.00000000000E+00  0.00000000000E+00  0.18342702367E+03  0.18342702367E+03  0.00000000000E+00 0.  1.
         -1   -1    0    0    0  501 -0.00000000000E+00 -0.00000000000E+00 -0.91171195966E+02  0.91171195966E+02  0.00000000000E+00 0. -1.
         25    2    1    2    0    0  0.20923692749E+02  0.17295856796E+02  0.11763279963E+03  0.17384509490E+03  0.12509074262E+03 0.  0.
         23    2    1    2    0    0 -0.20923692749E+02 -0.17295856796E+02 -0.25376971931E+02  0.10075312474E+03  0.93649633525E+02 0.  0.
          5    1    3    3  502    0 -0.25286746585E+02 -0.43841002391E+02  0.39647473424E+02  0.64427071891E+02  0.41800000000E+01 0. -1.
         -5    1    3    3    0  502  0.46210439334E+02  0.61136859187E+02  0.77985326207E+02  0.10941802301E+03  0.41800000000E+01 0. -1.
        -11    1    4    4    0    0 -0.27942949065E+02 -0.53271212100E+02 -0.98932762015E+01  0.60963163919E+02  0.00000000000E+00 0.  1.
         11    1    4    4    0    0  0.70192563155E+01  0.35975355304E+02 -0.15483695729E+02  0.39789960818E+02  0.00000000000E+00 0. -1.
</event>
<event>
 8    1  0.6493926E-009  0.1003620E+03  0.7561462E-02  0.1279537E+00
         -2   -1    0    0    0  501 -0.00000000000E+00  0.00000000000E+00  0.49498559197E+02  0.49498559197E+02  0.00000000000E+00 0.  1.
          2   -1    0    0  501    0  0.00000000000E+00 -0.00000000000E+00 -0.25127550924E+03  0.25127550924E+03  0.00000000000E+00 0. -1.
         25    2    1    2    0    0  0.19026444970E+02  0.77635172279E+01 -0.13791270894E+03  0.18731844309E+03  0.12508399589E+03 0.  0.
         23    2    1    2    0    0 -0.19026444970E+02 -0.77635172279E+01 -0.63864241104E+02  0.11345562534E+03  0.91494589034E+02 0.  0.
          5    1    3    3  502    0  0.11759138690E+02 -0.55709252395E+02 -0.92953511578E+02  0.10908540626E+03  0.41800000000E+01 0.  1.
         -5    1    3    3    0  502  0.72673062807E+01  0.63472769623E+02 -0.44959197362E+02  0.78233036829E+02  0.41800000000E+01 0.  1.
        -11    1    4    4    0    0  0.29937011337E+02  0.56948100209E+00 -0.55537666031E+02  0.63095018065E+02  0.00000000000E+00 0. -1.
         11    1    4    4    0    0 -0.48963456308E+02 -0.83329982300E+01 -0.83265750723E+01  0.50360607279E+02  0.00000000000E+00 0.  1.
</event>
<event>
 8    1  0.6493926E-009  0.8706180E+02  0.7561462E-02  0.1310127E+00
          1   -1    0    0  501    0  0.00000000000E+00  0.00000000000E+00  0.42357905024E+03  0.42357905024E+03  0.00000000000E+00 0. -1.
         -1   -1    0    0    0  501 -0.00000000000E+00 -0.00000000000E+00 -0.34752240283E+02  0.34752240283E+02  0.00000000000E+00 0.  1.
         25    2    1    2    0    0  0.26173331268E+02  0.14430648812E+02  0.30735571873E+03  0.33317879534E+03  0.12508910796E+03 0.  0.
         23    2    1    2    0    0 -0.26173331268E+02 -0.14430648812E+02  0.81471091227E+02  0.12515249519E+03  0.90179384848E+02 0.  0.
          5    1    3    3  502    0 -0.21768404554E+01 -0.43428589859E+02  0.22143098353E+03  0.22569876810E+03  0.41800000000E+01 0.  1.
         -5    1    3    3    0  502  0.28350171724E+02  0.57859238672E+02  0.85924735201E+02  0.10748002724E+03  0.41800000000E+01 0.  1.
        -11    1    4    4    0    0 -0.33065826816E+02  0.14519863822E+02  0.87614456691E+02  0.94765333164E+02  0.00000000000E+00 0. -1.
         11    1    4    4    0    0  0.68924955474E+01 -0.28950512634E+02 -0.61433654648E+01  0.30387162025E+02  0.00000000000E+00 0.  1.
</event>
<event>
 8    1  0.6493926E-009  0.1364851E+03  0.7561462E-02  0.1218138E+00
         -1   -1    0    0    0  501 -0.00000000000E+00  0.00000000000E+00  0.13999123934E+03  0.13999123934E+03  0.00000000000E+00 0.  1.
          1   -1    0    0  501    0  0.00000000000E+00 -0.00000000000E+00 -0.14255442765E+03  0.14255442765E+03  0.00000000000E+00 0. -1.
         25    2    1    2    0    0 -0.73596890153E+02 -0.47788802970E+02  0.24590748192E+02  0.15476406499E+03  0.12508772516E+03 0.  0.
         23    2    1    2    0    0  0.73596890153E+02  0.47788802970E+02 -0.27153936508E+02  0.12778160200E+03  0.88828653103E+02 0.  0.
          5    1    3    3  502    0 -0.36001353351E+02 -0.89076763873E+02  0.87213142298E+01  0.96562420366E+02  0.41800000000E+01 0. -1.
         -5    1    3    3    0  502 -0.37595536802E+02  0.41287960903E+02  0.15869433963E+02  0.58201644626E+02  0.41800000000E+01 0. -1.
        -11    1    4    4    0    0  0.76253680688E+00 -0.20767777423E+02 -0.17724777390E+02  0.27313911749E+02  0.00000000000E+00 0. -1.
         11    1    4    4    0    0  0.72834353346E+02  0.68556580393E+02 -0.94291591177E+01  0.10046769025E+03  0.00000000000E+00 0.  1.
</event>
<event>
 8    1  0.6493926E-009  0.1189742E+03  0.7561462E-02  0.1244799E+00
         -2   -1    0    0    0  501 -0.00000000000E+00  0.00000000000E+00  0.33621272079E+03  0.33621272079E+03  0.00000000000E+00 0.  1.
          2   -1    0    0  501    0  0.00000000000E+00 -0.00000000000E+00 -0.45478612829E+02  0.45478612829E+02  0.00000000000E+00 0. -1.
         25    2    1    2    0    0 -0.44932306166E+02 -0.28068446163E+02  0.20713315563E+03  0.24770500772E+03  0.12508747690E+03 0.  0.
         23    2    1    2    0    0  0.44932306166E+02  0.28068446163E+02  0.83600952329E+02  0.13398632590E+03  0.90313157911E+02 0.  0.
          5    1    3    3  502    0 -0.38501968854E+02  0.46137772551E+02  0.77743204655E+02  0.98349244692E+02  0.41800000000E+01 0. -1.
         -5    1    3    3    0  502 -0.64303373120E+01 -0.74206218715E+02  0.12938995098E+03  0.14935576302E+03  0.41800000000E+01 0. -1.
        -11    1    4    4    0    0  0.72054355432E+02  0.21676921783E+02  0.70818177408E+02  0.10332924720E+03  0.00000000000E+00 0.  1.
         11    1    4    4    0    0 -0.27122049266E+02  0.63915243804E+01  0.12782774921E+02  0.30657078709E+02  0.00000000000E+00 0. -1.
</event>
<event>
 8    1  0.6493926E-009  0.1000777E+03  0.7561462E-02  0.1280133E+00
         -1   -1    0    0    0  501 -0.00000000000E+00  0.00000000000E+00  0.85859029958E+02  0.85859029958E+02  0.00000000000E+00 0.  1.
          1   -1    0    0  501    0  0.00000000000E+00 -0.00000000000E+00 -0.13325690214E+03  0.13325690214E+03  0.00000000000E+00 0. -1.
         25    2    1    2    0    0  0.69590750026E+01  0.11049260456E+01 -0.42884631468E+02  0.13242555469E+03  0.12509111213E+03 0.  0.
         23    2    1    2    0    0 -0.69590750026E+01 -0.11049260456E+01 -0.45132407125E+01  0.86690377404E+02  0.86285587477E+02 0.  0.
          5    1    3    3  502    0  0.62495995356E+02 -0.66870339807E+01 -0.22265450986E+01  0.63030911163E+02  0.41800000000E+01 0. -1.
         -5    1    3    3    0  502 -0.55536920353E+02  0.77919600262E+01 -0.40658086370E+02  0.69394643529E+02  0.41800000000E+01 0. -1.
        -11    1    4    4    0    0 -0.39625375331E+02 -0.18708395760E+02  0.12929819229E+02  0.45687576729E+02  0.00000000000E+00 0.  1.
         11    1    4    4    0    0  0.32666300328E+02  0.17603469715E+02 -0.17443059941E+02  0.41002800676E+02  0.00000000000E+00 0. -1.
</event>
<event>
 8    1  0.6493926E-009  0.1259234E+03  0.7561462E-02  0.1233633E+00
         -2   -1    0    0    0  501 -0.00000000000E+00  0.00000000000E+00  0.11706882784E+02  0.11706882784E+02  0.00000000000E+00 0.  1.
          2   -1    0    0  501    0  0.00000000000E+00 -0.00000000000E+00 -0.17077032417E+04  0.17077032417E+04  0.00000000000E+00 0. -1.
         25    2    1    2    0    0 -0.74075197827E+02  0.67260713820E+01 -0.12427802315E+04  0.12512718291E+04  0.12508441764E+03 0.  0.
         23    2    1    2    0    0  0.74075197827E+02 -0.67260713820E+01 -0.45321612739E+03  0.46813829535E+03  0.90643424915E+02 0.  0.
          5    1    3    3  502    0 -0.56285207912E+02 -0.51880571798E+02 -0.48639328317E+03  0.49239772204E+03  0.41800000000E+01 0.  1.
         -5    1    3    3    0  502 -0.17789989916E+02  0.58606643180E+02 -0.75638694836E+03  0.75887410710E+03  0.41800000000E+01 0.  1.
        -11    1    4    4    0    0 -0.18584754707E+01 -0.33295303032E+02 -0.18995107240E+03  0.19285601116E+03  0.00000000000E+00 0. -1.
         11    1    4    4    0    0  0.75933673298E+02  0.26569231650E+02 -0.26326505499E+03  0.27528228419E+03  0.00000000000E+00 0.  1.
</event>
<event>
 8    1  0.6493926E-009  0.2670078E+03  0.7561462E-02  0.1103004E+00
         -1   -1    0    0    0  501 -0.00000000000E+00  0.00000000000E+00  0.30936615172E+02  0.30936615172E+02  0.00000000000E+00 0.  1.
          1   -1    0    0  501    0  0.00000000000E+00 -0.00000000000E+00 -0.24941106194E+04  0.24941106194E+04  0.00000000000E+00 0. -1.
         25    2    1    2    0    0 -0.17266432199E+03  0.18630279760E+03 -0.13665869301E+04  0.13956105226E+04  0.12508873906E+03 0.  0.
         23    2    1    2    0    0  0.17266432199E+03 -0.18630279760E+03 -0.10965870740E+04  0.11294367119E+04  0.92748988363E+02 0.  0.
          5    1    3    3  502    0 -0.16263899894E+03  0.12564675956E+03 -0.81220339979E+03  0.83781285929E+03  0.41800000000E+01 0. -1.
         -5    1    3    3    0  502 -0.10025323053E+02  0.60656038034E+02 -0.55438353036E+03  0.55779766330E+03  0.41800000000E+01 0. -1.
        -11    1    4    4    0    0  0.58668130100E+02 -0.12339088065E+03 -0.65274074027E+03  0.66688659675E+03  0.00000000000E+00 0.  1.
         11    1    4    4    0    0  0.11399619189E+03 -0.62911916945E+02 -0.44384633376E+03  0.46255011518E+03  0.00000000000E+00 0. -1.
</event>
<event>
 8    1  0.6493926E-009  0.7382966E+02  0.7561462E-02  0.1347534E+00
         -2   -1    0    0    0  501 -0.00000000000E+00  0.00000000000E+00  0.54980839281E+02  0.54980839281E+02  0.00000000000E+00 0.  1.
          2   -1    0    0  501    0  0.00000000000E+00 -0.00000000000E+00 -0.27278532036E+03  0.27278532036E+03  0.00000000000E+00 0. -1.
         25    2    1    2    0    0 -0.39013202594E+02  0.31867250217E+02 -0.89997025509E+02  0.16212521217E+03  0.12509024025E+03 0.  0.
         23    2    1    2    0    0  0.39013202594E+02 -0.31867250217E+02 -0.12780745557E+03  0.16564094748E+03  0.92545265511E+02 0.  0.
          5    1    3    3  502    0 -0.74009606772E+01  0.56375432998E+02  0.66934136278E+01  0.57404162311E+02  0.41800000000E+01 0.  1.
         -5    1    3    3    0  502 -0.31612241917E+02 -0.24508182781E+02 -0.96690439137E+02  0.10472104985E+03  0.41800000000E+01 0.  1.
        -11    1    4    4    0    0  0.18354746783E+02 -0.16512455069E+02 -0.13631402973E+03  0.13853184689E+03  0.00000000000E+00 0. -1.
         11    1    4    4    0    0  0.20658455811E+02 -0.15354795148E+02  0.85065741606E+01  0.27109100584E+02  0.00000000000E+00 0.  1.
</event>
<event>
 8    1  0.6493926E-009  0.1217483E+03  0.7561462E-02  0.1240241E+00
         -1   -1    0    0    0  501 -0.00000000000E+00  0.00000000000E+00  0.12535204088E+02  0.12535204088E+02  0.00000000000E+00 0.  1.
          1   -1    0    0  501    0  0.00000000000E+00 -0.00000000000E+00 -0.19154968560E+04  0.19154968560E+04  0.00000000000E+00 0. -1.
         25    2    1    2    0    0 -0.20343518950E+02 -0.52519727359E+02 -0.16191700425E+04  0.16249712511E+04  0.12509100541E+03 0.  0.
         23    2    1    2    0    0  0.20343518950E+02  0.52519727359E+02 -0.28379160935E+03  0.30306080900E+03  0.90199755455E+02 0.  0.
          5    1    3    3  502    0  0.51983849462E+02 -0.34432822048E+02 -0.72362473687E+03  0.72631823056E+03  0.41800000000E+01 0.  1.
         -5    1    3    3    0  502 -0.72327368412E+02 -0.18086905311E+02 -0.89554530565E+03  0.89865302049E+03  0.41800000000E+01 0.  1.
        -11    1    4    4    0    0 -0.15459607131E+02 -0.20104720168E+02 -0.69316129705E+02  0.73810060716E+02  0.00000000000E+00 0.  1.
         11    1    4    4    0    0  0.35803126081E+02  0.72624447527E+02 -0.21447547965E+03  0.22925074828E+03  0.00000000000E+00 0. -1.
</event>
<event>
 8    1  0.6493926E-009  0.1019072E+03  0.7561462E-02  0.1276336E+00
          2   -1    0    0  501    0  0.00000000000E+00  0.00000000000E+00  0.11315319436E+03  0.11315319436E+03  0.00000000000E+00 0. -1.
         -2   -1    0    0    0  501 -0.00000000000E+00 -0.00000000000E+00 -0.12832729430E+03  0.12832729430E+03  0.00000000000E+00 0.  1.
         25    2    1    2    0    0  0.10374801550E+02  0.47738812126E+02  0.88964655483E+01  0.13458404370E+03  0.12508831691E+03 0.  0.
         23    2    1    2    0    0 -0.10374801550E+02 -0.47738812126E+02 -0.24070565486E+02  0.10689644496E+03  0.91982754539E+02 0.  0.
          5    1    3    3  502    0  0.56595106199E+02  0.56577478664E+02  0.26143795130E+02  0.84291088268E+02  0.41800000000E+01 0.  1.
         -5    1    3    3    0  502 -0.46220304649E+02 -0.88386665377E+01 -0.17247329581E+02  0.50292955428E+02  0.41800000000E+01 0.  1.
        -11    1    4    4    0    0  0.24336687049E+02 -0.25296443200E+02  0.24732994425E+02  0.42940719467E+02  0.00000000000E+00 0. -1.
         11    1    4    4    0    0 -0.34711488600E+02 -0.22442368926E+02 -0.48803559911E+02  0.63955725497E+02  0.00000000000E+00 0.  1.
</event>
<event>
 8    1  0.6493926E-009  0.1594430E+03  0.7561462E-02  0.1189327E+00
         -2   -1    0    0    0  501 -0.00000000000E+00  0.00000000000E+00  0.37780129880E+02  0.37780129880E+02  0.00000000000E+00 0.  1.
          2   -1    0    0  501    0  0.00000000000E+00 -0.00000000000E+00 -0.95472738426E+03  0.95472738426E+03  0.00000000000E+00 0. -1.
         25    2    1    2    0    0  0.21483802388E+02 -0.13834902089E+03 -0.65815237101E+03  0.68440786908E+03  0.12509029716E+03 0.  0.
         23    2    1    2    0    0 -0.21483802388E+02  0.13834902089E+03 -0.25879488337E+03  0.30809964506E+03  0.91370642350E+02 0.  0.
          5    1    3    3  502    0 -0.22911767035E+02 -0.38318022265E+02 -0.41874415511E+03  0.42113817179E+03  0.41800000000E+01 0.  1.
         -5    1    3    3    0  502  0.44395569423E+02 -0.10003099862E+03 -0.23940821590E+03  0.26326969729E+03  0.41800000000E+01 0.  1.
        -11    1    4    4    0    0  0.13043334351E+02  0.12774110711E+03 -0.22250744226E+03  0.25689974869E+03  0.00000000000E+00 0. -1.
         11    1    4    4    0    0 -0.34527136739E+02  0.10607913782E+02 -0.36287441104E+02  0.51199896367E+02  0.00000000000E+00 0.  1.
</event>
<event>
 8    1  0.6493926E-009  0.1096497E+03  0.7561462E-02  0.1261220E+00
          2   -1    0    0  501    0  0.00000000000E+00  0.00000000000E+00  0.10523116660E+04  0.10523116660E+04  0.00000000000E+00 0. -1.
         -2   -1    0    0    0  501 -0.00000000000E+00 -0.00000000000E+00 -0.19823416436E+02  0.19823416436E+02  0.00000000000E+00 0.  1.
         25    2    1    2    0    0 -0.42553850734E+02 -0.34366487285E+02  0.85279389273E+03  0.86365346894E+03  0.12509198724E+03 0.  0.
         23    2    1    2    0    0  0.42553850734E+02  0.34366487285E+02  0.17969435682E+03  0.20848161348E+03  0.90457921856E+02 0.  0.
          5    1    3    3  502    0 -0.40230261745E+02 -0.80254945158E+02  0.52679686800E+03  0.53440784305E+03  0.41800000000E+01 0.  1.
         -5    1    3    3    0  502 -0.23235889887E+01  0.45888457873E+02  0.32599702473E+03  0.32924562589E+03  0.41800000000E+01 0.  1.
        -11    1    4    4    0    0  0.18864935921E+02 -0.17838393796E+02  0.75446444595E+01  0.27037303130E+02  0.00000000000E+00 0.  1.
         11    1    4    4    0    0  0.23688914813E+02  0.52204881081E+02  0.17214971236E+03  0.18144431035E+03  0.00000000000E+00 0. -1.
</event>
<event>
 8    1  0.6493926E-009  0.1036437E+03  0.7561462E-02  0.1272815E+00
          1   -1    0    0  501    0  0.00000000000E+00  0.00000000000E+00  0.13419214742E+03  0.13419214742E+03  0.00000000000E+00 0. -1.
         -1   -1    0    0    0  501 -0.00000000000E+00 -0.00000000000E+00 -0.10725721836E+03  0.10725721836E+03  0.00000000000E+00 0.  1.
         25    2    1    2    0    0  0.48915287806E+02 -0.99162144876E+01  0.20640254936E+02  0.13625652225E+03  0.12509509599E+03 0.  0.
         23    2    1    2    0    0 -0.48915287806E+02  0.99162144876E+01  0.62946741294E+01  0.10519284353E+03  0.92384385676E+02 0.  0.
          5    1    3    3  502    0 -0.33750218582E+02  0.37085028890E+01  0.37429701314E+02  0.50707841489E+02  0.41800000000E+01 0.  1.
         -5    1    3    3    0  502  0.82665506388E+02 -0.13624717377E+02 -0.16789446378E+02  0.85548680759E+02  0.41800000000E+01 0.  1.
        -11    1    4    4    0    0 -0.16428569375E+02 -0.32113269342E+02  0.30100947744E+02  0.46981134667E+02  0.00000000000E+00 0.  1.
         11    1    4    4    0    0 -0.32486718431E+02  0.42029483829E+02 -0.23806273615E+02  0.58211708863E+02  0.00000000000E+00 0. -1.
</event>
<event>
 8    1  0.6493926E-009  0.1103909E+03  0.7561462E-02  0.1259848E+00
          3   -1    0    0  501    0  0.00000000000E+00  0.00000000000E+00  0.13677888130E+03  0.13677888130E+03  0.00000000000E+00 0. -1.
         -3   -1    0    0    0  501 -0.00000000000E+00 -0.00000000000E+00 -0.14261108325E+03  0.14261108325E+03  0.00000000000E+00 0.  1.
         25    2    1    2    0    0  0.38629385787E+02  0.65123723621E+02  0.40462193959E+02  0.15171185996E+03  0.12508385382E+03 0.  0.
         23    2    1    2    0    0 -0.38629385787E+02 -0.65123723621E+02 -0.46294395909E+02  0.12767810460E+03  0.91788879914E+02 0.  0.
          5    1    3    3  502    0  0.54425086782E+02  0.68689155437E+02 -0.19146353843E+02  0.89801700492E+02  0.41800000000E+01 0.  1.
         -5    1    3    3    0  502 -0.15795700995E+02 -0.35654318157E+01  0.59608547802E+02  0.61910159465E+02  0.41800000000E+01 0.  1.
        -11    1    4    4    0    0  0.13948541959E+02 -0.62109840916E+02 -0.38624319510E+02  0.74458258232E+02  0.00000000000E+00 0. -1.
         11    1    4    4    0    0 -0.52577927745E+02 -0.30138827051E+01 -0.76700763992E+01  0.53219846363E+02  0.00000000000E+00 0.  1.
</event>
<event>
 8    1  0.6493926E-009  0.1273378E+03  0.7561462E-02  0.1231460E+00
         -2   -1    0    0    0  501 -0.00000000000E+00  0.00000000000E+00  0.34709386948E+03  0.34709386948E+03  0.00000000000E+00 0.  1.
          2   -1    0    0  501    0  0.00000000000E+00 -0.00000000000E+00 -0.78017977085E+02  0.78017977085E+02  0.00000000000E+00 0. -1.
         25    2    1    2    0    0 -0.63200973650E+02 -0.21437331388E+02  0.98304351871E+01  0.14212271691E+03  0.12509319310E+03 0.  0.
         23    2    1    2    0    0  0.63200973650E+02  0.21437331388E+02  0.25924545721E+03  0.28298912965E+03  0.91764471184E+02 0.  0.
          5    1    3    3  502    0 -0.92060491781E+02  0.16566652230E+02  0.10468651461E+02  0.94215992148E+02  0.41800000000E+01 0. -1.
         -5    1    3    3    0  502  0.28859518131E+02 -0.38003983618E+02 -0.63821627398E+00  0.47906724764E+02  0.41800000000E+01 0. -1.
        -11    1    4    4    0    0  0.86830543417E+02  0.21733064383E+02  0.21339101080E+03  0.23140352816E+03  0.00000000000E+00 0.  1.
         11    1    4    4    0    0 -0.23629569768E+02 -0.29573299468E+00  0.45854446409E+02  0.51585601488E+02  0.00000000000E+00 0. -1.
</event>
<event>
 8    1  0.6493926E-009  0.1111736E+03  0.7561462E-02  0.1258412E+00
         -2   -1    0    0    0  501 -0.00000000000E+00  0.00000000000E+00  0.41348869706E+03  0.41348869706E+03  0.00000000000E+00 0. -1.
          2   -1    0    0  501    0  0.00000000000E+00 -0.00000000000E+00 -0.44806620450E+02  0.44806620450E+02  0.00000000000E+00 0.  1.
         25    2    1    2    0    0 -0.71734204811E+02 -0.35349729878E+02  0.17066661308E+03  0.22619779000E+03  0.12507177075E+03 0.  0.
         23    2    1    2    0    0  0.71734204811E+02  0.35349729878E+02  0.19801546352E+03  0.23209752751E+03  0.90905109522E+02 0.  0.
          5    1    3    3  502    0 -0.77543086754E+02  0.28330054277E+01  0.35267499927E+02  0.85335954757E+02  0.41800000000E+01 0.  1.
         -5    1    3    3    0  502  0.58088819430E+01 -0.38182735305E+02  0.13539911316E+03  0.14086183525E+03  0.41800000000E+01 0.  1.
        -11    1    4    4    0    0  0.15306823313E+02  0.45901740556E+02  0.14884492441E+03  0.15651223642E+03  0.00000000000E+00 0. -1.
         11    1    4    4    0    0  0.56427381499E+02 -0.10552010678E+02  0.49170539117E+02  0.75585291090E+02  0.00000000000E+00 0.  1.
</event>
<event>
 8    1  0.6493926E-009  0.1196451E+03  0.7561462E-02  0.1243684E+00
         -1   -1    0    0    0  501 -0.00000000000E+00  0.00000000000E+00  0.20713953037E+02  0.20713953037E+02  0.00000000000E+00 0.  1.
          1   -1    0    0  501    0  0.00000000000E+00 -0.00000000000E+00 -0.94286606349E+03  0.94286606349E+03  0.00000000000E+00 0. -1.
         25    2    1    2    0    0 -0.12155234647E+02  0.86359862114E+02 -0.56812460800E+03  0.58823328774E+03  0.12508818921E+03 0.  0.
         23    2    1    2    0    0  0.12155234647E+02 -0.86359862114E+02 -0.35402750246E+03  0.37534672879E+03  0.89128664310E+02 0.  0.
          5    1    3    3  502    0 -0.44878521821E+02  0.68520870941E+02 -0.52375198849E+03  0.53013470866E+03  0.41800000000E+01 0.  1.
         -5    1    3    3    0  502  0.32723287174E+02  0.17838991173E+02 -0.44372619505E+02  0.58098579081E+02  0.41800000000E+01 0.  1.
        -11    1    4    4    0    0  0.46569235831E+02 -0.36411154482E+02 -0.12267642925E+03  0.13617625414E+03  0.00000000000E+00 0.  1.
         11    1    4    4    0    0 -0.34414001184E+02 -0.49948707632E+02 -0.23135107321E+03  0.23917047465E+03  0.00000000000E+00 0. -1.
</event>
<event>
 8    1  0.6493926E-009  0.1129619E+03  0.7561462E-02  0.1255181E+00
         -2   -1    0    0    0  501 -0.00000000000E+00  0.00000000000E+00  0.71952750284E+02  0.71952750284E+02  0.00000000000E+00 0.  1.
          2   -1    0    0  501    0  0.00000000000E+00 -0.00000000000E+00 -0.28058997677E+03  0.28058997677E+03  0.00000000000E+00 0. -1.
         25    2    1    2    0    0  0.64316462322E+02 -0.54250197468E+02 -0.15566339978E+03  0.21669791104E+03  0.12508876595E+03 0.  0.
         23    2    1    2    0    0 -0.64316462322E+02  0.54250197468E+02 -0.52973826710E+02  0.13584481602E+03  0.92562932491E+02 0.  0.
          5    1    3    3  502    0 -0.16433252998E+02  0.23384804501E+02 -0.56544689867E+01  0.29433761315E+02  0.41800000000E+01 0. -1.
         -5    1    3    3    0  502  0.80749715320E+02 -0.77635001969E+02 -0.15000893079E+03  0.18726414972E+03  0.41800000000E+01 0. -1.
        -11    1    4    4    0    0 -0.37051373224E+02  0.38606558877E+02  0.19417130595E+02  0.56923594463E+02  0.00000000000E+00 0.  1.
         11    1    4    4    0    0 -0.27265089099E+02  0.15643638591E+02 -0.72390957305E+02  0.78921221553E+02  0.00000000000E+00 0. -1.
</event>
<event>
 8    1  0.6493926E-009  0.1380000E+03  0.7561462E-02  0.1216046E+00
          1   -1    0    0  501    0  0.00000000000E+00  0.00000000000E+00  0.19926149369E+03  0.19926149369E+03  0.00000000000E+00 0. -1.
         -1   -1    0    0    0  501 -0.00000000000E+00 -0.00000000000E+00 -0.12240766854E+03  0.12240766854E+03  0.00000000000E+00 0.  1.
         25    2    1    2    0    0  0.81675545343E+02 -0.53530728437E+02  0.99927569263E+02  0.18753908548E+03  0.12509578687E+03 0.  0.
         23    2    1    2    0    0 -0.81675545343E+02  0.53530728437E+02 -0.23073744105E+02  0.13413007674E+03  0.89005877480E+02 0.  0.
          5    1    3    3  502    0 -0.32377083050E+02 -0.24825749768E+02  0.25376860494E+02  0.48229148934E+02  0.41800000000E+01 0. -1.
         -5    1    3    3    0  502  0.11405262839E+03 -0.28704978669E+02  0.74550708769E+02  0.13930993655E+03  0.41800000000E+01 0. -1.
        -11    1    4    4    0    0 -0.18911260389E+02  0.51105420574E+02  0.19914169503E+02  0.58017014130E+02  0.00000000000E+00 0. -1.
         11    1    4    4    0    0 -0.62764284955E+02  0.24253078627E+01 -0.42987913607E+02  0.76113062614E+02  0.00000000000E+00 0.  1.
</event>
<event>
 8    1  0.6493926E-009  0.7411781E+02  0.7561462E-02  0.1346625E+00
         -2   -1    0    0    0  501 -0.00000000000E+00  0.00000000000E+00  0.27669300627E+02  0.27669300627E+02  0.00000000000E+00 0.  1.
          2   -1    0    0  501    0  0.00000000000E+00 -0.00000000000E+00 -0.52533729580E+03  0.52533729580E+03  0.00000000000E+00 0. -1.
         25    2    1    2    0    0  0.32188302257E+02 -0.31865585095E+02 -0.21665480059E+03  0.25424196762E+03  0.12509265832E+03 0.  0.
         23    2    1    2    0    0 -0.32188302257E+02  0.31865585095E+02 -0.28101319458E+03  0.29876462881E+03  0.90776569563E+02 0.  0.
          5    1    3    3  502    0 -0.52849160399E+01  0.13492214208E+01  0.15371134946E+02  0.16837307550E+02  0.41800000000E+01 0. -1.
         -5    1    3    3    0  502  0.37473218297E+02 -0.33214806515E+02 -0.23202593553E+03  0.23740466007E+03  0.41800000000E+01 0. -1.
        -11    1    4    4    0    0 -0.35046225387E+01  0.54477599392E+02 -0.98342354927E+02  0.11247804224E+03  0.00000000000E+00 0.  1.
         11    1    4    4    0    0 -0.28683679719E+02 -0.22612014298E+02 -0.18267083966E+03  0.18628658657E+03  0.00000000000E+00 0. -1.
</event>
<event>
 8    1  0.6493926E-009  0.1807105E+03  0.7561462E-02  0.1167117E+00
          2   -1    0    0  501    0  0.00000000000E+00  0.00000000000E+00  0.71298459493E+03  0.71298459493E+03  0.00000000000E+00 0. -1.
         -2   -1    0    0    0  501 -0.00000000000E+00 -0.00000000000E+00 -0.56087735830E+02  0.56087735830E+02  0.00000000000E+00 0.  1.
         25    2    1    2    0    0 -0.16283522216E+03  0.25346509380E+02  0.28803448857E+03  0.35463888911E+03  0.12508844853E+03 0.  0.
         23    2    1    2    0    0  0.16283522216E+03 -0.25346509380E+02  0.36886237053E+03  0.41443344165E+03  0.92400617146E+02 0.  0.
          5    1    3    3  502    0  0.75425186744E+01  0.95941631482E+01  0.98181095720E+02  0.99024933786E+02  0.41800000000E+01 0. -1.
         -5    1    3    3    0  502 -0.17037774083E+03  0.15752346232E+02  0.18985339285E+03  0.25561395533E+03  0.41800000000E+01 0. -1.
        -11    1    4    4    0    0  0.12608168574E+03  0.98647493289E+01  0.18824970433E+03  0.22678592535E+03  0.00000000000E+00 0.  1.
         11    1    4    4    0    0  0.36753536420E+02 -0.35211258709E+02  0.18061266621E+03  0.18764751630E+03  0.00000000000E+00 0. -1.
</event>
<event>
 8    1  0.6493926E-009  0.1198307E+03  0.7561462E-02  0.1243377E+00
          2   -1    0    0  501    0  0.00000000000E+00  0.00000000000E+00  0.88552872067E+02  0.88552872067E+02  0.00000000000E+00 0. -1.
         -2   -1    0    0    0  501 -0.00000000000E+00 -0.00000000000E+00 -0.24209117700E+03  0.24209117700E+03  0.00000000000E+00 0.  1.
         25    2    1    2    0    0  0.80926998589E+02 -0.79128652127E+00 -0.14556133260E+03  0.20829254688E+03  0.12509147973E+03 0.  0.
         23    2    1    2    0    0 -0.80926998589E+02  0.79128652127E+00 -0.79769723288E+01  0.12235150219E+03  0.91413635553E+02 0.  0.
          5    1    3    3  502    0  0.15203507736E+01 -0.32677178680E+02 -0.11119985743E+03  0.11598702585E+03  0.41800000000E+01 0. -1.
         -5    1    3    3    0  502  0.79406647815E+02  0.31885892159E+02 -0.34361475169E+02  0.92305521025E+02  0.41800000000E+01 0. -1.
        -11    1    4    4    0    0 -0.34967706609E+02  0.45169821002E+02 -0.11875113286E+02  0.58344421760E+02  0.00000000000E+00 0.  1.
         11    1    4    4    0    0 -0.45959291979E+02 -0.44378534481E+02  0.38981409576E+01  0.64007080428E+02  0.00000000000E+00 0. -1.
</event>
<event>
 8    1  0.6493926E-009  0.1602958E+03  0.7561462E-02  0.1188363E+00
          1   -1    0    0  501    0  0.00000000000E+00  0.00000000000E+00  0.63644675263E+03  0.63644675263E+03  0.00000000000E+00 0. -1.
         -1   -1    0    0    0  501 -0.00000000000E+00 -0.00000000000E+00 -0.56375560073E+02  0.56375560073E+02  0.00000000000E+00 0.  1.
         25    2    1    2    0    0 -0.23655126601E+02  0.14676036573E+03  0.38471287065E+03  0.43098804313E+03  0.12509408663E+03 0.  0.
         23    2    1    2    0    0  0.23655126601E+02 -0.14676036573E+03  0.19535832191E+03  0.26183426958E+03  0.91072173705E+02 0.  0.
          5    1    3    3  502    0 -0.23937195079E+02  0.11641015623E+03  0.38217017458E+03  0.40024471080E+03  0.41800000000E+01 0.  1.
         -5    1    3    3    0  502  0.28206847820E+00  0.30350209500E+02  0.25426960693E+01  0.30743332328E+02  0.41800000000E+01 0.  1.
        -11    1    4    4    0    0  0.24105126806E+02  0.16756391559E+00  0.48154682952E+02  0.53851264667E+02  0.00000000000E+00 0. -1.
         11    1    4    4    0    0 -0.45000020598E+00 -0.14692792965E+03  0.14720363896E+03  0.20798300491E+03  0.00000000000E+00 0.  1.
</event>
<event>
 8    1  0.6493926E-009  0.1082466E+03  0.7561462E-02  0.1263852E+00
          2   -1    0    0  501    0  0.00000000000E+00  0.00000000000E+00  0.29354512951E+03  0.29354512951E+03  0.00000000000E+00 0. -1.
         -2   -1    0    0    0  501 -0.00000000000E+00 -0.00000000000E+00 -0.57663466924E+02  0.57663466924E+02  0.00000000000E+00 0.  1.
         25    2    1    2    0    0  0.16970784240E+02 -0.46005310712E+02  0.66826515384E+02  0.15005893280E+03  0.12508958399E+03 0.  0.
         23    2    1    2    0    0 -0.16970784240E+02  0.46005310712E+02  0.16905514720E+03  0.20114966364E+03  0.97350132276E+02 0.  0.
          5    1    3    3  502    0  0.51665184773E+02 -0.27524087641E+01  0.77657909076E+02  0.93408191898E+02  0.41800000000E+01 0. -1.
         -5    1    3    3    0  502 -0.34694400533E+02 -0.43252901948E+02 -0.10831393692E+02  0.56650740901E+02  0.41800000000E+01 0. -1.
        -11    1    4    4    0    0 -0.33471577682E+02 -0.21305248155E+02  0.63500568938E+02  0.74877115108E+02  0.00000000000E+00 0.  1.
         11    1    4    4    0    0  0.16500793442E+02  0.67310558868E+02  0.10555457826E+03  0.12627254853E+03  0.00000000000E+00 0. -1.
</event>
<event>
 8    1  0.6493926E-009  0.1093021E+03  0.7561462E-02  0.1261868E+00
          2   -1    0    0  501    0  0.00000000000E+00  0.00000000000E+00  0.32777930621E+03  0.32777930621E+03  0.00000000000E+00 0. -1.
         -2   -1    0    0    0  501 -0.00000000000E+00 -0.00000000000E+00 -0.86577768532E+02  0.86577768532E+02  0.00000000000E+00 0.  1.
         25    2    1    2    0    0  0.32765419294E+02 -0.41053515310E+02  0.27296023877E+03  0.30481791323E+03  0.12509078486E+03 0.  0.
         23    2    1    2    0    0 -0.32765419294E+02  0.41053515310E+02 -0.31758701095E+02  0.10953916150E+03  0.90726230976E+02 0.  0.
          5    1    3    3  502    0 -0.29170980029E+02  0.14175815698E+02  0.16696541545E+03  0.17013765657E+03  0.41800000000E+01 0.  1.
         -5    1    3    3    0  502  0.61936399323E+02 -0.55229331008E+02  0.10599482332E+03  0.13468025667E+03  0.41800000000E+01 0.  1.
        -11    1    4    4    0    0 -0.62304927561E+02  0.16633794705E+02 -0.94022111310E+01  0.65168924334E+02  0.00000000000E+00 0. -1.
         11    1    4    4    0    0  0.29539508267E+02  0.24419720605E+02 -0.22356489964E+02  0.44370237171E+02  0.00000000000E+00 0.  1.
</event>
<event>
 8    1  0.6493926E-009  0.1400904E+03  0.7561462E-02  0.1213207E+00
          1   -1    0    0  501    0  0.00000000000E+00  0.00000000000E+00  0.62863968295E+03  0.62863968295E+03  0.00000000000E+00 0. -1.
         -1   -1    0    0    0  501 -0.00000000000E+00 -0.00000000000E+00 -0.38563339453E+02  0.38563339453E+02  0.00000000000E+00 0.  1.
         25    2    1    2    0    0  0.10169633237E+03  0.24019334173E+02  0.39721192804E+03  0.42935270998E+03  0.12508941343E+03 0.  0.
         23    2    1    2    0    0 -0.10169633237E+03 -0.24019334173E+02  0.19286441545E+03  0.23785031243E+03  0.91962035334E+02 0.  0.
          5    1    3    3  502    0 -0.16370847005E+02  0.15486835145E+02  0.18422058969E+03  0.18564090272E+03  0.41800000000E+01 0.  1.
         -5    1    3    3    0  502  0.11806717937E+03  0.85324990286E+01  0.21299133835E+03  0.24371180726E+03  0.41800000000E+01 0.  1.
        -11    1    4    4    0    0 -0.55872936749E+02  0.33596321225E+02  0.81781234279E+02  0.10458808795E+03  0.00000000000E+00 0. -1.
         11    1    4    4    0    0 -0.45823395620E+02 -0.57615655398E+02  0.11108318117E+03  0.13326222448E+03  0.00000000000E+00 0.  1.
</event>
<event>
 8    1  0.6493926E-009  0.1037042E+03  0.7561462E-02  0.1272694E+00
          2   -1    0    0  501    0  0.00000000000E+00  0.00000000000E+00  0.85457131609E+02  0.85457131609E+02  0.00000000000E+00 0. -1.
         -2   -1    0    0    0  501 -0.00000000000E+00 -0.00000000000E+00 -0.13157919908E+03  0.13157919908E+03  0.00000000000E+00 0.  1.
         25    2    1    2    0    0 -0.19072637211E+02  0.19930808111E+01 -0.16273923040E+02  0.12759565655E+03  0.12509225850E+03 0.  0.
         23    2    1    2    0    0  0.19072637211E+02 -0.19930808111E+01 -0.29848144426E+02  0.89440674139E+02  0.82103499338E+02 0.  0.
          5    1    3    3  502    0  0.62733069408E+01  0.61000225707E+02 -0.10971212196E+01  0.61474043232E+02  0.41800000000E+01 0.  1.
         -5    1    3    3    0  502 -0.25345944152E+02 -0.59007144896E+02 -0.15176801820E+02  0.66121613314E+02  0.41800000000E+01 0.  1.
        -11    1    4    4    0    0 -0.28512460758E+02 -0.15054258263E+02 -0.23038814567E+02  0.39627996252E+02  0.00000000000E+00 0.  1.
         11    1    4    4    0    0  0.47585097969E+02  0.13061177452E+02 -0.68093298594E+01  0.49812677887E+02  0.00000000000E+00 0. -1.
</event>
<event>
 8    1  0.6493926E-009  0.1130722E+03  0.7561462E-02  0.1254984E+00
          2   -1    0    0  501    0  0.00000000000E+00  0.00000000000E+00  0.44534837670E+03  0.44534837670E+03  0.00000000000E+00 0. -1.
         -2   -1    0    0    0  501 -0.00000000000E+00 -0.00000000000E+00 -0.35290810658E+02  0.35290810658E+02  0.00000000000E+00 0.  1.
         25    2    1    2    0    0  0.11683597843E+02 -0.47593277305E+02  0.31315207803E+03  0.34075348254E+03  0.12508831034E+03 0.  0.
         23    2    1    2    0    0 -0.11683597843E+02  0.47593277305E+02  0.96905488009E+02  0.13988570482E+03  0.88179988107E+02 0.  0.
          5    1    3    3  502    0 -0.49920364827E+02 -0.50539791726E+02  0.19156074780E+03  0.20435093802E+03  0.41800000000E+01 0. -1.
         -5    1    3    3    0  502  0.61603962670E+02  0.29465144214E+01  0.12159133023E+03  0.13640254452E+03  0.41800000000E+01 0. -1.
        -11    1    4    4    0    0 -0.45076779856E+02  0.17961224043E+02  0.23368014566E+02  0.53857086405E+02  0.00000000000E+00 0.  1.
         11    1    4    4    0    0  0.33393182013E+02  0.29632053262E+02  0.73537473443E+02  0.86028618412E+02  0.00000000000E+00 0. -1.
</event>
<event>
 8    1  0.6493926E-009  0.1168835E+03  0.7561462E-02  0.1248329E+00
         -1   -1    0    0    0  501 -0.00000000000E+00  0.00000000000E+00  0.13153791774E+03  0.13153791774E+03  0.00000000000E+00 0.  1.
          1   -1    0    0  501    0  0.00000000000E+00 -0.00000000000E+00 -0.20745986163E+03  0.20745986163E+03  0.00000000000E+00 0. -1.
         25    2    1    2    0    0 -0.33099809526E+02 -0.34279051721E+02 -0.15874425413E+03  0.20764848652E+03  0.12508998744E+03 0.  0.
         23    2    1    2    0    0  0.33099809526E+02  0.34279051721E+02  0.82822310238E+02  0.13134929285E+03  0.90124640818E+02 0.  0.
          5    1    3    3  502    0 -0.69643125700E+02  0.14335223079E+02 -0.10169254491E+03  0.12415518381E+03  0.41800000000E+01 0. -1.
         -5    1    3    3    0  502  0.36543316175E+02 -0.48614274800E+02 -0.57051709223E+02  0.83493302706E+02  0.41800000000E+01 0. -1.
        -11    1    4    4    0    0  0.13851088417E+02 -0.30769443554E+02  0.32855747809E+02  0.47096830796E+02  0.00000000000E+00 0.  1.
         11    1    4    4    0    0  0.19248721109E+02  0.65048495275E+02  0.49966562429E+02  0.84252462058E+02  0.00000000000E+00 0. -1.
</event>
<event>
 8    1  0.6493926E-009  0.1813343E+03  0.7561462E-02  0.1166518E+00
          3   -1    0    0  501    0  0.00000000000E+00  0.00000000000E+00  0.16058578455E+03  0.16058578455E+03  0.00000000000E+00 0. -1.
         -3   -1    0    0    0  501 -0.00000000000E+00 -0.00000000000E+00 -0.32044992630E+03  0.32044992630E+03  0.00000000000E+00 0.  1.
         25    2    1    2    0    0  0.46546401904E+02  0.15778060291E+03 -0.20101177489E+03  0.28829837751E+03  0.12509570194E+03 0.  0.
         23    2    1    2    0    0 -0.46546401904E+02 -0.15778060291E+03  0.41147633144E+02  0.19273733333E+03  0.91614768244E+02 0.  0.
          5    1    3    3  502    0  0.71891655888E+02  0.57033480676E+02 -0.48950202761E+02  0.10409045516E+03  0.41800000000E+01 0.  1.
         -5    1    3    3    0  502 -0.25345253984E+02  0.10074712224E+03 -0.15206157213E+03  0.18420792235E+03  0.41800000000E+01 0.  1.
        -11    1    4    4    0    0 -0.11177766255E+02 -0.86951371293E+02  0.66028370229E+02  0.10975075901E+03  0.00000000000E+00 0. -1.
         11    1    4    4    0    0 -0.35368635649E+02 -0.70829231621E+02 -0.24880737086E+02  0.82986574321E+02  0.00000000000E+00 0.  1.
</event>
<event>
 8    1  0.6493926E-009  0.1001197E+03  0.7561462E-02  0.1280044E+00
         -2   -1    0    0    0  501 -0.00000000000E+00  0.00000000000E+00  0.18637277591E+03  0.18637277591E+03  0.00000000000E+00 0.  1.
          2   -1    0    0  501    0  0.00000000000E+00 -0.00000000000E+00 -0.77972624410E+02  0.77972624410E+02  0.00000000000E+00 0. -1.
         25    2    1    2    0    0  0.48088740204E+02 -0.57329098508E+01  0.87761655720E+02  0.16029691029E+03  0.12509035952E+03 0.  0.
         23    2    1    2    0    0 -0.48088740204E+02  0.57329098508E+01  0.20638495774E+02  0.10404849002E+03  0.89748245546E+02 0.  0.
          5    1    3    3  502    0 -0.18004049802E+02 -0.49610406139E+02  0.22658097010E+02  0.57586456451E+02  0.41800000000E+01 0.  1.
         -5    1    3    3    0  502  0.66092790006E+02  0.43877496288E+02  0.65103558711E+02  0.10271045384E+03  0.41800000000E+01 0.  1.
        -11    1    4    4    0    0 -0.56483679055E+02 -0.18922270150E+01  0.48178939728E+02  0.74264370703E+02  0.00000000000E+00 0.  1.
         11    1    4    4    0    0  0.83949388506E+01  0.76251368658E+01 -0.27540443954E+02  0.29784119320E+02  0.00000000000E+00 0. -1.
</event>
<event>
 8    1  0.6493926E-009  0.5888568E+02  0.7561462E-02  0.1402568E+00
         -3   -1    0    0    0  501 -0.00000000000E+00  0.00000000000E+00  0.10804344736E+03  0.10804344736E+03  0.00000000000E+00 0.  1.
          3   -1    0    0  501    0  0.00000000000E+00 -0.00000000000E+00 -0.11541575623E+03  0.11541575623E+03  0.00000000000E+00 0. -1.
         25    2    1    2    0    0 -0.37881469565E+00  0.28740968462E+02 -0.13711275979E+02  0.12907538696E+03  0.12508504971E+03 0.  0.
         23    2    1    2    0    0  0.37881469565E+00 -0.28740968462E+02  0.63389671106E+01  0.94383816632E+02  0.89676839648E+02 0.  0.
          5    1    3    3  502    0  0.13170791205E+00  0.19140918226E+02 -0.69552160270E+02  0.72259030548E+02  0.41800000000E+01 0. -1.
         -5    1    3    3    0  502 -0.51052260771E+00  0.96000502360E+01  0.55840884291E+02  0.56816356415E+02  0.41800000000E+01 0. -1.
        -11    1    4    4    0    0  0.40490153823E+02 -0.42832305520E+01  0.20131692016E+02  0.45421180566E+02  0.00000000000E+00 0.  1.
         11    1    4    4    0    0 -0.40111339127E+02 -0.24457737910E+02 -0.13792724906E+02  0.48962636066E+02  0.00000000000E+00 0. -1.
</event>
<event>
 8    1  0.6493926E-009  0.8762931E+02  0.7561462E-02  0.1308696E+00
         -1   -1    0    0    0  501 -0.00000000000E+00  0.00000000000E+00  0.25417051657E+02  0.25417051657E+02  0.00000000000E+00 0.  1.
          1   -1    0    0  501    0  0.00000000000E+00 -0.00000000000E+00 -0.83965497536E+03  0.83965497536E+03  0.00000000000E+00 0. -1.
         25    2    1    2    0    0  0.58677449008E+02 -0.19101106641E+02 -0.66739395820E+03  0.68181336652E+03  0.12508747353E+03 0.  0.
         23    2    1    2    0    0 -0.58677449008E+02  0.19101106641E+02 -0.14684396551E+03  0.18325866050E+03  0.90623899407E+02 0.  0.
          5    1    3    3  502    0 -0.17957326369E+00  0.17125606748E+02 -0.50458885258E+03  0.50489672330E+03  0.41800000000E+01 0. -1.
         -5    1    3    3    0  502  0.58857022271E+02 -0.36226713389E+02 -0.16280510562E+03  0.17691664322E+03  0.41800000000E+01 0. -1.
        -11    1    4    4    0    0 -0.71672263980E+02  0.22199565495E+02 -0.15154023686E+03  0.16909812985E+03  0.00000000000E+00 0. -1.
         11    1    4    4    0    0  0.12994814973E+02 -0.30984588537E+01  0.46962713531E+01  0.14160530642E+02  0.00000000000E+00 0.  1.
</event>
<event>
 8    1  0.6493926E-009  0.1213482E+03  0.7561462E-02  0.1240889E+00
          1   -1    0    0  501    0  0.00000000000E+00  0.00000000000E+00  0.64654148399E+03  0.64654148399E+03  0.00000000000E+00 0. -1.
         -1   -1    0    0    0  501 -0.00000000000E+00 -0.00000000000E+00 -0.32494519938E+02  0.32494519938E+02  0.00000000000E+00 0.  1.
         25    2    1    2    0    0  0.60430974911E+02  0.57459359202E+02  0.44191102541E+03  0.46678778194E+03  0.12510794658E+03 0.  0.
         23    2    1    2    0    0 -0.60430974911E+02 -0.57459359202E+02  0.17213593864E+03  0.21224822199E+03  0.92005682854E+02 0.  0.
          5    1    3    3  502    0  0.70359779947E+02  0.93809141726E+01  0.38500343562E+03  0.39151451828E+03  0.41800000000E+01 0. -1.
         -5    1    3    3    0  502 -0.99288050363E+01  0.48078445030E+02  0.56907589790E+02  0.75273263657E+02  0.41800000000E+01 0. -1.
        -11    1    4    4    0    0 -0.10437042245E+02 -0.70003111342E+02  0.81165732303E+02  0.10769049888E+03  0.00000000000E+00 0.  1.
         11    1    4    4    0    0 -0.49993932665E+02  0.12543752140E+02  0.90970206336E+02  0.10455772311E+03  0.00000000000E+00 0. -1.
</event>
<event>
 8    1  0.6493926E-009  0.8254993E+02  0.7561462E-02  0.1321967E+00
          1   -1    0    0  501    0  0.00000000000E+00  0.00000000000E+00  0.48889939334E+03  0.48889939334E+03  0.00000000000E+00 0. -1.
         -1   -1    0    0    0  501 -0.00000000000E+00 -0.00000000000E+00 -0.36543328251E+02  0.36543328251E+02  0.00000000000E+00 0.  1.
         25    2    1    2    0    0  0.36240742285E+02 -0.43354978696E+01  0.38701783111E+03  0.40836456700E+03  0.12508649023E+03 0.  0.
         23    2    1    2    0    0 -0.36240742285E+02  0.43354978696E+01  0.65338233981E+02  0.11707815460E+03  0.90033446678E+02 0.  0.
          5    1    3    3  502    0  0.21212192611E+02 -0.51663419177E+02  0.81983770187E+02  0.99286841880E+02  0.41800000000E+01 0. -1.
         -5    1    3    3    0  502  0.15028549674E+02  0.47327921307E+02  0.30503406092E+03  0.30907772512E+03  0.41800000000E+01 0. -1.
        -11    1    4    4    0    0 -0.14942684496E+01  0.20771364490E+02  0.74673591451E+02  0.77523078378E+02  0.00000000000E+00 0. -1.
         11    1    4    4    0    0 -0.34746473835E+02 -0.16435866621E+02 -0.93353574698E+01  0.39555076219E+02  0.00000000000E+00 0.  1.
</event>
<event>
 8    1  0.6493926E-009  0.8808639E+02  0.7561462E-02  0.1307553E+00
         -1   -1    0    0    0  501 -0.00000000000E+00  0.00000000000E+00  0.27844436559E+03  0.27844436559E+03  0.00000000000E+00 0.  1.
          1   -1    0    0  501    0  0.00000000000E+00 -0.00000000000E+00 -0.43620456177E+02  0.43620456177E+02  0.00000000000E+00 0. -1.
         25    2    1    2    0    0  0.48156637942E+01  0.19016495259E+02  0.15652178901E+03  0.20132483674E+03  0.12509117373E+03 0.  0.
         23    2    1    2    0    0 -0.48156637942E+01 -0.19016495259E+02  0.78302120402E+02  0.12073998503E+03  0.89789221039E+02 0.  0.
          5    1    3    3  502    0 -0.41062144997E+02 -0.32336457531E+02  0.40145529003E+02  0.66036975524E+02  0.41800000000E+01 0. -1.
         -5    1    3    3    0  502  0.45877808791E+02  0.51352952789E+02  0.11637626001E+03  0.13528786122E+03  0.41800000000E+01 0. -1.
        -11    1    4    4    0    0 -0.27348242304E+02 -0.16832921301E+02 -0.66743865359E+01  0.32799710856E+02  0.00000000000E+00 0. -1.
         11    1    4    4    0    0  0.22532578510E+02 -0.21835739578E+01  0.84976506938E+02  0.87940274169E+02  0.00000000000E+00 0.  1.
</event>
<event>
 8    1  0.6493926E-009  0.1532169E+03  0.7561462E-02  0.1196575E+00
          2   -1    0    0  501    0  0.00000000000E+00  0.00000000000E+00  0.14360143117E+04  0.14360143117E+04  0.00000000000E+00 0. -1.
         -2   -1    0    0    0  501 -0.00000000000E+00 -0.00000000000E+00 -0.25079435709E+02  0.25079435709E+02  0.00000000000E+00 0.  1.
         25    2    1    2    0    0 -0.12747273656E+03  0.54941538793E+02  0.10117743980E+04  0.10288845302E+04  0.12509225779E+03 0.  0.
         23    2    1    2    0    0  0.12747273656E+03 -0.54941538793E+02  0.39916047799E+03  0.43220921713E+03  0.90597179461E+02 0.  0.
          5    1    3    3  502    0 -0.98723599447E+02  0.62258166170E+02  0.40851333997E+03  0.42488004151E+03  0.41800000000E+01 0.  1.
         -5    1    3    3    0  502 -0.28749137115E+02 -0.73166273775E+01  0.60326105799E+03  0.60400448873E+03  0.41800000000E+01 0.  1.
        -11    1    4    4    0    0  0.14999279317E+02  0.19653653042E+02  0.28427578553E+02  0.37674549504E+02  0.00000000000E+00 0.  1.
         11    1    4    4    0    0  0.11247345724E+03 -0.74595191834E+02  0.37073289944E+03  0.39453466762E+03  0.00000000000E+00 0. -1.
</event>
<event>
 8    1  0.6493926E-009  0.1026759E+03  0.7561462E-02  0.1274767E+00
         -1   -1    0    0    0  501 -0.00000000000E+00  0.00000000000E+00  0.10915272404E+04  0.10915272404E+04  0.00000000000E+00 0.  1.
          1   -1    0    0  501    0  0.00000000000E+00 -0.00000000000E+00 -0.15801667533E+02  0.15801667533E+02  0.00000000000E+00 0. -1.
         25    2    1    2    0    0  0.13164644574E+02  0.50563816652E+02  0.81732158264E+03  0.82848672697E+03  0.12508269223E+03 0.  0.
         23    2    1    2    0    0 -0.13164644574E+02 -0.50563816652E+02  0.25840399024E+03  0.27884218097E+03  0.90831339849E+02 0.  0.
          5    1    3    3  502    0 -0.10754392581E+02  0.84922662486E+02  0.40167415659E+03  0.41071537107E+03  0.41800000000E+01 0. -1.
         -5    1    3    3    0  502  0.23919037154E+02 -0.34358845834E+02  0.41564742606E+03  0.41777135590E+03  0.41800000000E+01 0. -1.
        -11    1    4    4    0    0 -0.29324189411E+02 -0.53634398447E+02  0.25476505230E+03  0.26199577984E+03  0.00000000000E+00 0.  1.
         11    1    4    4    0    0  0.16159544838E+02  0.30705817946E+01  0.36389379413E+01  0.16846401137E+02  0.00000000000E+00 0. -1.
</event>
<event>
 8    1  0.6493926E-009  0.1310822E+03  0.7561462E-02  0.1225859E+00
          1   -1    0    0  501    0  0.00000000000E+00  0.00000000000E+00  0.17361340640E+03  0.17361340640E+03  0.00000000000E+00 0. -1.
         -1   -1    0    0    0  501 -0.00000000000E+00 -0.00000000000E+00 -0.12697258945E+03  0.12697258945E+03  0.00000000000E+00 0.  1.
         25    2    1    2    0    0 -0.96798947098E+02 -0.13427743793E+02 -0.80244160646E+00  0.15874389357E+03  0.12509452174E+03 0.  0.
         23    2    1    2    0    0  0.96798947098E+02  0.13427743793E+02  0.47443258560E+02  0.14184210228E+03  0.91202953543E+02 0.  0.
          5    1    3    3  502    0 -0.99614184578E+02  0.14577359016E+02 -0.41593154740E+02  0.10900893581E+03  0.41800000000E+01 0.  1.
         -5    1    3    3    0  502  0.28152374798E+01 -0.28005102808E+02  0.40790713133E+02  0.49734957759E+02  0.41800000000E+01 0.  1.
        -11    1    4    4    0    0 -0.11778577567E+02 -0.16544697265E+02  0.20922267538E+01  0.20416642963E+02  0.00000000000E+00 0.  1.
         11    1    4    4    0    0  0.10857752467E+03  0.29972441058E+02  0.45351031806E+02  0.12142545932E+03  0.00000000000E+00 0. -1.
</event>
<event>
 8    1  0.6493926E-009  0.8848502E+02  0.7561462E-02  0.1306562E+00
         -1   -1    0    0    0  501 -0.00000000000E+00  0.00000000000E+00  0.47139675726E+03  0.47139675726E+03  0.00000000000E+00 0.  1.
          1   -1    0    0  501    0  0.00000000000E+00 -0.00000000000E+00 -0.34755076409E+02  0.34755076409E+02  0.00000000000E+00 0. -1.
         25    2    1    2    0    0  0.35729251962E+02 -0.64394135880E+02  0.20073356683E+03  0.24771286065E+03  0.12507802484E+03 0.  0.
         23    2    1    2    0    0 -0.35729251962E+02  0.64394135880E+02  0.23590811402E+03  0.25843897302E+03  0.75596827528E+02 0.  0.
          5    1    3    3  502    0  0.34971573834E+02 -0.16804081565E+02 -0.23402802485E+01  0.39093956634E+02  0.41800000000E+01 0.  1.
         -5    1    3    3    0  502  0.75767812851E+00 -0.47590054315E+02  0.20307384708E+03  0.20861890402E+03  0.41800000000E+01 0.  1.
        -11    1    4    4    0    0 -0.41118189728E+02  0.20503521289E+02  0.52459257291E+02  0.69735741104E+02  0.00000000000E+00 0. -1.
         11    1    4    4    0    0  0.53889377663E+01  0.43890614590E+02  0.18344885673E+03  0.18870323191E+03  0.00000000000E+00 0.  1.
</event>
<event>
 8    1  0.6493926E-009  0.1051058E+03  0.7561462E-02  0.1269911E+00
          2   -1    0    0  501    0  0.00000000000E+00  0.00000000000E+00  0.59597506149E+02  0.59597506149E+02  0.00000000000E+00 0. -1.
         -2   -1    0    0    0  501 -0.00000000000E+00 -0.00000000000E+00 -0.22701864262E+03  0.22701864262E+03  0.00000000000E+00 0.  1.
         25    2    1    2    0    0  0.18638308949E+02 -0.84528151114E+01 -0.45985338225E+02  0.13483519084E+03  0.12508813179E+03 0.  0.
         23    2    1    2    0    0 -0.18638308949E+02  0.84528151114E+01 -0.12143579824E+03  0.15178095792E+03  0.88724119887E+02 0.  0.
          5    1    3    3  502    0 -0.37779159043E+02  0.32971940525E+02 -0.40338683406E+02  0.64491049758E+02  0.41800000000E+01 0. -1.
         -5    1    3    3    0  502  0.56417467991E+02 -0.41424755636E+02 -0.56466548196E+01  0.70344141083E+02  0.41800000000E+01 0. -1.
        -11    1    4    4    0    0  0.23783879437E+02  0.33065975701E+02 -0.67865333286E+02  0.79150079799E+02  0.00000000000E+00 0.  1.
         11    1    4    4    0    0 -0.42422188385E+02 -0.24613160590E+02 -0.53570464957E+02  0.72630878125E+02  0.00000000000E+00 0. -1.
</event>
<event>
 8    1  0.6493926E-009  0.1034154E+03  0.7561462E-02  0.1273273E+00
         -1   -1    0    0    0  501 -0.00000000000E+00  0.00000000000E+00  0.20533871722E+02  0.20533871722E+02  0.00000000000E+00 0.  1.
          1   -1    0    0  501    0  0.00000000000E+00 -0.00000000000E+00 -0.66152692292E+03  0.66152692292E+03  0.00000000000E+00 0. -1.
         25    2    1    2    0    0 -0.12622722492E+02 -0.30469774052E+02 -0.43849541596E+03  0.45718065344E+03  0.12509268488E+03 0.  0.
         23    2    1    2    0    0  0.12622722492E+02  0.30469774052E+02 -0.20249763524E+03  0.22488014120E+03  0.92076301921E+02 0.  0.
          5    1    3    3  502    0  0.51156340389E+02  0.43761036651E+01 -0.12216105548E+03  0.13257796695E+03  0.41800000000E+01 0.  1.
         -5    1    3    3    0  502 -0.63779062881E+02 -0.34845877718E+02 -0.31633436048E+03  0.32460268649E+03  0.41800000000E+01 0.  1.
        -11    1    4    4    0    0 -0.29415028160E+02 -0.18815955647E+01 -0.13923853460E+03  0.14232411532E+03  0.00000000000E+00 0.  1.
         11    1    4    4    0    0  0.42037750652E+02  0.32351369617E+02 -0.63259100638E+02  0.82556025883E+02  0.00000000000E+00 0. -1.
</event>
<event>
 8    1  0.6493926E-009  0.2707970E+03  0.7561462E-02  0.1100824E+00
         -1   -1    0    0    0  501 -0.00000000000E+00  0.00000000000E+00  0.13071571626E+03  0.13071571626E+03  0.00000000000E+00 0.  1.
          1   -1    0    0  501    0  0.00000000000E+00 -0.00000000000E+00 -0.69795045332E+03  0.69795045332E+03  0.00000000000E+00 0. -1.
         25    2    1    2    0    0  0.16545308498E+03  0.18405903414E+03 -0.10814464985E+03  0.29764243964E+03  0.12507319939E+03 0.  0.
         23    2    1    2    0    0 -0.16545308498E+03 -0.18405903414E+03 -0.45909008721E+03  0.53102372995E+03  0.99850098730E+02 0.  0.
          5    1    3    3  502    0  0.18366448690E+03  0.15158581359E+03 -0.10419017568E+03  0.25996916690E+03  0.41800000000E+01 0.  1.
         -5    1    3    3    0  502 -0.18211401926E+02  0.32473220549E+02 -0.39544741742E+01  0.37673272739E+02  0.41800000000E+01 0.  1.
        -11    1    4    4    0    0 -0.12127083051E+03 -0.62120511447E+02 -0.25723356785E+03  0.29109222027E+03  0.00000000000E+00 0. -1.
         11    1    4    4    0    0 -0.44182254469E+02 -0.12193852270E+03 -0.20185651936E+03  0.23993150967E+03  0.00000000000E+00 0.  1.
</event>
<event>
 8    1  0.6493926E-009  0.3026555E+03  0.7561462E-02  0.1083921E+00
         -2   -1    0    0    0  501 -0.00000000000E+00  0.00000000000E+00  0.65572351493E+02  0.65572351493E+02  0.00000000000E+00 0.  1.
          2   -1    0    0  501    0  0.00000000000E+00 -0.00000000000E+00 -0.16735565830E+04  0.16735565830E+04  0.00000000000E+00 0. -1.
         25    2    1    2    0    0  0.22874873213E+03  0.16778730902E+03 -0.47181827517E+03  0.56457172008E+03  0.12510067466E+03 0.  0.
         23    2    1    2    0    0 -0.22874873213E+03 -0.16778730902E+03 -0.11361659563E+04  0.11745572144E+04  0.90735913989E+02 0.  0.
          5    1    3    3  502    0  0.20993788070E+03  0.87649147780E+02 -0.35215371836E+03  0.41926841118E+03  0.41800000000E+01 0. -1.
         -5    1    3    3    0  502  0.18810851432E+02  0.80138161238E+02 -0.11966455681E+03  0.14530330889E+03  0.41800000000E+01 0. -1.
        -11    1    4    4    0    0 -0.32293259199E+02 -0.67388732560E+02 -0.22601459668E+03  0.23804767123E+03  0.00000000000E+00 0.  1.
         11    1    4    4    0    0 -0.19645547293E+03 -0.10039857646E+03 -0.91015135963E+03  0.93650954316E+03  0.00000000000E+00 0. -1.
</event>
<event>
 8    1  0.6493926E-009  0.1139941E+03  0.7561462E-02  0.1253347E+00
         -2   -1    0    0    0  501 -0.00000000000E+00  0.00000000000E+00  0.25890841275E+02  0.25890841275E+02  0.00000000000E+00 0. -1.
          2   -1    0    0  501    0  0.00000000000E+00 -0.00000000000E+00 -0.96526667604E+03  0.96526667604E+03  0.00000000000E+00 0.  1.
         25    2    1    2    0    0  0.18155301251E+02  0.45875314184E+02 -0.82083450057E+03  0.83177571935E+03  0.12508961010E+03 0.  0.
         23    2    1    2    0    0 -0.18155301251E+02 -0.45875314184E+02 -0.11854133419E+03  0.15938179796E+03  0.94426427420E+02 0.  0.
          5    1    3    3  502    0  0.35775774752E+02  0.84182021892E+02 -0.52557276769E+03  0.53348919896E+03  0.41800000000E+01 0.  1.
         -5    1    3    3    0  502 -0.17620473502E+02 -0.38306707707E+02 -0.29526173288E+03  0.29828652039E+03  0.41800000000E+01 0.  1.
        -11    1    4    4    0    0  0.30233789044E+02 -0.48653817178E+01 -0.78774029295E+02  0.84516871869E+02  0.00000000000E+00 0.  1.
         11    1    4    4    0    0 -0.48389090294E+02 -0.41009932467E+02 -0.39767304895E+02  0.74864926094E+02  0.00000000000E+00 0. -1.
</event>
<event>
 8    1  0.6493926E-009  0.1367425E+03  0.7561462E-02  0.1217781E+00
          1   -1    0    0  501    0  0.00000000000E+00  0.00000000000E+00  0.19883897837E+03  0.19883897837E+03  0.00000000000E+00 0. -1.
         -1   -1    0    0    0  501 -0.00000000000E+00 -0.00000000000E+00 -0.12293061213E+03  0.12293061213E+03  0.00000000000E+00 0.  1.
         25    2    1    2    0    0  0.65082503410E+02 -0.91221194456E+02  0.82818774164E+02  0.18724706560E+03  0.12508187580E+03 0.  0.
         23    2    1    2    0    0 -0.65082503410E+02  0.91221194456E+02 -0.69104079234E+01  0.13452252491E+03  0.74104773134E+02 0.  0.
          5    1    3    3  502    0  0.83406585807E+02 -0.10573119049E+03  0.90482301521E+02  0.16229683450E+03  0.41800000000E+01 0. -1.
         -5    1    3    3    0  502 -0.18324082397E+02  0.14509996037E+02 -0.76635273562E+01  0.24950231105E+02  0.41800000000E+01 0. -1.
        -11    1    4    4    0    0 -0.44038172425E+01  0.24203082967E+02 -0.32316071459E+02  0.40614176170E+02  0.00000000000E+00 0.  1.
         11    1    4    4    0    0 -0.60678686167E+02  0.67018111489E+02  0.25405663536E+02  0.93908348736E+02  0.00000000000E+00 0. -1.
</event>
<event>
 8    1  0.6493926E-009  0.1820096E+03  0.7561462E-02  0.1165872E+00
         -2   -1    0    0    0  501 -0.00000000000E+00  0.00000000000E+00  0.49208701908E+02  0.49208701908E+02  0.00000000000E+00 0.  1.
          2   -1    0    0  501    0  0.00000000000E+00 -0.00000000000E+00 -0.79344834776E+03  0.79344834776E+03  0.00000000000E+00 0. -1.
         25    2    1    2    0    0 -0.16407757201E+03  0.11826189024E+02 -0.40758523645E+03  0.45698394809E+03  0.12508915003E+03 0.  0.
         23    2    1    2    0    0  0.16407757201E+03 -0.11826189024E+02 -0.33665440940E+03  0.38567310157E+03  0.91357766661E+02 0.  0.
          5    1    3    3  502    0 -0.13388545175E+03  0.56387899703E+02 -0.23654753981E+03  0.27762766507E+03  0.41800000000E+01 0. -1.
         -5    1    3    3    0  502 -0.30192120254E+02 -0.44561710679E+02 -0.17103769665E+03  0.17935628302E+03  0.41800000000E+01 0. -1.
        -11    1    4    4    0    0  0.59284724740E+02 -0.81051738018E+01 -0.42516436758E+02  0.73403132253E+02  0.00000000000E+00 0.  1.
         11    1    4    4    0    0  0.10479284727E+03 -0.37210152219E+01 -0.29413797264E+03  0.31226996932E+03  0.00000000000E+00 0. -1.
</event>
<event>
 8    1  0.6493926E-009  0.1168615E+03  0.7561462E-02  0.1248366E+00
         -1   -1    0    0    0  501 -0.00000000000E+00  0.00000000000E+00  0.18202748352E+03  0.18202748352E+03  0.00000000000E+00 0.  1.
          1   -1    0    0  501    0  0.00000000000E+00 -0.00000000000E+00 -0.10137048813E+03  0.10137048813E+03  0.00000000000E+00 0. -1.
         25    2    1    2    0    0  0.73628301489E+02  0.61630742674E+01  0.88198722559E+01  0.14556036537E+03  0.12510363526E+03 0.  0.
         23    2    1    2    0    0 -0.73628301489E+02 -0.61630742674E+01  0.71837123132E+02  0.13783760628E+03  0.91539735534E+02 0.  0.
          5    1    3    3  502    0  0.52586091575E+02  0.55613930764E+02  0.36573538405E+02  0.84931162912E+02  0.41800000000E+01 0. -1.
         -5    1    3    3    0  502  0.21042209914E+02 -0.49450856497E+02 -0.27753666149E+02  0.60629202461E+02  0.41800000000E+01 0. -1.
        -11    1    4    4    0    0 -0.33455488811E+02  0.33050216974E+02  0.66496612881E+02  0.81445602080E+02  0.00000000000E+00 0.  1.
         11    1    4    4    0    0 -0.40172812678E+02 -0.39213291241E+02  0.53405102516E+01  0.56392004204E+02  0.00000000000E+00 0. -1.
</event>
<event>
 8    1  0.6493926E-009  0.9360203E+02  0.7561462E-02  0.1294356E+00
         -2   -1    0    0    0  501 -0.00000000000E+00  0.00000000000E+00  0.11262620750E+03  0.11262620750E+03  0.00000000000E+00 0.  1.
          2   -1    0    0  501    0  0.00000000000E+00 -0.00000000000E+00 -0.12256222018E+03  0.12256222018E+03  0.00000000000E+00 0. -1.
         25    2    1    2    0    0 -0.26526388770E+02 -0.32273561207E+02 -0.22733848908E+02  0.13382873060E+03  0.12509224274E+03 0.  0.
         23    2    1    2    0    0  0.26526388770E+02  0.32273561207E+02  0.12797836234E+02  0.10135969708E+03  0.91459124893E+02 0.  0.
          5    1    3    3  502    0 -0.72537047520E+02 -0.39827228489E+02 -0.26163280646E+02  0.86889706215E+02  0.41800000000E+01 0. -1.
         -5    1    3    3    0  502  0.46010658750E+02  0.75536672822E+01  0.34294317378E+01  0.46939024384E+02  0.41800000000E+01 0. -1.
        -11    1    4    4    0    0 -0.10032616338E+02  0.12304192931E+02  0.45634023291E+02  0.48316773857E+02  0.00000000000E+00 0.  1.
         11    1    4    4    0    0  0.36559005108E+02  0.19969368276E+02 -0.32836187057E+02  0.53042923225E+02  0.00000000000E+00 0. -1.
</event>
<event>
 8    1  0.6493926E-009  0.1044827E+03  0.7561462E-02  0.1271142E+00
         -2   -1    0    0    0  501 -0.00000000000E+00  0.00000000000E+00  0.11374172218E+03  0.11374172218E+03  0.00000000000E+00 0.  1.
          2   -1    0    0  501    0  0.00000000000E+00 -0.00000000000E+00 -0.13846761409E+03  0.13846761409E+03  0.00000000000E+00 0. -1.
         25    2    1    2    0    0  0.21468003665E+02 -0.19681911422E+02  0.39741726019E+02  0.13443794623E+03  0.12508358718E+03 0.  0.
         23    2    1    2    0    0 -0.21468003665E+02  0.19681911422E+02 -0.64467617929E+02  0.11777139003E+03  0.94158237713E+02 0.  0.
          5    1    3    3  502    0 -0.43125269992E+02 -0.41617711866E+02  0.19334577381E+02  0.63111972995E+02  0.41800000000E+01 0.  1.
         -5    1    3    3    0  502  0.64593273657E+02  0.21935800444E+02  0.20407148638E+02  0.71325973238E+02  0.41800000000E+01 0.  1.
        -11    1    4    4    0    0 -0.40023917836E+02 -0.13739574472E+02  0.58244920191E+00  0.42320552367E+02  0.00000000000E+00 0.  1.
         11    1    4    4    0    0  0.18555914171E+02  0.33421485894E+02 -0.65050067131E+02  0.75450837661E+02  0.00000000000E+00 0. -1.
</event>
<event>
 8    1  0.6493926E-009  0.1082530E+03  0.7561462E-02  0.1263840E+00
          1   -1    0    0  501    0  0.00000000000E+00  0.00000000000E+00  0.22044963323E+03  0.22044963323E+03  0.00000000000E+00 0. -1.
         -1   -1    0    0    0  501 -0.00000000000E+00 -0.00000000000E+00 -0.66022626882E+02  0.66022626882E+02  0.00000000000E+00 0.  1.
         25    2    1    2    0    0  0.10765603248E+01  0.47775306360E+02  0.11407524249E+03  0.17591263944E+03  0.12509379235E+03 0.  0.
         23    2    1    2    0    0 -0.10765603248E+01 -0.47775306360E+02  0.40351763860E+02  0.11055962068E+03  0.91167570979E+02 0.  0.
          5    1    3    3  502    0 -0.30297187267E+02  0.78913439605E+02  0.95986427340E+02  0.12796920387E+03  0.41800000000E+01 0.  1.
         -5    1    3    3    0  502  0.31373747592E+02 -0.31138133245E+02  0.18088815152E+02  0.47943435563E+02  0.41800000000E+01 0.  1.
        -11    1    4    4    0    0 -0.21060681472E+02 -0.60311095307E+02  0.74803976816E-01  0.63882596353E+02  0.00000000000E+00 0.  1.
         11    1    4    4    0    0  0.19984121147E+02  0.12535788947E+02  0.40276959883E+02  0.46677024326E+02  0.00000000000E+00 0. -1.
</event>
<event>
 8    1  0.6493926E-009  0.1130102E+03  0.7561462E-02  0.1255095E+00
         -4   -1    0    0    0  501 -0.00000000000E+00  0.00000000000E+00  0.29074326062E+02  0.29074326062E+02  0.00000000000E+00 0.  1.
          4   -1    0    0  501    0  0.00000000000E+00 -0.00000000000E+00 -0.58122570015E+03  0.58122570015E+03  0.00000000000E+00 0. -1.
         25    2    1    2    0    0  0.19639734278E+02  0.54496379334E+02 -0.40482811411E+03  0.42765720050E+03  0.12509718079E+03 0.  0.
         23    2    1    2    0    0 -0.19639734278E+02 -0.54496379334E+02 -0.14732325997E+03  0.18264282571E+03  0.91097114833E+02 0.  0.
          5    1    3    3  502    0  0.60833235222E+02  0.50018501760E+02 -0.35016609228E+03  0.35893773500E+03  0.41800000000E+01 0. -1.
         -5    1    3    3    0  502 -0.41193500944E+02  0.44778775735E+01 -0.54662021837E+02  0.68719465501E+02  0.41800000000E+01 0. -1.
        -11    1    4    4    0    0 -0.54313713580E+02 -0.24197266191E+02 -0.63418878504E+02  0.86933545451E+02  0.00000000000E+00 0.  1.
         11    1    4    4    0    0  0.34673979302E+02 -0.30299113142E+02 -0.83904381466E+02  0.95709280256E+02  0.00000000000E+00 0. -1.
</event>
<event>
 8    1  0.6493926E-009  0.2302730E+03  0.7561462E-02  0.1126448E+00
         -1   -1    0    0    0  501 -0.00000000000E+00  0.00000000000E+00  0.12484109770E+03  0.12484109770E+03  0.00000000000E+00 0.  1.
          1   -1    0    0  501    0  0.00000000000E+00 -0.00000000000E+00 -0.58276380565E+03  0.58276380565E+03  0.00000000000E+00 0. -1.
         25    2    1    2    0    0  0.10116518485E+03 -0.18580975842E+03 -0.40186940389E+03  0.47106985506E+03  0.12509248426E+03 0.  0.
         23    2    1    2    0    0 -0.10116518485E+03  0.18580975842E+03 -0.56053304068E+02  0.23653504828E+03  0.89706160426E+02 0.  0.
          5    1    3    3  502    0  0.10650942457E+03 -0.65780757328E+02 -0.21675928467E+03  0.25034661062E+03  0.41800000000E+01 0.  1.
         -5    1    3    3    0  502 -0.53442397244E+01 -0.12002900110E+03 -0.18511011921E+03  0.22072324444E+03  0.41800000000E+01 0.  1.
        -11    1    4    4    0    0 -0.47123599886E+02  0.12568156147E+03  0.63981659678E+01  0.13437791890E+03  0.00000000000E+00 0.  1.
         11    1    4    4    0    0 -0.54041584963E+02  0.60128196950E+02 -0.62451470035E+02  0.10215712938E+03  0.00000000000E+00 0. -1.
</event>
<event>
 8    1  0.6493926E-009  0.1516180E+03  0.7561462E-02  0.1198499E+00
         -2   -1    0    0    0  501 -0.00000000000E+00  0.00000000000E+00  0.11948350598E+04  0.11948350598E+04  0.00000000000E+00 0.  1.
          2   -1    0    0  501    0  0.00000000000E+00 -0.00000000000E+00 -0.21935406879E+02  0.21935406879E+02  0.00000000000E+00 0. -1.
         25    2    1    2    0    0  0.11569204227E+03  0.32114377793E+02  0.60233923931E+03  0.62679864231E+03  0.12509195368E+03 0.  0.
         23    2    1    2    0    0 -0.11569204227E+03 -0.32114377793E+02  0.57056041360E+03  0.58997182436E+03  0.90064344055E+02 0.  0.
          5    1    3    3  502    0  0.90240068777E+00 -0.36200637836E+02  0.85221991457E+02  0.92690672317E+02  0.41800000000E+01 0.  1.
         -5    1    3    3    0  502  0.11478964158E+03  0.68315015629E+02  0.51711724786E+03  0.53410796999E+03  0.41800000000E+01 0.  1.
        -11    1    4    4    0    0 -0.50142230414E+02  0.15086597628E+02  0.10364847741E+03  0.11612431084E+03  0.00000000000E+00 0. -1.
         11    1    4    4    0    0 -0.65549811858E+02 -0.47200975421E+02  0.46691193619E+03  0.47384751352E+03  0.00000000000E+00 0.  1.
</event>
<event>
 8    1  0.6493926E-009  0.1126126E+03  0.7561462E-02  0.1255807E+00
          1   -1    0    0  501    0  0.00000000000E+00  0.00000000000E+00  0.86719867402E+03  0.86719867402E+03  0.00000000000E+00 0. -1.
         -1   -1    0    0    0  501 -0.00000000000E+00 -0.00000000000E+00 -0.16936654587E+02  0.16936654587E+02  0.00000000000E+00 0.  1.
         25    2    1    2    0    0  0.22951233919E+02 -0.41583629953E+02  0.38182787411E+03  0.40459340468E+03  0.12508932906E+03 0.  0.
         23    2    1    2    0    0 -0.22951233919E+02  0.41583629953E+02  0.46843414533E+03  0.47954192393E+03  0.90961260341E+02 0.  0.
          5    1    3    3  502    0  0.66198210948E+01 -0.81806265602E+02  0.17662929366E+03  0.19481136235E+03  0.41800000000E+01 0.  1.
         -5    1    3    3    0  502  0.16331412824E+02  0.40222635650E+02  0.20519858045E+03  0.20978204233E+03  0.41800000000E+01 0.  1.
        -11    1    4    4    0    0  0.12848106239E+02  0.58459777527E+02  0.33714776018E+03  0.34241967178E+03  0.00000000000E+00 0. -1.
         11    1    4    4    0    0 -0.35799340157E+02 -0.16876147574E+02  0.13128638514E+03  0.13712225216E+03  0.00000000000E+00 0.  1.
</event>
<event>
 8    1  0.6493926E-009  0.1032683E+03  0.7561462E-02  0.1273570E+00
          2   -1    0    0  501    0  0.00000000000E+00  0.00000000000E+00  0.12706261793E+03  0.12706261793E+03  0.00000000000E+00 0. -1.
         -2   -1    0    0    0  501 -0.00000000000E+00 -0.00000000000E+00 -0.15933922000E+03  0.15933922000E+03  0.00000000000E+00 0.  1.
         25    2    1    2    0    0  0.43486185471E+02 -0.59222818485E+02  0.39503069382E+02  0.15035702376E+03  0.12509337131E+03 0.  0.
         23    2    1    2    0    0 -0.43486185471E+02  0.59222818485E+02 -0.71779671460E+02  0.13604481417E+03  0.89204706561E+02 0.  0.
          5    1    3    3  502    0 -0.39480313514E+01 -0.54305508047E+02 -0.32755698640E+02  0.63679536346E+02  0.41800000000E+01 0.  1.
         -5    1    3    3    0  502  0.47434216822E+02 -0.49173104382E+01  0.72258768023E+02  0.86677487410E+02  0.41800000000E+01 0.  1.
        -11    1    4    4    0    0  0.17605270089E+02  0.33350533994E+02  0.78862184599E+00  0.37720360245E+02  0.00000000000E+00 0. -1.
         11    1    4    4    0    0 -0.61091455560E+02  0.25872284492E+02 -0.72568293306E+02  0.98324453930E+02  0.00000000000E+00 0.  1.
</event>
<event>
 8    1  0.6493926E-009  0.9254380E+02  0.7561462E-02  0.1296806E+00
          2   -1    0    0  501    0  0.00000000000E+00  0.00000000000E+00  0.43096956044E+03  0.43096956044E+03  0.00000000000E+00 0. -1.
         -2   -1    0    0    0  501 -0.00000000000E+00 -0.00000000000E+00 -0.36368827363E+02  0.36368827363E+02  0.00000000000E+00 0.  1.
         25    2    1    2    0    0  0.20421790952E+01 -0.52503672511E+01  0.10855625640E+03  0.16572249656E+03  0.12509095975E+03 0.  0.
         23    2    1    2    0    0 -0.20421790952E+01  0.52503672511E+01  0.28604447668E+03  0.30161589125E+03  0.95493279128E+02 0.  0.
          5    1    3    3  502    0 -0.37744751654E+02 -0.30986124585E+02  0.10749508947E+03  0.11814174899E+03  0.41800000000E+01 0.  1.
         -5    1    3    3    0  502  0.39786930749E+02  0.25735757334E+02  0.10611669235E+01  0.47580747569E+02  0.41800000000E+01 0.  1.
        -11    1    4    4    0    0  0.31742943983E+02  0.32254550541E+02  0.88583843143E+02  0.99473955332E+02  0.00000000000E+00 0.  1.
         11    1    4    4    0    0 -0.33785123078E+02 -0.27004183290E+02  0.19746063354E+03  0.20214193591E+03  0.00000000000E+00 0. -1.
</event>
<event>
 8    1  0.6493926E-009  0.9568831E+02  0.7561462E-02  0.1289633E+00
         -2   -1    0    0    0  501 -0.00000000000E+00  0.00000000000E+00  0.49877570960E+02  0.49877570960E+02  0.00000000000E+00 0.  1.
          2   -1    0    0  501    0  0.00000000000E+00 -0.00000000000E+00 -0.27141025922E+03  0.27141025922E+03  0.00000000000E+00 0. -1.
         25    2    1    2    0    0 -0.19442200749E+02 -0.12831287745E+02 -0.71556297202E+02  0.14598379567E+03  0.12509326046E+03 0.  0.
         23    2    1    2    0    0  0.19442200749E+02  0.12831287745E+02 -0.14997639106E+03  0.17530403451E+03  0.87726538325E+02 0.  0.
          5    1    3    3  502    0  0.20451725381E+02 -0.44900279132E+02  0.91202972779E+01  0.50348389842E+02  0.41800000000E+01 0.  1.
         -5    1    3    3    0  502 -0.39893926130E+02  0.32068991388E+02 -0.80676594480E+02  0.95635405827E+02  0.41800000000E+01 0.  1.
        -11    1    4    4    0    0 -0.31992138565E+02  0.21222130021E+02 -0.57113497814E+02  0.68817347850E+02  0.00000000000E+00 0.  1.
         11    1    4    4    0    0  0.51434339314E+02 -0.83908422761E+01 -0.92862893245E+02  0.10648668666E+03  0.00000000000E+00 0. -1.
</event>
<event>
 8    1  0.6493926E-009  0.2206016E+03  0.7561462E-02  0.1133435E+00
          2   -1    0    0  501    0  0.00000000000E+00  0.00000000000E+00  0.10677278698E+04  0.10677278698E+04  0.00000000000E+00 0. -1.
         -2   -1    0    0    0  501 -0.00000000000E+00 -0.00000000000E+00 -0.53879724645E+02  0.53879724645E+02  0.00000000000E+00 0.  1.
         25    2    1    2    0    0  0.21154563464E+03 -0.17231608660E+01  0.59576667029E+03  0.64446795057E+03  0.12508592674E+03 0.  0.
         23    2    1    2    0    0 -0.21154563464E+03  0.17231608660E+01  0.41808147485E+03  0.47713964385E+03  0.90086598918E+02 0.  0.
          5    1    3    3  502    0  0.57209553454E+02  0.37998676940E+02  0.30701685029E+03  0.31463256541E+03  0.41800000000E+01 0.  1.
         -5    1    3    3    0  502  0.15433608119E+03 -0.39721837806E+02  0.28874982000E+03  0.32983538516E+03  0.41800000000E+01 0.  1.
        -11    1    4    4    0    0 -0.78273848184E+02 -0.11235406482E+02  0.25020266374E+03  0.26240122448E+03  0.00000000000E+00 0. -1.
         11    1    4    4    0    0 -0.13327178646E+03  0.12958567348E+02  0.16787881111E+03  0.21473841937E+03  0.00000000000E+00 0.  1.
</event>
<event>
 8    1  0.6493926E-009  0.1178389E+03  0.7561462E-02  0.1246705E+00
          2   -1    0    0  501    0  0.00000000000E+00  0.00000000000E+00  0.20106777528E+04  0.20106777528E+04  0.00000000000E+00 0. -1.
         -2   -1    0    0    0  501 -0.00000000000E+00 -0.00000000000E+00 -0.10142285417E+02  0.10142285417E+02  0.00000000000E+00 0.  1.
         25    2    1    2    0    0 -0.49315396217E+02 -0.61577376933E+02  0.14312496021E+04  0.14388703366E+04  0.12509452527E+03 0.  0.
         23    2    1    2    0    0  0.49315396217E+02  0.61577376933E+02  0.56928586529E+03  0.58194970167E+03  0.91407205399E+02 0.  0.
          5    1    3    3  502    0 -0.44802791614E+02 -0.82066992189E+02  0.59239050948E+03  0.59973850090E+03  0.41800000000E+01 0.  1.
         -5    1    3    3    0  502 -0.45126046033E+01  0.20489615255E+02  0.83885909266E+03  0.83913183569E+03  0.41800000000E+01 0.  1.
        -11    1    4    4    0    0  0.38566005466E+02 -0.16449352208E+02  0.18966852502E+03  0.19424743847E+03  0.00000000000E+00 0.  1.
         11    1    4    4    0    0  0.10749390752E+02  0.78026729141E+02  0.37961734027E+03  0.38770226320E+03  0.00000000000E+00 0. -1.
</event>
<event>
 8    1  0.6493926E-009  0.9945152E+02  0.7561462E-02  0.1281454E+00
         -1   -1    0    0    0  501 -0.00000000000E+00  0.00000000000E+00  0.76439604019E+02  0.76439604019E+02  0.00000000000E+00 0.  1.
          1   -1    0    0  501    0  0.00000000000E+00 -0.00000000000E+00 -0.19281275202E+03  0.19281275202E+03  0.00000000000E+00 0. -1.
         25    2    1    2    0    0 -0.43354015386E+02 -0.29840408606E+02 -0.51321541025E+02  0.14510558488E+03  0.12510679260E+03 0.  0.
         23    2    1    2    0    0  0.43354015386E+02  0.29840408606E+02 -0.65051606977E+02  0.12414677116E+03  0.91709806367E+02 0.  0.
          5    1    3    3  502    0  0.23969622763E+02 -0.89643516755E+01  0.28502980326E+02  0.38533033930E+02  0.41800000000E+01 0. -1.
         -5    1    3    3    0  502 -0.67323638149E+02 -0.20876056930E+02 -0.79824521351E+02  0.10657255095E+03  0.41800000000E+01 0. -1.
        -11    1    4    4    0    0  0.59846376747E+02 -0.86686102718E+01 -0.22740574166E+02  0.64605474437E+02  0.00000000000E+00 0.  1.
         11    1    4    4    0    0 -0.16492361362E+02  0.38509018877E+02 -0.42311032811E+02  0.59541296725E+02  0.00000000000E+00 0. -1.
</event>
<event>
 8    1  0.6493926E-009  0.1271001E+03  0.7561462E-02  0.1231823E+00
          1   -1    0    0  501    0  0.00000000000E+00  0.00000000000E+00  0.45492081579E+03  0.45492081579E+03  0.00000000000E+00 0. -1.
         -1   -1    0    0    0  501 -0.00000000000E+00 -0.00000000000E+00 -0.36907811805E+02  0.36907811805E+02  0.00000000000E+00 0.  1.
         25    2    1    2    0    0  0.10513259849E+02 -0.60426859690E+02  0.20939238765E+03  0.25150225579E+03  0.12508508568E+03 0.  0.
         23    2    1    2    0    0 -0.10513259849E+02  0.60426859690E+02  0.20862061634E+03  0.24032637180E+03  0.10233410681E+03 0.  0.
          5    1    3    3  502    0  0.63455656410E+02 -0.15312913725E+02  0.70880751681E+02  0.96450292980E+02  0.41800000000E+01 0.  1.
         -5    1    3    3    0  502 -0.52942396562E+02 -0.45113945965E+02  0.13851163597E+03  0.15505196281E+03  0.41800000000E+01 0.  1.
        -11    1    4    4    0    0  0.39136297053E+01  0.87947292498E+02  0.14791422539E+03  0.17212977903E+03  0.00000000000E+00 0.  1.
         11    1    4    4    0    0 -0.14426889554E+02 -0.27520432808E+02  0.60706390948E+02  0.68196592775E+02  0.00000000000E+00 0. -1.
</event>
<event>
 8    1  0.6493926E-009  0.2129380E+03  0.7561462E-02  0.1139260E+00
         -1   -1    0    0    0  501 -0.00000000000E+00  0.00000000000E+00  0.18039250668E+03  0.18039250668E+03  0.00000000000E+00 0.  1.
          1   -1    0    0  501    0  0.00000000000E+00 -0.00000000000E+00 -0.29516941499E+03  0.29516941499E+03  0.00000000000E+00 0. -1.
         25    2    1    2    0    0 -0.12049695419E+03  0.15351392657E+03 -0.11887236572E+03  0.26050212256E+03  0.12507867486E+03 0.  0.
         23    2    1    2    0    0  0.12049695419E+03 -0.15351392657E+03  0.40954574124E+01  0.21505979911E+03  0.90265734380E+02 0.  0.
          5    1    3    3  502    0 -0.11959323022E+03  0.17322587932E+03 -0.10082849319E+03  0.23343865023E+03  0.41800000000E+01 0.  1.
         -5    1    3    3    0  502 -0.90372397366E+00 -0.19711952759E+02 -0.18043872528E+02  0.27063472327E+02  0.41800000000E+01 0.  1.
        -11    1    4    4    0    0  0.25178857365E+02 -0.30873458965E+02  0.39118883258E+02  0.55833971326E+02  0.00000000000E+00 0.  1.
         11    1    4    4    0    0  0.95318096829E+02 -0.12264046760E+03 -0.35023425845E+02  0.15922582779E+03  0.00000000000E+00 0. -1.
</event>
<event>
 8    1  0.6493926E-009  0.1092105E+03  0.7561462E-02  0.1262039E+00
         -1   -1    0    0    0  501 -0.00000000000E+00  0.00000000000E+00  0.38522081927E+03  0.38522081927E+03  0.00000000000E+00 0.  1.
          1   -1    0    0  501    0  0.00000000000E+00 -0.00000000000E+00 -0.36691902511E+02  0.36691902511E+02  0.00000000000E+00 0. -1.
         25    2    1    2    0    0 -0.46262108682E+01 -0.45982693206E+02  0.18039536464E+03  0.22433550192E+03  0.12509244557E+03 0.  0.
         23    2    1    2    0    0  0.46262108682E+01  0.45982693206E+02  0.16813355212E+03  0.19757721985E+03  0.92908861557E+02 0.  0.
          5    1    3    3  502    0 -0.37993064429E+02 -0.77816577364E+02  0.10966333515E+03  0.13979417775E+03  0.41800000000E+01 0.  1.
         -5    1    3    3    0  502  0.33366853561E+02  0.31833884158E+02  0.70732029487E+02  0.84541324170E+02  0.41800000000E+01 0.  1.
        -11    1    4    4    0    0  0.20935948070E+02  0.60228172395E+02  0.60880908062E+02  0.88160261105E+02  0.00000000000E+00 0.  1.
         11    1    4    4    0    0 -0.16309737201E+02 -0.14245479189E+02  0.10725264406E+03  0.10941695875E+03  0.00000000000E+00 0. -1.
</event>
<event>
 8    1  0.6493926E-009  0.1317402E+03  0.7561462E-02  0.1224896E+00
          2   -1    0    0  501    0  0.00000000000E+00  0.00000000000E+00  0.16732031982E+03  0.16732031982E+03  0.00000000000E+00 0. -1.
         -2   -1    0    0    0  501 -0.00000000000E+00 -0.00000000000E+00 -0.16379825763E+03  0.16379825763E+03  0.00000000000E+00 0.  1.
         25    2    1    2    0    0  0.94031768373E+02  0.61734245424E+02  0.58511454771E+02  0.17811310920E+03  0.12509036258E+03 0.  0.
         23    2    1    2    0    0 -0.94031768373E+02 -0.61734245424E+02 -0.54989392580E+02  0.15300546825E+03  0.87941739225E+02 0.  0.
          5    1    3    3  502    0  0.50423427622E+02  0.68749625665E+02 -0.20236692188E+02  0.87727015183E+02  0.41800000000E+01 0. -1.
         -5    1    3    3    0  502  0.43608340750E+02 -0.70153802410E+01  0.78748146959E+02  0.90386094021E+02  0.41800000000E+01 0. -1.
        -11    1    4    4    0    0 -0.68897669184E+02 -0.77800986703E+02 -0.63746663147E+02  0.12191603427E+03  0.00000000000E+00 0.  1.
         11    1    4    4    0    0 -0.25134099189E+02  0.16066741279E+02  0.87572705671E+01  0.31089433979E+02  0.00000000000E+00 0. -1.
</event>
<event>
 8    1  0.6493926E-009  0.1573535E+03  0.7561462E-02  0.1191717E+00
          2   -1    0    0  501    0  0.00000000000E+00  0.00000000000E+00  0.11036267949E+04  0.11036267949E+04  0.00000000000E+00 0. -1.
         -2   -1    0    0    0  501 -0.00000000000E+00 -0.00000000000E+00 -0.97443302116E+02  0.97443302116E+02  0.00000000000E+00 0.  1.
         25    2    1    2    0    0  0.17746030912E+02  0.13068691772E+03  0.10215974421E+04  0.10376442009E+04  0.12510060682E+03 0.  0.
         23    2    1    2    0    0 -0.17746030912E+02 -0.13068691772E+03 -0.15413949276E+02  0.16342589618E+03  0.95270360730E+02 0.  0.
          5    1    3    3  502    0 -0.51248447351E+02  0.83593134898E+02  0.55186031630E+03  0.56051895300E+03  0.41800000000E+01 0.  1.
         -5    1    3    3    0  502  0.68994478263E+02  0.47093782823E+02  0.46973712577E+03  0.47712524785E+03  0.41800000000E+01 0.  1.
        -11    1    4    4    0    0 -0.69295883795E+01 -0.12893881682E+02 -0.40013090290E+02  0.42606557882E+02  0.00000000000E+00 0.  1.
         11    1    4    4    0    0 -0.10816442532E+02 -0.11779303604E+03  0.24599141015E+02  0.12081933830E+03  0.00000000000E+00 0. -1.
</event>
<event>
 8    1  0.6493926E-009  0.8499505E+02  0.7561462E-02  0.1315445E+00
         -1   -1    0    0    0  501 -0.00000000000E+00  0.00000000000E+00  0.86083143030E+02  0.86083143030E+02  0.00000000000E+00 0.  1.
          1   -1    0    0  501    0  0.00000000000E+00 -0.00000000000E+00 -0.20911514630E+03  0.20911514630E+03  0.00000000000E+00 0. -1.
         25    2    1    2    0    0  0.22167450211E+02  0.67857034310E+00  0.13140545848E+02  0.12771075035E+03  0.12508199512E+03 0.  0.
         23    2    1    2    0    0 -0.22167450211E+02 -0.67857034310E+00 -0.13617254912E+03  0.16748753898E+03  0.94959234799E+02 0.  0.
          5    1    3    3  502    0  0.46495412421E+02  0.12158550718E+02 -0.43443245916E+02  0.64918731869E+02  0.41800000000E+01 0. -1.
         -5    1    3    3    0  502 -0.24327962211E+02 -0.11479980375E+02  0.56583791764E+02  0.62792018482E+02  0.41800000000E+01 0. -1.
        -11    1    4    4    0    0  0.16976755980E+02 -0.37262739394E+02 -0.79936703623E+02  0.89814244844E+02  0.00000000000E+00 0. -1.
         11    1    4    4    0    0 -0.39144206191E+02  0.36584169051E+02 -0.56235845499E+02  0.77673294139E+02  0.00000000000E+00 0.  1.
</event>
<event>
 8    1  0.6493926E-009  0.6917445E+02  0.7561462E-02  0.1362923E+00
          1   -1    0    0  501    0  0.00000000000E+00  0.00000000000E+00  0.87805392744E+02  0.87805392744E+02  0.00000000000E+00 0. -1.
         -1   -1    0    0    0  501 -0.00000000000E+00 -0.00000000000E+00 -0.16405915871E+03  0.16405915871E+03  0.00000000000E+00 0.  1.
         25    2    1    2    0    0 -0.37944382644E+02  0.30783356195E+02 -0.66435522811E+02  0.14982935642E+03  0.12509103150E+03 0.  0.
         23    2    1    2    0    0  0.37944382644E+02 -0.30783356195E+02 -0.98182431593E+01  0.10203519504E+03  0.89035902505E+02 0.  0.
          5    1    3    3  502    0 -0.22243896792E+02 -0.98539489733E+01  0.32986885339E+02  0.41200707024E+02  0.41800000000E+01 0.  1.
         -5    1    3    3    0  502 -0.15700485852E+02  0.40637305168E+02 -0.99422408150E+02  0.10862864940E+03  0.41800000000E+01 0.  1.
        -11    1    4    4    0    0  0.50321966006E+02 -0.23518222287E+02  0.27551632339E+02  0.62004027989E+02  0.00000000000E+00 0. -1.
         11    1    4    4    0    0 -0.12377583362E+02 -0.72651339075E+01 -0.37369875499E+02  0.40031167050E+02  0.00000000000E+00 0.  1.
</event>
<event>
 8    1  0.6493926E-009  0.1663955E+03  0.7561462E-02  0.1181660E+00
          1   -1    0    0  501    0  0.00000000000E+00  0.00000000000E+00  0.23468855630E+03  0.23468855630E+03  0.00000000000E+00 0. -1.
         -1   -1    0    0    0  501 -0.00000000000E+00 -0.00000000000E+00 -0.14373039555E+03  0.14373039555E+03  0.00000000000E+00 0.  1.
         25    2    1    2    0    0  0.80988192341E+02 -0.12197622110E+03  0.69250056214E+02  0.20464655726E+03  0.12508939723E+03 0.  0.
         23    2    1    2    0    0 -0.80988192341E+02  0.12197622110E+03  0.21708104537E+02  0.17377239459E+03  0.91040197207E+02 0.  0.
          5    1    3    3  502    0  0.91187632749E+02 -0.12412666205E+03  0.21472948804E+02  0.15556726047E+03  0.41800000000E+01 0.  1.
         -5    1    3    3    0  502 -0.10199440408E+02  0.21504409556E+01  0.47777107411E+02  0.49079296791E+02  0.41800000000E+01 0.  1.
        -11    1    4    4    0    0 -0.97654734950E+02  0.98615425478E+02  0.17122355296E+01  0.13879618565E+03  0.00000000000E+00 0. -1.
         11    1    4    4    0    0  0.16666542610E+02  0.23360795619E+02  0.19995869008E+02  0.34976208941E+02  0.00000000000E+00 0.  1.
</event>
<event>
 8    1  0.6493926E-009  0.1380932E+03  0.7561462E-02  0.1215918E+00
         -1   -1    0    0    0  501 -0.00000000000E+00  0.00000000000E+00  0.12746566194E+03  0.12746566194E+03  0.00000000000E+00 0.  1.
          1   -1    0    0  501    0  0.00000000000E+00 -0.00000000000E+00 -0.18613239674E+03  0.18613239674E+03  0.00000000000E+00 0. -1.
         25    2    1    2    0    0  0.29464534266E+02  0.86027003452E+02 -0.92539072691E+02  0.18022060981E+03  0.12508870503E+03 0.  0.
         23    2    1    2    0    0 -0.29464534266E+02 -0.86027003452E+02  0.33872337894E+02  0.13337744886E+03  0.91506308461E+02 0.  0.
          5    1    3    3  502    0 -0.33272971021E+02  0.76802264331E+02 -0.24931736325E+02  0.87434216890E+02  0.41800000000E+01 0.  1.
         -5    1    3    3    0  502  0.62737505287E+02  0.92247391207E+01 -0.67607336366E+02  0.92786392925E+02  0.41800000000E+01 0.  1.
        -11    1    4    4    0    0 -0.60263525875E+02 -0.74789040128E+02  0.28231719707E+02  0.10011055425E+03  0.00000000000E+00 0.  1.
         11    1    4    4    0    0  0.30798991609E+02 -0.11237963324E+02  0.56406181874E+01  0.33266894615E+02  0.00000000000E+00 0. -1.
</event>
<event>
 8    1  0.6493926E-009  0.1244487E+03  0.7561462E-02  0.1235933E+00
          1   -1    0    0  501    0  0.00000000000E+00  0.00000000000E+00  0.16310100471E+03  0.16310100471E+03  0.00000000000E+00 0. -1.
         -1   -1    0    0    0  501 -0.00000000000E+00 -0.00000000000E+00 -0.10592166456E+03  0.10592166456E+03  0.00000000000E+00 0.  1.
         25    2    1    2    0    0 -0.57391807381E+02 -0.47239740497E+02  0.43313334292E+02  0.15182340370E+03  0.12509551690E+03 0.  0.
         23    2    1    2    0    0  0.57391807381E+02  0.47239740497E+02  0.13866005860E+02  0.11719926557E+03  0.89543224733E+02 0.  0.
          5    1    3    3  502    0 -0.21648290801E+01 -0.75796986894E+02  0.47153768172E+02  0.89391386385E+02  0.41800000000E+01 0.  1.
         -5    1    3    3    0  502 -0.55226978301E+02  0.28557246396E+02 -0.38404338800E+01  0.62432017318E+02  0.41800000000E+01 0.  1.
        -11    1    4    4    0    0 -0.16798844350E+02 -0.75443391143E+01  0.16800028962E+02  0.24927077592E+02  0.00000000000E+00 0.  1.
         11    1    4    4    0    0  0.74190651731E+02  0.54784079612E+02 -0.29340231024E+01  0.92272187981E+02  0.00000000000E+00 0. -1.
</event>
<event>
 8    1  0.6493926E-009  0.2479165E+03  0.7561462E-02  0.1114629E+00
          2   -1    0    0  501    0  0.00000000000E+00  0.00000000000E+00  0.16278919808E+04  0.16278919808E+04  0.00000000000E+00 0. -1.
         -2   -1    0    0    0  501 -0.00000000000E+00 -0.00000000000E+00 -0.38826664107E+02  0.38826664107E+02  0.00000000000E+00 0.  1.
         25    2    1    2    0    0  0.11790228813E+03  0.19311575405E+03  0.83962490694E+03  0.87852838790E+03  0.12508996752E+03 0.  0.
         23    2    1    2    0    0 -0.11790228813E+03 -0.19311575405E+03  0.74944040979E+03  0.78819025705E+03  0.91587714683E+02 0.  0.
          5    1    3    3  502    0  0.10825312847E+03  0.20967234088E+03  0.80324003232E+03  0.83719367668E+03  0.41800000000E+01 0. -1.
         -5    1    3    3    0  502  0.96491596575E+01 -0.16556586837E+02  0.36384874622E+02  0.41334711213E+02  0.41800000000E+01 0. -1.
        -11    1    4    4    0    0 -0.88729923583E+02 -0.68131882069E+02  0.27998261160E+03  0.30150491786E+03  0.00000000000E+00 0.  1.
         11    1    4    4    0    0 -0.29172364543E+02 -0.12498387198E+03  0.46945779819E+03  0.48668533920E+03  0.00000000000E+00 0. -1.
</event>
<event>
 8    1  0.6493926E-009  0.9136500E+02  0.7561462E-02  0.1299579E+00
         -2   -1    0    0    0  501 -0.00000000000E+00  0.00000000000E+00  0.26785972517E+02  0.26785972517E+02  0.00000000000E+00 0.  1.
          2   -1    0    0  501    0  0.00000000000E+00 -0.00000000000E+00 -0.47808999312E+03  0.47808999312E+03  0.00000000000E+00 0. -1.
         25    2    1    2    0    0  0.91585031783E+01  0.89118990446E+01 -0.20050073629E+03  0.23666738534E+03  0.12509039093E+03 0.  0.
         23    2    1    2    0    0 -0.91585031783E+01 -0.89118990446E+01 -0.25080328431E+03  0.26820858030E+03  0.94182031202E+02 0.  0.
          5    1    3    3  502    0 -0.73658456926E+01  0.48626320208E+02 -0.18383808615E+03  0.19034886136E+03  0.41800000000E+01 0.  1.
         -5    1    3    3    0  502  0.16524348871E+02 -0.39714421163E+02 -0.16662650143E+02  0.46318523981E+02  0.41800000000E+01 0.  1.
        -11    1    4    4    0    0 -0.32886743721E+02 -0.39527687419E+02 -0.99192053683E+02  0.11172752346E+03  0.00000000000E+00 0.  1.
         11    1    4    4    0    0  0.23728240542E+02  0.30615788374E+02 -0.15161123062E+03  0.15648105683E+03  0.00000000000E+00 0. -1.
</event>
<event>
 8    1  0.6493926E-009  0.6319483E+02  0.7561462E-02  0.1384893E+00
          2   -1    0    0  501    0  0.00000000000E+00  0.00000000000E+00  0.23413621941E+03  0.23413621941E+03  0.00000000000E+00 0. -1.
         -2   -1    0    0    0  501 -0.00000000000E+00 -0.00000000000E+00 -0.59077728594E+02  0.59077728594E+02  0.00000000000E+00 0.  1.
         25    2    1    2    0    0 -0.38120691013E+02  0.23923291697E+02  0.11250823984E+03  0.17415781482E+03  0.12508928597E+03 0.  0.
         23    2    1    2    0    0  0.38120691013E+02 -0.23923291697E+02  0.62550250976E+02  0.11905613317E+03  0.90754162331E+02 0.  0.
          5    1    3    3  502    0 -0.15987476298E+02  0.43766231485E+02 -0.10157922098E+02  0.47872102503E+02  0.41800000000E+01 0.  1.
         -5    1    3    3    0  502 -0.22133214715E+02 -0.19842939787E+02  0.12266616193E+03  0.12628571232E+03  0.41800000000E+01 0.  1.
        -11    1    4    4    0    0  0.11311682308E+01 -0.10003861062E+02 -0.22841555874E+02  0.24961839926E+02  0.00000000000E+00 0.  1.
         11    1    4    4    0    0  0.36989522782E+02 -0.13919430635E+02  0.85391806851E+02  0.94094293249E+02  0.00000000000E+00 0. -1.
</event>
<event>
 8    1  0.6493926E-009  0.7508999E+02  0.7561462E-02  0.1343593E+00
          1   -1    0    0  501    0  0.00000000000E+00  0.00000000000E+00  0.10608923914E+03  0.10608923914E+03  0.00000000000E+00 0. -1.
         -1   -1    0    0    0  501 -0.00000000000E+00 -0.00000000000E+00 -0.13040855992E+03  0.13040855992E+03  0.00000000000E+00 0.  1.
         25    2    1    2    0    0 -0.26488842000E+01 -0.25336386020E+02 -0.53390142554E+02  0.13837067227E+03  0.12508791540E+03 0.  0.
         23    2    1    2    0    0  0.26488842000E+01  0.25336386020E+02  0.29070821783E+02  0.98127126785E+02  0.90193521318E+02 0.  0.
          5    1    3    3  502    0 -0.11030334006E+02  0.20057875919E+02  0.32972251749E+02  0.40356268907E+02  0.41800000000E+01 0.  1.
         -5    1    3    3    0  502  0.83814498065E+01 -0.45394261940E+02 -0.86362394303E+02  0.98014403368E+02  0.41800000000E+01 0.  1.
        -11    1    4    4    0    0 -0.24031590334E+02  0.42508543034E+02  0.41467028109E+02  0.64062531834E+02  0.00000000000E+00 0. -1.
         11    1    4    4    0    0  0.26680474534E+02 -0.17172157014E+02 -0.12396206326E+02  0.34064594950E+02  0.00000000000E+00 0.  1.
</event>
<event>
 8    1  0.6493926E-009  0.7791920E+02  0.7561462E-02  0.1335062E+00
         -2   -1    0    0    0  501 -0.00000000000E+00  0.00000000000E+00  0.59091753272E+02  0.59091753272E+02  0.00000000000E+00 0.  1.
          2   -1    0    0  501    0  0.00000000000E+00 -0.00000000000E+00 -0.34622472493E+03  0.34622472493E+03  0.00000000000E+00 0. -1.
         25    2    1    2    0    0 -0.15754034995E+02 -0.29633806350E+02 -0.33992975846E+02  0.13389925702E+03  0.12508851477E+03 0.  0.
         23    2    1    2    0    0  0.15754034995E+02  0.29633806350E+02 -0.25313999581E+03  0.27141722118E+03  0.91984228948E+02 0.  0.
          5    1    3    3  502    0 -0.12430434527E+02  0.16274748542E+02  0.40878218946E+02  0.45911701415E+02  0.41800000000E+01 0.  1.
         -5    1    3    3    0  502 -0.33236004682E+01 -0.45908554892E+02 -0.74871194792E+02  0.87987555608E+02  0.41800000000E+01 0.  1.
        -11    1    4    4    0    0  0.49134582132E+02  0.24641623613E+02 -0.20747400597E+03  0.21463196390E+03  0.00000000000E+00 0.  1.
         11    1    4    4    0    0 -0.33380547137E+02  0.49921827365E+01 -0.45665989843E+02  0.56785257277E+02  0.00000000000E+00 0. -1.
</event>
<event>
 8    1  0.6493926E-009  0.1301996E+03  0.7561462E-02  0.1227160E+00
          2   -1    0    0  501    0  0.00000000000E+00  0.00000000000E+00  0.13390923397E+04  0.13390923397E+04  0.00000000000E+00 0. -1.
         -2   -1    0    0    0  501 -0.00000000000E+00 -0.00000000000E+00 -0.14369713801E+02  0.14369713801E+02  0.00000000000E+00 0.  1.
         25    2    1    2    0    0  0.58573182777E+02  0.43577387540E+02  0.94928772682E+03  0.96027199034E+03  0.12508117641E+03 0.  0.
         23    2    1    2    0    0 -0.58573182777E+02 -0.43577387540E+02  0.37543489905E+03  0.39319006313E+03  0.91198990549E+02 0.  0.
          5    1    3    3  502    0 -0.34429182957E+02  0.37943201818E+02  0.31628954050E+03  0.32043969952E+03  0.41800000000E+01 0.  1.
         -5    1    3    3    0  502  0.93002365734E+02  0.56341857219E+01  0.63299818633E+03  0.63983229082E+03  0.41800000000E+01 0.  1.
        -11    1    4    4    0    0 -0.11922307291E+02 -0.63783479300E+02  0.18343909399E+03  0.19457742635E+03  0.00000000000E+00 0. -1.
         11    1    4    4    0    0 -0.46650875486E+02  0.20206091761E+02  0.19199580506E+03  0.19861263678E+03  0.00000000000E+00 0.  1.
</event>
<event>
 8    1  0.6493926E-009  0.1233761E+03  0.7561462E-02  0.1237629E+00
         -1   -1    0    0    0  501 -0.00000000000E+00  0.00000000000E+00  0.30810909892E+02  0.30810909892E+02  0.00000000000E+00 0.  1.
          1   -1    0    0  501    0  0.00000000000E+00 -0.00000000000E+00 -0.53021771312E+03  0.53021771312E+03  0.00000000000E+00 0. -1.
         25    2    1    2    0    0 -0.43345752572E+02 -0.51108445877E+02 -0.30532154175E+03  0.33668943845E+03  0.12509039372E+03 0.  0.
         23    2    1    2    0    0  0.43345752572E+02  0.51108445877E+02 -0.19408526148E+03  0.22433918456E+03  0.90377284206E+02 0.  0.
          5    1    3    3  502    0 -0.84646264714E+02 -0.28197971489E+02 -0.23914769915E+03  0.25528260837E+03  0.41800000000E+01 0.  1.
         -5    1    3    3    0  502  0.41300512142E+02 -0.22910474388E+02 -0.66173842600E+02  0.81406830084E+02  0.41800000000E+01 0.  1.
        -11    1    4    4    0    0  0.66699133894E+02  0.54867428976E+02 -0.16942501261E+03  0.19016846249E+03  0.00000000000E+00 0. -1.
         11    1    4    4    0    0 -0.23353381322E+02 -0.37589830993E+01 -0.24660248862E+02  0.34170722074E+02  0.00000000000E+00 0.  1.
</event>
<event>
 8    1  0.6493926E-009  0.8120419E+02  0.7561462E-02  0.1325668E+00
          2   -1    0    0  501    0  0.00000000000E+00  0.00000000000E+00  0.12673555738E+04  0.12673555738E+04  0.00000000000E+00 0.  1.
         -2   -1    0    0    0  501 -0.00000000000E+00 -0.00000000000E+00 -0.26944080205E+02  0.26944080205E+02  0.00000000000E+00 0. -1.
         25    2    1    2    0    0 -0.25572881106E+02 -0.32664967238E+02  0.11535073680E+04  0.11610116721E+04  0.12509149580E+03 0.  0.
         23    2    1    2    0    0  0.25572881106E+02  0.32664967238E+02  0.86904125587E+02  0.13328798193E+03  0.92154146674E+02 0.  0.
          5    1    3    3  502    0 -0.39494862524E+02 -0.32670570468E+02  0.11400293562E+04  0.11411886854E+04  0.41800000000E+01 0. -1.
         -5    1    3    3    0  502  0.13921981418E+02  0.56032300775E-02  0.13478011836E+02  0.19822986683E+02  0.41800000000E+01 0. -1.
        -11    1    4    4    0    0  0.58099684073E+02  0.23302100607E+02  0.74336176791E+02  0.97182448837E+02  0.00000000000E+00 0. -1.
         11    1    4    4    0    0 -0.32526802966E+02  0.93628666310E+01  0.12567948797E+02  0.36105533090E+02  0.00000000000E+00 0.  1.
</event>
<event>
 8    1  0.6493926E-009  0.1133772E+03  0.7561462E-02  0.1254441E+00
          1   -1    0    0  501    0  0.00000000000E+00  0.00000000000E+00  0.87787358645E+03  0.87787358645E+03  0.00000000000E+00 0.  1.
         -1   -1    0    0    0  501 -0.00000000000E+00 -0.00000000000E+00 -0.28943841494E+02  0.28943841494E+02  0.00000000000E+00 0. -1.
         25    2    1    2    0    0  0.54047344714E+02  0.75250979646E+02  0.65593588282E+03  0.67415372117E+03  0.12509009546E+03 0.  0.
         23    2    1    2    0    0 -0.54047344714E+02 -0.75250979646E+02  0.19299386213E+03  0.23266370677E+03  0.91115005465E+02 0.  0.
          5    1    3    3  502    0  0.56223023563E+02  0.23217248717E+02  0.57230832509E+03  0.57554700970E+03  0.41800000000E+01 0. -1.
         -5    1    3    3    0  502 -0.21756788497E+01  0.52033730928E+02  0.83627557738E+02  0.98606711465E+02  0.41800000000E+01 0. -1.
        -11    1    4    4    0    0 -0.71012025072E+01 -0.65124090399E+02  0.16391320114E+03  0.17651943727E+03  0.00000000000E+00 0.  1.
         11    1    4    4    0    0 -0.46946142206E+02 -0.10126889247E+02  0.29080660988E+02  0.56144269497E+02  0.00000000000E+00 0. -1.
</event>
<event>
 8    1  0.6493926E-009  0.2432593E+03  0.7561462E-02  0.1117640E+00
          2   -1    0    0  501    0  0.00000000000E+00  0.00000000000E+00  0.12264133462E+04  0.12264133462E+04  0.00000000000E+00 0. -1.
         -2   -1    0    0    0  501 -0.00000000000E+00 -0.00000000000E+00 -0.69216291783E+02  0.69216291783E+02  0.00000000000E+00 0.  1.
         25    2    1    2    0    0  0.18989925958E+03 -0.10670492415E+03  0.23659673189E+03  0.34506858920E+03  0.12508656235E+03 0.  0.
         23    2    1    2    0    0 -0.18989925958E+03  0.10670492415E+03  0.92060032253E+03  0.95056104879E+03  0.92809934865E+02 0.  0.
          5    1    3    3  502    0  0.16432755866E+03 -0.26001630652E+02  0.15707747586E+03  0.22884588079E+03  0.41800000000E+01 0.  1.
         -5    1    3    3    0  502  0.25571700920E+02 -0.80703293503E+02  0.79519256029E+02  0.11622270841E+03  0.41800000000E+01 0.  1.
        -11    1    4    4    0    0 -0.12078822791E+03  0.16824685176E+02  0.42457586810E+03  0.44174374224E+03  0.00000000000E+00 0.  1.
         11    1    4    4    0    0 -0.69111031674E+02  0.89880238978E+02  0.49602445442E+03  0.50881730655E+03  0.00000000000E+00 0. -1.
</event>
<event>
 8    1  0.6493926E-009  0.1114801E+03  0.7561462E-02  0.1257853E+00
         -2   -1    0    0    0  501 -0.00000000000E+00  0.00000000000E+00  0.23359513549E+02  0.23359513549E+02  0.00000000000E+00 0.  1.
          2   -1    0    0  501    0  0.00000000000E+00 -0.00000000000E+00 -0.71018145678E+03  0.71018145678E+03  0.00000000000E+00 0. -1.
         25    2    1    2    0    0 -0.46610848727E+02  0.28177615227E+02 -0.52779061151E+03  0.54513885854E+03  0.12508755446E+03 0.  0.
         23    2    1    2    0    0  0.46610848727E+02 -0.28177615227E+02 -0.15903133172E+03  0.18840211179E+03  0.85075507856E+02 0.  0.
          5    1    3    3  502    0 -0.60909652763E+02 -0.28350052834E+02 -0.17429005886E+03  0.18683738468E+03  0.41800000000E+01 0.  1.
         -5    1    3    3    0  502  0.14298804036E+02  0.56527668060E+02 -0.35350055265E+03  0.35830147387E+03  0.41800000000E+01 0.  1.
        -11    1    4    4    0    0 -0.18114260783E+02 -0.26925054492E+02 -0.79404992607E+02  0.85780171683E+02  0.00000000000E+00 0. -1.
         11    1    4    4    0    0  0.64725109510E+02 -0.12525607353E+01 -0.79626339117E+02  0.10262194010E+03  0.00000000000E+00 0.  1.
</event>
<event>
 8    1  0.6493926E-009  0.7632520E+02  0.7561462E-02  0.1339816E+00
         -2   -1    0    0    0  501 -0.00000000000E+00  0.00000000000E+00  0.32901977313E+02  0.32901977313E+02  0.00000000000E+00 0.  1.
          2   -1    0    0  501    0  0.00000000000E+00 -0.00000000000E+00 -0.37244205158E+03  0.37244205158E+03  0.00000000000E+00 0. -1.
         25    2    1    2    0    0 -0.20894230564E+02 -0.13112927989E+02 -0.19806146902E+03  0.23555240940E+03  0.12509226320E+03 0.  0.
         23    2    1    2    0    0  0.20894230564E+02  0.13112927989E+02 -0.14147860525E+03  0.16979161950E+03  0.90578587737E+02 0.  0.
          5    1    3    3  502    0  0.15007710020E+01  0.25419625017E+02 -0.18788241671E+03  0.18964620892E+03  0.41800000000E+01 0. -1.
         -5    1    3    3    0  502 -0.22395001566E+02 -0.38532553006E+02 -0.10179052309E+02  0.45906200477E+02  0.41800000000E+01 0. -1.
        -11    1    4    4    0    0  0.33959496022E+02  0.39829849622E+02 -0.12561729713E+03  0.13608589063E+03  0.00000000000E+00 0. -1.
         11    1    4    4    0    0 -0.13065265457E+02 -0.26716921633E+02 -0.15861308120E+02  0.33705728864E+02  0.00000000000E+00 0.  1.
</event>
<event>
 8    1  0.6493926E-009  0.1412884E+03  0.7561462E-02  0.1211606E+00
          2   -1    0    0  501    0  0.00000000000E+00  0.00000000000E+00  0.16731423903E+03  0.16731423903E+03  0.00000000000E+00 0. -1.
         -2   -1    0    0    0  501 -0.00000000000E+00 -0.00000000000E+00 -0.12990611444E+03  0.12990611444E+03  0.00000000000E+00 0.  1.
         25    2    1    2    0    0  0.50432565712E+02  0.85458071083E+02  0.10205775693E+02  0.15999772969E+03  0.12509432462E+03 0.  0.
         23    2    1    2    0    0 -0.50432565712E+02 -0.85458071083E+02  0.27202348892E+02  0.13722262378E+03  0.90794025654E+02 0.  0.
          5    1    3    3  502    0 -0.34415041970E+02  0.62828697188E+02  0.44346452963E+01  0.71895610318E+02  0.41800000000E+01 0.  1.
         -5    1    3    3    0  502  0.84847607683E+02  0.22629373896E+02  0.57711303971E+01  0.88102119375E+02  0.41800000000E+01 0.  1.
        -11    1    4    4    0    0  0.18629643573E+02 -0.12445996091E+02 -0.16304401932E+02  0.27709203538E+02  0.00000000000E+00 0.  1.
         11    1    4    4    0    0 -0.69062209285E+02 -0.73012074993E+02  0.43506750825E+02  0.10951342024E+03  0.00000000000E+00 0. -1.
</event>
<event>
 8    1  0.6493926E-009  0.9777209E+02  0.7561462E-02  0.1285052E+00
         -4   -1    0    0    0  501 -0.00000000000E+00  0.00000000000E+00  0.46278733858E+02  0.46278733858E+02  0.00000000000E+00 0.  1.
          4   -1    0    0  501    0  0.00000000000E+00 -0.00000000000E+00 -0.29146040046E+03  0.29146040046E+03  0.00000000000E+00 0. -1.
         25    2    1    2    0    0 -0.25223071305E+02  0.21187101934E+02 -0.20353157763E+03  0.24115783308E+03  0.12508757232E+03 0.  0.
         23    2    1    2    0    0  0.25223071305E+02 -0.21187101934E+02 -0.41650088974E+02  0.96581301239E+02  0.80672927448E+02 0.  0.
          5    1    3    3  502    0  0.37156349400E+02  0.27199418728E+02 -0.26450598712E+02  0.53268276227E+02  0.41800000000E+01 0.  1.
         -5    1    3    3    0  502 -0.62379420705E+02 -0.60123167941E+01 -0.17708097892E+03  0.18788955685E+03  0.41800000000E+01 0.  1.
        -11    1    4    4    0    0  0.36834732528E+02 -0.46102770956E+02 -0.22857546710E+02  0.63282939659E+02  0.00000000000E+00 0. -1.
         11    1    4    4    0    0 -0.11611661224E+02  0.24915669022E+02 -0.18792542263E+02  0.33298361580E+02  0.00000000000E+00 0.  1.
</event>
<event>
 8    1  0.6493926E-009  0.8672883E+02  0.7561462E-02  0.1310972E+00
          2   -1    0    0  501    0  0.00000000000E+00  0.00000000000E+00  0.82618624256E+03  0.82618624256E+03  0.00000000000E+00 0. -1.
         -2   -1    0    0    0  501 -0.00000000000E+00 -0.00000000000E+00 -0.23698093369E+02  0.23698093369E+02  0.00000000000E+00 0.  1.
         25    2    1    2    0    0 -0.53319979361E+02 -0.15634471729E+02  0.23380584923E+03  0.27092908498E+03  0.12509970842E+03 0.  0.
         23    2    1    2    0    0  0.53319979361E+02  0.15634471729E+02  0.56868229996E+03  0.57895525095E+03  0.93285408350E+02 0.  0.
          5    1    3    3  502    0 -0.52594720122E+02 -0.22379944823E+02  0.25935738199E+02  0.62906290869E+02  0.41800000000E+01 0.  1.
         -5    1    3    3    0  502 -0.72525923869E+00  0.67454730940E+01  0.20787011104E+03  0.20802279411E+03  0.41800000000E+01 0.  1.
        -11    1    4    4    0    0  0.22534341216E+02  0.54278560215E+02  0.28397646987E+03  0.28999412766E+03  0.00000000000E+00 0.  1.
         11    1    4    4    0    0  0.30785638144E+02 -0.38644088486E+02  0.28470583009E+03  0.28896112329E+03  0.00000000000E+00 0. -1.
</event>
<event>
 8    1  0.6493926E-009  0.1433303E+03  0.7561462E-02  0.1208917E+00
          2   -1    0    0  501    0  0.00000000000E+00  0.00000000000E+00  0.57653470046E+03  0.57653470046E+03  0.00000000000E+00 0. -1.
         -2   -1    0    0    0  501 -0.00000000000E+00 -0.00000000000E+00 -0.53233792836E+02  0.53233792836E+02  0.00000000000E+00 0.  1.
         25    2    1    2    0    0 -0.10124929485E+03 -0.87545194502E+02  0.32878781891E+03  0.37638724453E+03  0.12510134770E+03 0.  0.
         23    2    1    2    0    0  0.10124929485E+03  0.87545194502E+02  0.19451308872E+03  0.25338124877E+03  0.91930053598E+02 0.  0.
          5    1    3    3  502    0 -0.71201976771E+02 -0.52788964957E+02  0.68650172712E+02  0.11219052959E+03  0.41800000000E+01 0. -1.
         -5    1    3    3    0  502 -0.30047318082E+02 -0.34756229545E+02  0.26013764619E+03  0.26419671494E+03  0.41800000000E+01 0. -1.
        -11    1    4    4    0    0  0.53406129070E+02  0.16026078700E+01  0.28860744017E+02  0.60726645877E+02  0.00000000000E+00 0.  1.
         11    1    4    4    0    0  0.47843165784E+02  0.85942586632E+02  0.16565234470E+03  0.19265460289E+03  0.00000000000E+00 0. -1.
</event>
<event>
 8    1  0.6493926E-009  0.1100085E+03  0.7561462E-02  0.1260554E+00
          2   -1    0    0  501    0  0.00000000000E+00  0.00000000000E+00  0.47013885465E+03  0.47013885465E+03  0.00000000000E+00 0. -1.
         -2   -1    0    0    0  501 -0.00000000000E+00 -0.00000000000E+00 -0.61029046791E+02  0.61029046791E+02  0.00000000000E+00 0.  1.
         25    2    1    2    0    0  0.12019872794E+02  0.37360967648E+02  0.24649725292E+02  0.13339455599E+03  0.12508468877E+03 0.  0.
         23    2    1    2    0    0 -0.12019872794E+02 -0.37360967648E+02  0.38446008257E+03  0.39777334545E+03  0.94200637040E+02 0.  0.
          5    1    3    3  502    0  0.38896855762E+02  0.69831315410E+02 -0.72471759671E+01  0.80370218113E+02  0.41800000000E+01 0. -1.
         -5    1    3    3    0  502 -0.26876982968E+02 -0.32470347763E+02  0.31896901259E+02  0.53024337876E+02  0.41800000000E+01 0. -1.
        -11    1    4    4    0    0  0.24231119658E+02 -0.52892325013E+02  0.28299319417E+03  0.28891156631E+03  0.00000000000E+00 0.  1.
         11    1    4    4    0    0 -0.36250992453E+02  0.15531357366E+02  0.10146688840E+03  0.10886177914E+03  0.00000000000E+00 0. -1.
</event>
<event>
 8    1  0.6493926E-009  0.9234382E+02  0.7561462E-02  0.1297273E+00
          4   -1    0    0  501    0  0.00000000000E+00  0.00000000000E+00  0.19780605495E+03  0.19780605495E+03  0.00000000000E+00 0. -1.
         -4   -1    0    0    0  501 -0.00000000000E+00 -0.00000000000E+00 -0.74555195032E+02  0.74555195032E+02  0.00000000000E+00 0.  1.
         25    2    1    2    0    0  0.40742341475E+02 -0.27588639803E+02  0.11034961837E+03  0.17391329426E+03  0.12509086383E+03 0.  0.
         23    2    1    2    0    0 -0.40742341475E+02  0.27588639803E+02  0.12901241551E+02  0.98447955718E+02  0.84288116104E+02 0.  0.
          5    1    3    3  502    0  0.60906452224E+02 -0.57639415205E+02  0.36467870480E+02  0.91538385855E+02  0.41800000000E+01 0. -1.
         -5    1    3    3    0  502 -0.20164110749E+02  0.30050775402E+02  0.73881747886E+02  0.82374908408E+02  0.41800000000E+01 0. -1.
        -11    1    4    4    0    0 -0.14924715984E+02 -0.10525127019E+02 -0.30260086906E+02  0.35343999570E+02  0.00000000000E+00 0.  1.
         11    1    4    4    0    0 -0.25817625491E+02  0.38113766822E+02  0.43161328458E+02  0.63103956148E+02  0.00000000000E+00 0. -1.
</event>
<event>
 8    1  0.6493926E-009  0.1601841E+03  0.7561462E-02  0.1188489E+00
          4   -1    0    0  501    0  0.00000000000E+00  0.00000000000E+00  0.62174742597E+02  0.62174742597E+02  0.00000000000E+00 0. -1.
         -4   -1    0    0    0  501 -0.00000000000E+00 -0.00000000000E+00 -0.46286980576E+03  0.46286980576E+03  0.00000000000E+00 0.  1.
         25    2    1    2    0    0  0.58615335939E+02 -0.11422949388E+03 -0.18942687557E+03  0.26079908203E+03  0.12509790214E+03 0.  0.
         23    2    1    2    0    0 -0.58615335939E+02  0.11422949388E+03 -0.21126818759E+03  0.26424546633E+03  0.93312831419E+02 0.  0.
          5    1    3    3  502    0  0.96577838083E+02 -0.63270612632E+02 -0.11936734934E+03  0.16612190018E+03  0.41800000000E+01 0.  1.
         -5    1    3    3    0  502 -0.37962502144E+02 -0.50958881247E+02 -0.70059526232E+02  0.94677181848E+02  0.41800000000E+01 0.  1.
        -11    1    4    4    0    0 -0.26713388186E+02  0.10441074701E+03 -0.96300218246E+02  0.14453007034E+03  0.00000000000E+00 0. -1.
         11    1    4    4    0    0 -0.31901947753E+02  0.98187468726E+01 -0.11496796935E+03  0.11971539599E+03  0.00000000000E+00 0.  1.
</event>
<event>
 8    1  0.6493926E-009  0.1754977E+03  0.7561462E-02  0.1172233E+00
         -2   -1    0    0    0  501 -0.00000000000E+00  0.00000000000E+00  0.26841942274E+03  0.26841942274E+03  0.00000000000E+00 0. -1.
          2   -1    0    0  501    0  0.00000000000E+00 -0.00000000000E+00 -0.15059777089E+03  0.15059777089E+03  0.00000000000E+00 0.  1.
         25    2    1    2    0    0  0.11105106116E+03 -0.11362866185E+03  0.11968849658E+03  0.23497763915E+03  0.12508134836E+03 0.  0.
         23    2    1    2    0    0 -0.11105106116E+03  0.11362866185E+03 -0.18668447259E+01  0.18403955449E+03  0.92861518030E+02 0.  0.
          5    1    3    3  502    0  0.10600027350E+03 -0.32899080890E+02  0.10464119616E+03  0.15259639524E+03  0.41800000000E+01 0.  1.
         -5    1    3    3    0  502  0.50507876529E+01 -0.80729580960E+02  0.15047300420E+02  0.82381243908E+02  0.41800000000E+01 0.  1.
        -11    1    4    4    0    0 -0.27320065202E+02  0.25534145954E+02 -0.41822094617E+02  0.56102283112E+02  0.00000000000E+00 0.  1.
         11    1    4    4    0    0 -0.83730995954E+02  0.88094515896E+02  0.39955249891E+02  0.12793727138E+03  0.00000000000E+00 0. -1.
</event>
<event>
 8    1  0.6493926E-009  0.1006752E+03  0.7561462E-02  0.1278883E+00
          1   -1    0    0  501    0  0.00000000000E+00  0.00000000000E+00  0.45234544526E+02  0.45234544526E+02  0.00000000000E+00 0. -1.
         -1   -1    0    0    0  501 -0.00000000000E+00 -0.00000000000E+00 -0.30967456645E+03  0.30967456645E+03  0.00000000000E+00 0.  1.
         25    2    1    2    0    0  0.36685269042E+02 -0.26051547741E+02 -0.17319562168E+03  0.21833274345E+03  0.12509185181E+03 0.  0.
         23    2    1    2    0    0 -0.36685269042E+02  0.26051547741E+02 -0.91244400239E+02  0.13657636752E+03  0.91121191200E+02 0.  0.
          5    1    3    3  502    0 -0.35663595113E+02  0.23341035836E+02 -0.38419630362E+02  0.57534653622E+02  0.41800000000E+01 0. -1.
         -5    1    3    3    0  502  0.72348864155E+02 -0.49392583577E+02 -0.13477599132E+03  0.16079808983E+03  0.41800000000E+01 0. -1.
        -11    1    4    4    0    0 -0.23941376743E+02  0.43239539376E+02 -0.73163911412E+01  0.49963755515E+02  0.00000000000E+00 0. -1.
         11    1    4    4    0    0 -0.12743892300E+02 -0.17187991635E+02 -0.83928009098E+02  0.86612612006E+02  0.00000000000E+00 0.  1.
</event>
<event>
 8    1  0.6493926E-009  0.1568880E+03  0.7561462E-02  0.1192256E+00
         -1   -1    0    0    0  501 -0.00000000000E+00  0.00000000000E+00  0.75681293962E+02  0.75681293962E+02  0.00000000000E+00 0.  1.
          1   -1    0    0  501    0  0.00000000000E+00 -0.00000000000E+00 -0.44015342463E+03  0.44015342463E+03  0.00000000000E+00 0. -1.
         25    2    1    2    0    0  0.75092804087E+02 -0.11905924881E+03 -0.14319726571E+03  0.23657383588E+03  0.12509072292E+03 0.  0.
         23    2    1    2    0    0 -0.75092804087E+02  0.11905924881E+03 -0.22127486495E+03  0.27926088271E+03  0.95968957484E+02 0.  0.
          5    1    3    3  502    0  0.66055758893E+02 -0.13483670281E+03 -0.78986283481E+02  0.16970741022E+03  0.41800000000E+01 0.  1.
         -5    1    3    3    0  502  0.90370451944E+01  0.15777453999E+02 -0.64210982230E+02  0.66866425652E+02  0.41800000000E+01 0.  1.
        -11    1    4    4    0    0 -0.56425978289E+02  0.57397309915E+02 -0.46420021074E+02  0.92914802738E+02  0.00000000000E+00 0.  1.
         11    1    4    4    0    0 -0.18666825798E+02  0.61661938893E+02 -0.17485484388E+03  0.18634607997E+03  0.00000000000E+00 0. -1.
</event>
<event>
 8    1  0.6493926E-009  0.1067091E+03  0.7561462E-02  0.1266788E+00
          1   -1    0    0  501    0  0.00000000000E+00  0.00000000000E+00  0.14311855081E+03  0.14311855081E+03  0.00000000000E+00 0. -1.
         -1   -1    0    0    0  501 -0.00000000000E+00 -0.00000000000E+00 -0.15341767133E+03  0.15341767133E+03  0.00000000000E+00 0.  1.
         25    2    1    2    0    0  0.28504299489E+02 -0.52790838483E+02  0.73723857846E+02  0.15710499032E+03  0.12508958011E+03 0.  0.
         23    2    1    2    0    0 -0.28504299489E+02  0.52790838483E+02 -0.84022978364E+02  0.13943123182E+03  0.93711470998E+02 0.  0.
          5    1    3    3  502    0  0.54720076064E+02 -0.38971747259E+01  0.84112195084E+02  0.10050775322E+03  0.41800000000E+01 0. -1.
         -5    1    3    3    0  502 -0.26215776575E+02 -0.48893663757E+02 -0.10388337239E+02  0.56597237102E+02  0.41800000000E+01 0. -1.
        -11    1    4    4    0    0 -0.58291897577E+02  0.37106712214E+02 -0.79709642683E+02  0.10549161365E+03  0.00000000000E+00 0.  1.
         11    1    4    4    0    0  0.29787598088E+02  0.15684126269E+02 -0.43133356818E+01  0.33939618167E+02  0.00000000000E+00 0. -1.
</event>
<event>
 8    1  0.6493926E-009  0.4107135E+03  0.7561462E-02  0.1040132E+00
          4   -1    0    0  501    0  0.00000000000E+00  0.00000000000E+00  0.52590848888E+03  0.52590848888E+03  0.00000000000E+00 0.  1.
         -4   -1    0    0    0  501 -0.00000000000E+00 -0.00000000000E+00 -0.95958479505E+03  0.95958479505E+03  0.00000000000E+00 0. -1.
         25    2    1    2    0    0  0.31843703599E+03 -0.24233507056E+03  0.38525445868E+03  0.56938349383E+03  0.12509249696E+03 0.  0.
         23    2    1    2    0    0 -0.31843703599E+03  0.24233507056E+03 -0.81893076485E+03  0.91610979011E+03  0.92092983410E+02 0.  0.
          5    1    3    3  502    0  0.97832550998E+02 -0.24883425290E+02  0.49370873250E+02  0.11245153807E+03  0.41800000000E+01 0. -1.
         -5    1    3    3    0  502  0.22060448500E+03 -0.21745164527E+03  0.33588358543E+03  0.45693195576E+03  0.41800000000E+01 0. -1.
        -11    1    4    4    0    0 -0.16783737893E+03  0.18413854872E+03 -0.49289853823E+03  0.55229101014E+03  0.00000000000E+00 0. -1.
         11    1    4    4    0    0 -0.15059965706E+03  0.58196521840E+02 -0.32603222662E+03  0.36381877997E+03  0.00000000000E+00 0.  1.
</event>
<event>
 8    1  0.6493926E-009  0.9466184E+02  0.7561462E-02  0.1291940E+00
         -1   -1    0    0    0  501 -0.00000000000E+00  0.00000000000E+00  0.91116784624E+02  0.91116784624E+02  0.00000000000E+00 0.  1.
          1   -1    0    0  501    0  0.00000000000E+00 -0.00000000000E+00 -0.20536589954E+03  0.20536589954E+03  0.00000000000E+00 0. -1.
         25    2    1    2    0    0 -0.17969641981E+02 -0.48483570063E+02  0.46618921416E+01  0.13543443549E+03  0.12508872243E+03 0.  0.
         23    2    1    2    0    0  0.17969641981E+02  0.48483570063E+02 -0.11891100706E+03  0.16104824867E+03  0.95515162159E+02 0.  0.
          5    1    3    3  502    0  0.41335002743E+02  0.18743256185E+02  0.17422458683E+00  0.45578447301E+02  0.41800000000E+01 0.  1.
         -5    1    3    3    0  502 -0.59304644725E+02 -0.67226826248E+02  0.44876675547E+01  0.89855988189E+02  0.41800000000E+01 0.  1.
        -11    1    4    4    0    0  0.20536026456E+01  0.27933637991E+02 -0.12985808532E+03  0.13284437413E+03  0.00000000000E+00 0. -1.
         11    1    4    4    0    0  0.15916039336E+02  0.20549932072E+02  0.10947078268E+02  0.28203874537E+02  0.00000000000E+00 0.  1.
</event>
<event>
 8    1  0.6493926E-009  0.1036650E+03  0.7561462E-02  0.1272772E+00
          1   -1    0    0  501    0  0.00000000000E+00  0.00000000000E+00  0.54961698397E+03  0.54961698397E+03  0.00000000000E+00 0. -1.
         -1   -1    0    0    0  501 -0.00000000000E+00 -0.00000000000E+00 -0.25303440969E+02  0.25303440969E+02  0.00000000000E+00 0.  1.
         25    2    1    2    0    0  0.19652472271E+02  0.14422048838E+02  0.41948991977E+03  0.43842193643E+03  0.12509111240E+03 0.  0.
         23    2    1    2    0    0 -0.19652472271E+02 -0.14422048838E+02  0.10482362324E+03  0.13649848851E+03  0.83962076063E+02 0.  0.
          5    1    3    3  502    0  0.58584181299E+02  0.42189255127E+02  0.31847359103E+03  0.32658067936E+03  0.41800000000E+01 0. -1.
         -5    1    3    3    0  502 -0.38931709028E+02 -0.27767206289E+02  0.10101632874E+03  0.11184125707E+03  0.41800000000E+01 0. -1.
        -11    1    4    4    0    0 -0.44895662946E+02 -0.32958810093E+02  0.73342721997E+02  0.92092663030E+02  0.00000000000E+00 0.  1.
         11    1    4    4    0    0  0.25243190675E+02  0.18536761255E+02  0.31480901241E+02  0.44405825476E+02  0.00000000000E+00 0. -1.
</event>
<event>
 8    1  0.6493926E-009  0.2057103E+03  0.7561462E-02  0.1145009E+00
          3   -1    0    0  501    0  0.00000000000E+00  0.00000000000E+00  0.51093996458E+02  0.51093996458E+02  0.00000000000E+00 0. -1.
         -3   -1    0    0    0  501 -0.00000000000E+00 -0.00000000000E+00 -0.85654318547E+03  0.85654318547E+03  0.00000000000E+00 0.  1.
         25    2    1    2    0    0  0.16874551495E+03  0.44210930982E+02 -0.49829738924E+03  0.54256566314E+03  0.12509018929E+03 0.  0.
         23    2    1    2    0    0 -0.16874551495E+03 -0.44210930982E+02 -0.30715179977E+03  0.36507151879E+03  0.92224348701E+02 0.  0.
          5    1    3    3  502    0 -0.17053404030E+02  0.20186760525E+02 -0.50751630882E+02  0.57371807769E+02  0.41800000000E+01 0. -1.
         -5    1    3    3    0  502  0.18579891898E+03  0.24024170456E+02 -0.44754575836E+03  0.48519385537E+03  0.41800000000E+01 0. -1.
        -11    1    4    4    0    0 -0.16084213132E+03 -0.88987727737E+01 -0.24772866264E+03  0.29549766438E+03  0.00000000000E+00 0. -1.
         11    1    4    4    0    0 -0.79033836368E+01 -0.35312158208E+02 -0.59423137129E+02  0.69573854403E+02  0.00000000000E+00 0.  1.
</event>
<event>
 8    1  0.6493926E-009  0.6262136E+02  0.7561462E-02  0.1387149E+00
         -1   -1    0    0    0  501 -0.00000000000E+00  0.00000000000E+00  0.17087369264E+03  0.17087369264E+03  0.00000000000E+00 0.  1.
          1   -1    0    0  501    0  0.00000000000E+00 -0.00000000000E+00 -0.74045181958E+02  0.74045181958E+02  0.00000000000E+00 0. -1.
         25    2    1    2    0    0  0.24001492357E+02  0.75546062537E+01  0.73445957755E+02  0.14722340604E+03  0.12508908371E+03 0.  0.
         23    2    1    2    0    0 -0.24001492357E+02 -0.75546062537E+01  0.23382552927E+02  0.97695468560E+02  0.91457733871E+02 0.  0.
          5    1    3    3  502    0  0.42968183698E+02 -0.32656249438E+01 -0.22460525605E+02  0.48773729887E+02  0.41800000000E+01 0.  1.
         -5    1    3    3    0  502 -0.18966691342E+02  0.10820231198E+02  0.95906483361E+02  0.98449676151E+02  0.41800000000E+01 0.  1.
        -11    1    4    4    0    0 -0.27673690676E+02 -0.27749288056E+02  0.50350588620E+02  0.63804685702E+02  0.00000000000E+00 0.  1.
         11    1    4    4    0    0  0.36721983196E+01  0.20194681802E+02 -0.26968035692E+02  0.33890782858E+02  0.00000000000E+00 0. -1.
</event>
<event>
 8    1  0.6493926E-009  0.9513265E+02  0.7561462E-02  0.1290878E+00
          1   -1    0    0  501    0  0.00000000000E+00  0.00000000000E+00  0.65932974430E+03  0.65932974430E+03  0.00000000000E+00 0. -1.
         -1   -1    0    0    0  501 -0.00000000000E+00 -0.00000000000E+00 -0.23271579627E+02  0.23271579627E+02  0.00000000000E+00 0.  1.
         25    2    1    2    0    0 -0.43897186889E+02  0.39799402873E+02  0.27495543055E+03  0.30783196295E+03  0.12509625549E+03 0.  0.
         23    2    1    2    0    0  0.43897186889E+02 -0.39799402873E+02  0.36110273412E+03  0.37476936097E+03  0.80906945629E+02 0.  0.
          5    1    3    3  502    0 -0.59872391756E+02  0.15972662437E+00  0.25218111028E+03  0.25922483212E+03  0.41800000000E+01 0.  1.
         -5    1    3    3    0  502  0.15975204867E+02  0.39639676248E+02  0.22774320276E+02  0.48607130831E+02  0.41800000000E+01 0.  1.
        -11    1    4    4    0    0  0.60145549078E+02 -0.37542892581E+02  0.34336566977E+03  0.35060938241E+03  0.00000000000E+00 0.  1.
         11    1    4    4    0    0 -0.16248362188E+02 -0.22565102913E+01  0.17737064348E+02  0.24159978563E+02  0.00000000000E+00 0. -1.
</event>
<event>
 8    1  0.6493926E-009  0.2280192E+03  0.7561462E-02  0.1128042E+00
          2   -1    0    0  501    0  0.00000000000E+00  0.00000000000E+00  0.21788406783E+04  0.21788406783E+04  0.00000000000E+00 0. -1.
         -2   -1    0    0    0  501 -0.00000000000E+00 -0.00000000000E+00 -0.39479974838E+02  0.39479974838E+02  0.00000000000E+00 0.  1.
         25    2    1    2    0    0  0.20136600489E+03 -0.13117853690E+02  0.17830327149E+04  0.17987699630E+04  0.12508945292E+03 0.  0.
         23    2    1    2    0    0 -0.20136600489E+03  0.13117853690E+02  0.35632798861E+03  0.41955069022E+03  0.91284172739E+02 0.  0.
          5    1    3    3  502    0  0.97106877742E+02  0.54109808335E+02  0.96134021043E+03  0.96775518063E+03  0.41800000000E+01 0.  1.
         -5    1    3    3    0  502  0.10425912715E+03 -0.67227662025E+02  0.82169250448E+03  0.83101478233E+03  0.41800000000E+01 0.  1.
        -11    1    4    4    0    0 -0.95369177212E+02  0.50947980210E+02  0.19253451098E+03  0.22081783118E+03  0.00000000000E+00 0. -1.
         11    1    4    4    0    0 -0.10599682767E+03 -0.37830126520E+02  0.16379347763E+03  0.19873285904E+03  0.00000000000E+00 0.  1.
</event>
<event>
 8    1  0.6493926E-009  0.1068291E+03  0.7561462E-02  0.1266557E+00
         -1   -1    0    0    0  501 -0.00000000000E+00  0.00000000000E+00  0.14707873569E+02  0.14707873569E+02  0.00000000000E+00 0.  1.
          1   -1    0    0  501    0  0.00000000000E+00 -0.00000000000E+00 -0.10961748598E+04  0.10961748598E+04  0.00000000000E+00 0. -1.
         25    2    1    2    0    0 -0.13528216775E+02  0.13020189552E+02 -0.88633910080E+03  0.89531945788E+03  0.12508953624E+03 0.  0.
         23    2    1    2    0    0  0.13528216775E+02 -0.13020189552E+02 -0.19512788542E+03  0.21556327548E+03  0.89666582845E+02 0.  0.
          5    1    3    3  502    0 -0.62172701421E+02 -0.20444127081E+02 -0.53869625496E+03  0.54267350649E+03  0.41800000000E+01 0. -1.
         -5    1    3    3    0  502  0.48644484647E+02  0.33464316633E+02 -0.34764284584E+03  0.35264595140E+03  0.41800000000E+01 0. -1.
        -11    1    4    4    0    0  0.33288780303E+02 -0.42135013141E+02 -0.91133696757E+02  0.10577737429E+03  0.00000000000E+00 0.  1.
         11    1    4    4    0    0 -0.19760563529E+02  0.29114823588E+02 -0.10399418867E+03  0.10978590119E+03  0.00000000000E+00 0. -1.
</event>
<event>
 8    1  0.6493926E-009  0.9101248E+02  0.7561462E-02  0.1300418E+00
          1   -1    0    0  501    0  0.00000000000E+00  0.00000000000E+00  0.31811699513E+03  0.31811699513E+03  0.00000000000E+00 0. -1.
         -1   -1    0    0    0  501 -0.00000000000E+00 -0.00000000000E+00 -0.77109375192E+02  0.77109375192E+02  0.00000000000E+00 0.  1.
         25    2    1    2    0    0  0.56925892998E+02  0.75009404304E+01  0.24627409644E+03  0.28212566615E+03  0.12508852674E+03 0.  0.
         23    2    1    2    0    0 -0.56925892998E+02 -0.75009404304E+01 -0.52664764984E+01  0.11310070418E+03  0.97299599739E+02 0.  0.
          5    1    3    3  502    0  0.26104710810E+02 -0.42360339603E+02  0.20324720001E+03  0.20929106768E+03  0.41800000000E+01 0.  1.
         -5    1    3    3    0  502  0.30821182187E+02  0.49861280034E+02  0.43026896426E+02  0.72834598469E+02  0.41800000000E+01 0.  1.
        -11    1    4    4    0    0 -0.57072730218E+02  0.81687098298E+01  0.36672796900E+02  0.68329484026E+02  0.00000000000E+00 0. -1.
         11    1    4    4    0    0  0.14683722028E+00 -0.15669650260E+02 -0.41939273399E+02  0.44771220149E+02  0.00000000000E+00 0.  1.
</event>
<event>
 8    1  0.6493926E-009  0.1297299E+03  0.7561462E-02  0.1227857E+00
         -4   -1    0    0    0  501 -0.00000000000E+00  0.00000000000E+00  0.33552522812E+02  0.33552522812E+02  0.00000000000E+00 0.  1.
          4   -1    0    0  501    0  0.00000000000E+00 -0.00000000000E+00 -0.61226353430E+03  0.61226353430E+03  0.00000000000E+00 0. -1.
         25    2    1    2    0    0 -0.70853976735E+02 -0.26155361825E+02 -0.43916239896E+03  0.46282984039E+03  0.12507381630E+03 0.  0.
         23    2    1    2    0    0  0.70853976735E+02  0.26155361825E+02 -0.13954861253E+03  0.18298621672E+03  0.91135894578E+02 0.  0.
          5    1    3    3  502    0 -0.70862792653E+02  0.36379994242E+02 -0.29579996739E+03  0.30636601063E+03  0.41800000000E+01 0. -1.
         -5    1    3    3    0  502  0.88159184690E-02 -0.62535356068E+02 -0.14336243158E+03  0.15646382976E+03  0.41800000000E+01 0. -1.
        -11    1    4    4    0    0  0.51340934802E+02 -0.28685116663E+02 -0.56372307697E+02  0.81465112652E+02  0.00000000000E+00 0.  1.
         11    1    4    4    0    0  0.19513041933E+02  0.54840478488E+02 -0.83176304833E+02  0.10152110407E+03  0.00000000000E+00 0. -1.
</event>
<event>
 8    1  0.6493926E-009  0.1708097E+03  0.7561462E-02  0.1177006E+00
         -2   -1    0    0    0  501 -0.00000000000E+00  0.00000000000E+00  0.85932964985E+02  0.85932964985E+02  0.00000000000E+00 0.  1.
          2   -1    0    0  501    0  0.00000000000E+00 -0.00000000000E+00 -0.52296825184E+03  0.52296825184E+03  0.00000000000E+00 0. -1.
         25    2    1    2    0    0 -0.12425576365E+03 -0.85785961605E+02 -0.83284227059E+02  0.21303738322E+03  0.12509971288E+03 0.  0.
         23    2    1    2    0    0  0.12425576365E+03  0.85785961605E+02 -0.35375105980E+03  0.39586383361E+03  0.93646337037E+02 0.  0.
          5    1    3    3  502    0 -0.83957548890E+02 -0.11197062180E+03 -0.86689197838E+02  0.16467780538E+03  0.41800000000E+01 0. -1.
         -5    1    3    3    0  502 -0.40298214764E+02  0.26184660199E+02  0.34049707793E+01  0.48359577840E+02  0.41800000000E+01 0. -1.
        -11    1    4    4    0    0  0.10041291354E+03  0.81086041273E+02 -0.34761181574E+03  0.37079869705E+03  0.00000000000E+00 0. -1.
         11    1    4    4    0    0  0.23842850117E+02  0.46999203321E+01 -0.61392440567E+01  0.25065136553E+02  0.00000000000E+00 0.  1.
</event>
<event>
 8    1  0.6493926E-009  0.1148161E+03  0.7561462E-02  0.1251902E+00
          3   -1    0    0  501    0  0.00000000000E+00  0.00000000000E+00  0.11355175728E+03  0.11355175728E+03  0.00000000000E+00 0. -1.
         -3   -1    0    0    0  501 -0.00000000000E+00 -0.00000000000E+00 -0.21097126602E+03  0.21097126602E+03  0.00000000000E+00 0.  1.
         25    2    1    2    0    0 -0.33504417482E+02 -0.83205257517E+02 -0.11693372325E+03  0.19330620478E+03  0.12509249499E+03 0.  0.
         23    2    1    2    0    0  0.33504417482E+02  0.83205257517E+02  0.19514214511E+02  0.13121681852E+03  0.93762401986E+02 0.  0.
          5    1    3    3  502    0  0.37709879477E+02 -0.34376841365E+02 -0.88608722948E+02  0.10233660349E+03  0.41800000000E+01 0.  1.
         -5    1    3    3    0  502 -0.71214296959E+02 -0.48828416152E+02 -0.28325000297E+02  0.90969601281E+02  0.41800000000E+01 0.  1.
        -11    1    4    4    0    0  0.78727367527E+01  0.46832393376E+02 -0.36344679222E+02  0.59801243808E+02  0.00000000000E+00 0.  1.
         11    1    4    4    0    0  0.25631680730E+02  0.36372864141E+02  0.55858893733E+02  0.71415574715E+02  0.00000000000E+00 0. -1.
</event>
<event>
 8    1  0.6493926E-009  0.1275033E+03  0.7561462E-02  0.1231208E+00
         -1   -1    0    0    0  501 -0.00000000000E+00  0.00000000000E+00  0.94540849290E+02  0.94540849290E+02  0.00000000000E+00 0.  1.
          1   -1    0    0  501    0  0.00000000000E+00 -0.00000000000E+00 -0.23718826107E+03  0.23718826107E+03  0.00000000000E+00 0. -1.
         25    2    1    2    0    0  0.78536490241E+02 -0.39338247067E+02 -0.17123881160E+02  0.15380666725E+03  0.12509110921E+03 0.  0.
         23    2    1    2    0    0 -0.78536490241E+02  0.39338247067E+02 -0.12552353062E+03  0.17792244311E+03  0.90469669175E+02 0.  0.
          5    1    3    3  502    0  0.70252908234E+02 -0.82095357512E+02 -0.19974311699E+02  0.10996164953E+03  0.41800000000E+01 0. -1.
         -5    1    3    3    0  502  0.82835820073E+01  0.42757110444E+02  0.28504305393E+01  0.43845017718E+02  0.41800000000E+01 0. -1.
        -11    1    4    4    0    0 -0.48076683242E+01  0.28139880886E+02  0.36375760726E+01  0.28778438642E+02  0.00000000000E+00 0.  1.
         11    1    4    4    0    0 -0.73728821917E+02  0.11198366182E+02 -0.12916110669E+03  0.14914400446E+03  0.00000000000E+00 0. -1.
</event>
<event>
 8    1  0.6493926E-009  0.1120535E+03  0.7561462E-02  0.1256814E+00
          2   -1    0    0  501    0  0.00000000000E+00  0.00000000000E+00  0.71004614503E+02  0.71004614503E+02  0.00000000000E+00 0. -1.
         -2   -1    0    0    0  501 -0.00000000000E+00 -0.00000000000E+00 -0.31412777096E+03  0.31412777096E+03  0.00000000000E+00 0.  1.
         25    2    1    2    0    0  0.52923571182E+02 -0.51651655748E+02 -0.22293540576E+03  0.26611232638E+03  0.12508707840E+03 0.  0.
         23    2    1    2    0    0 -0.52923571182E+02  0.51651655748E+02 -0.20187750704E+02  0.11902005909E+03  0.91046313812E+02 0.  0.
          5    1    3    3  502    0 -0.15048433303E+02  0.11589727337E+02  0.48954922503E+01  0.20055307752E+02  0.41800000000E+01 0. -1.
         -5    1    3    3    0  502  0.67972004486E+02 -0.63241383085E+02 -0.22783089801E+03  0.24605701862E+03  0.41800000000E+01 0. -1.
        -11    1    4    4    0    0 -0.33813731698E+02 -0.18824968903E+02 -0.24613227551E+02  0.45864571033E+02  0.00000000000E+00 0.  1.
         11    1    4    4    0    0 -0.19109839485E+02  0.70476624651E+02  0.44254768472E+01  0.73155488056E+02  0.00000000000E+00 0. -1.
</event>
<event>
 8    1  0.6493926E-009  0.1638086E+03  0.7561462E-02  0.1184463E+00
         -1   -1    0    0    0  501 -0.00000000000E+00  0.00000000000E+00  0.10337116147E+03  0.10337116147E+03  0.00000000000E+00 0.  1.
          1   -1    0    0  501    0  0.00000000000E+00 -0.00000000000E+00 -0.69849514085E+03  0.69849514085E+03  0.00000000000E+00 0. -1.
         25    2    1    2    0    0 -0.14883139785E+03  0.84096491144E+01 -0.13516895750E+02  0.19506918449E+03  0.12509105916E+03 0.  0.
         23    2    1    2    0    0  0.14883139785E+03 -0.84096491144E+01 -0.58160708363E+03  0.60679711784E+03  0.87831858120E+02 0.  0.
          5    1    3    3  502    0 -0.68327250279E+02  0.25891977154E+02 -0.64957872825E+02  0.97857065425E+02  0.41800000000E+01 0.  1.
         -5    1    3    3    0  502 -0.80504147574E+02 -0.17482328039E+02  0.51440977074E+02  0.97212119063E+02  0.41800000000E+01 0.  1.
        -11    1    4    4    0    0  0.99704702941E+02  0.35715833902E+02 -0.32451016831E+03  0.34135538361E+03  0.00000000000E+00 0. -1.
         11    1    4    4    0    0  0.49126694913E+02 -0.44125483017E+02 -0.25709691532E+03  0.26544173423E+03  0.00000000000E+00 0.  1.
</event>
<event>
 8    1  0.6493926E-009  0.6306048E+02  0.7561462E-02  0.1385419E+00
          4   -1    0    0  501    0  0.00000000000E+00  0.00000000000E+00  0.14913377625E+03  0.14913377625E+03  0.00000000000E+00 0. -1.
         -4   -1    0    0    0  501 -0.00000000000E+00 -0.00000000000E+00 -0.92724094487E+02  0.92724094487E+02  0.00000000000E+00 0.  1.
         25    2    1    2    0    0 -0.38274145927E+01 -0.31405803458E+02  0.65562102229E+02  0.14474340287E+03  0.12510511514E+03 0.  0.
         23    2    1    2    0    0  0.38274145927E+01  0.31405803458E+02 -0.91524204653E+01  0.97114467865E+02  0.91359068926E+02 0.  0.
          5    1    3    3  502    0 -0.14270254309E+02 -0.35232633614E+02 -0.29900836874E+02  0.48543908735E+02  0.41800000000E+01 0.  1.
         -5    1    3    3    0  502  0.10442839716E+02  0.38268301561E+01  0.95462939103E+02  0.96199494139E+02  0.41800000000E+01 0.  1.
        -11    1    4    4    0    0 -0.23144256232E+02  0.41238648589E+02  0.24188924043E+02  0.53116727877E+02  0.00000000000E+00 0. -1.
         11    1    4    4    0    0  0.26971670825E+02 -0.98328451304E+01 -0.33341344508E+02  0.43997739988E+02  0.00000000000E+00 0.  1.
</event>
<event>
 8    1  0.6493926E-009  0.1337756E+03  0.7561462E-02  0.1221959E+00
          2   -1    0    0  501    0  0.00000000000E+00  0.00000000000E+00  0.14006433338E+04  0.14006433338E+04  0.00000000000E+00 0.  1.
         -2   -1    0    0    0  501 -0.00000000000E+00 -0.00000000000E+00 -0.16231332955E+02  0.16231332955E+02  0.00000000000E+00 0. -1.
         25    2    1    2    0    0  0.75583724416E+02  0.59430453399E+02  0.91766080424E+03  0.93112501603E+03  0.12509023003E+03 0.  0.
         23    2    1    2    0    0 -0.75583724416E+02 -0.59430453399E+02  0.46675119658E+03  0.48574965071E+03  0.94080632760E+02 0.  0.
          5    1    3    3  502    0  0.91538224753E+02  0.21794183778E+02  0.81683095953E+03  0.82224359036E+03  0.41800000000E+01 0. -1.
         -5    1    3    3    0  502 -0.15954500337E+02  0.37636269620E+02  0.10082984471E+03  0.10888142567E+03  0.41800000000E+01 0. -1.
        -11    1    4    4    0    0  0.13753512288E+02 -0.37980115302E+02  0.18643702174E+03  0.19076270950E+03  0.00000000000E+00 0. -1.
         11    1    4    4    0    0 -0.89337236704E+02 -0.21450338097E+02  0.28031417484E+03  0.29498694121E+03  0.00000000000E+00 0.  1.
</event>
<event>
 8    1  0.6493926E-009  0.9034732E+02  0.7561462E-02  0.1302013E+00
         -1   -1    0    0    0  501 -0.00000000000E+00  0.00000000000E+00  0.34784189849E+02  0.34784189849E+02  0.00000000000E+00 0.  1.
          1   -1    0    0  501    0  0.00000000000E+00 -0.00000000000E+00 -0.59733072409E+03  0.59733072409E+03  0.00000000000E+00 0. -1.
         25    2    1    2    0    0 -0.13328908915E+02 -0.20291558319E+02 -0.50805931972E+03  0.52379527474E+03  0.12509120805E+03 0.  0.
         23    2    1    2    0    0  0.13328908915E+02  0.20291558319E+02 -0.54487214520E+02  0.10831963920E+03  0.90415045972E+02 0.  0.
          5    1    3    3  502    0  0.10689340433E+02 -0.60935160739E+02 -0.41243520498E+03  0.41707028966E+03  0.41800000000E+01 0.  1.
         -5    1    3    3    0  502 -0.24018249348E+02  0.40643602420E+02 -0.95624114740E+02  0.10672498508E+03  0.41800000000E+01 0.  1.
        -11    1    4    4    0    0 -0.62684506288E+01  0.41758528219E+02 -0.64913588461E+02  0.77439280208E+02  0.00000000000E+00 0. -1.
         11    1    4    4    0    0  0.19597359544E+02 -0.21466969900E+02  0.10426373942E+02  0.30880358990E+02  0.00000000000E+00 0.  1.
</event>
<event>
 8    1  0.6493926E-009  0.1151049E+03  0.7561462E-02  0.1251398E+00
          3   -1    0    0  501    0  0.00000000000E+00  0.00000000000E+00  0.36602974267E+03  0.36602974267E+03  0.00000000000E+00 0. -1.
         -3   -1    0    0    0  501 -0.00000000000E+00 -0.00000000000E+00 -0.56513432493E+02  0.56513432493E+02  0.00000000000E+00 0.  1.
         25    2    1    2    0    0  0.73322363066E+02  0.45480658308E+02  0.22245807687E+03  0.26940554792E+03  0.12508834511E+03 0.  0.
         23    2    1    2    0    0 -0.73322363066E+02 -0.45480658308E+02  0.87058233309E+02  0.15313762724E+03  0.91800532045E+02 0.  0.
          5    1    3    3  502    0 -0.26132714405E+02  0.11188999315E+02  0.69603970890E+01  0.29564032125E+02  0.41800000000E+01 0. -1.
         -5    1    3    3    0  502  0.99455077471E+02  0.34291658992E+02  0.21549767978E+03  0.23984151580E+03  0.41800000000E+01 0. -1.
        -11    1    4    4    0    0 -0.20284868668E+02  0.71168086951E+01 -0.15326511731E+02  0.26401265589E+02  0.00000000000E+00 0.  1.
         11    1    4    4    0    0 -0.53037494398E+02 -0.52597467003E+02  0.10238474504E+03  0.12673636165E+03  0.00000000000E+00 0. -1.
</event>
<event>
 8    1  0.6493926E-009  0.1160540E+03  0.7561462E-02  0.1249752E+00
         -2   -1    0    0    0  501 -0.00000000000E+00  0.00000000000E+00  0.43478858337E+02  0.43478858337E+02  0.00000000000E+00 0.  1.
          2   -1    0    0  501    0  0.00000000000E+00 -0.00000000000E+00 -0.45987934843E+03  0.45987934843E+03  0.00000000000E+00 0. -1.
         25    2    1    2    0    0 -0.25822626610E+02  0.39197155217E+02 -0.36052249094E+03  0.38448418630E+03  0.12509355707E+03 0.  0.
         23    2    1    2    0    0  0.25822626610E+02 -0.39197155217E+02 -0.55877999155E+02  0.11887402047E+03  0.93837396223E+02 0.  0.
          5    1    3    3  502    0  0.40538471981E+02 -0.13669954790E+02 -0.73415772929E+02  0.85073988324E+02  0.41800000000E+01 0.  1.
         -5    1    3    3    0  502 -0.66361098591E+02  0.52867110007E+02 -0.28710671801E+03  0.29941019798E+03  0.41800000000E+01 0.  1.
        -11    1    4    4    0    0 -0.91891800763E+01 -0.61813956530E+02 -0.26499702338E+02  0.67879602801E+02  0.00000000000E+00 0.  1.
         11    1    4    4    0    0  0.35011806686E+02  0.22616801314E+02 -0.29378296817E+02  0.50994417665E+02  0.00000000000E+00 0. -1.
</event>
<event>
 8    1  0.6493926E-009  0.1074559E+03  0.7561462E-02  0.1265355E+00
         -2   -1    0    0    0  501 -0.00000000000E+00  0.00000000000E+00  0.20670313057E+02  0.20670313057E+02  0.00000000000E+00 0.  1.
          2   -1    0    0  501    0  0.00000000000E+00 -0.00000000000E+00 -0.62503721043E+03  0.62503721043E+03  0.00000000000E+00 0. -1.
         25    2    1    2    0    0 -0.14715484120E+02 -0.69997186026E+01 -0.25568742726E+03  0.28511344334E+03  0.12509226028E+03 0.  0.
         23    2    1    2    0    0  0.14715484120E+02  0.69997186026E+01 -0.34867947011E+03  0.36059408015E+03  0.90471963752E+02 0.  0.
          5    1    3    3  502    0  0.38143278677E+02  0.39838395599E+02 -0.11750301070E+03  0.12987084891E+03  0.41800000000E+01 0.  1.
         -5    1    3    3    0  502 -0.52858762797E+02 -0.46838114202E+02 -0.13818441656E+03  0.15524259443E+03  0.41800000000E+01 0.  1.
        -11    1    4    4    0    0 -0.73665087015E+01 -0.38009411346E+02 -0.19930983958E+03  0.20303544753E+03  0.00000000000E+00 0. -1.
         11    1    4    4    0    0  0.22081992821E+02  0.45009129948E+02 -0.14936963053E+03  0.15755863262E+03  0.00000000000E+00 0.  1.
</event>
<event>
 8    1  0.6493926E-009  0.1246723E+03  0.7561462E-02  0.1235582E+00
         -1   -1    0    0    0  501 -0.00000000000E+00  0.00000000000E+00  0.18984809814E+03  0.18984809814E+03  0.00000000000E+00 0.  1.
          1   -1    0    0  501    0  0.00000000000E+00 -0.00000000000E+00 -0.12452354718E+03  0.12452354718E+03  0.00000000000E+00 0. -1.
         25    2    1    2    0    0  0.81258476003E+02  0.35399099364E+02 -0.29450907834E+02  0.15614229140E+03  0.12512802657E+03 0.  0.
         23    2    1    2    0    0 -0.81258476003E+02 -0.35399099364E+02  0.94775458796E+02  0.15822935392E+03  0.90543385699E+02 0.  0.
          5    1    3    3  502    0  0.27443181341E+02 -0.33401653371E+02  0.27849758643E+02  0.51593411464E+02  0.41800000000E+01 0. -1.
         -5    1    3    3    0  502  0.53815294663E+02  0.68800752735E+02 -0.57300666477E+02  0.10454887993E+03  0.41800000000E+01 0. -1.
        -11    1    4    4    0    0 -0.89172379943E+02 -0.75244067305E+01  0.93204115993E+02  0.12921043797E+03  0.00000000000E+00 0.  1.
         11    1    4    4    0    0  0.79139039394E+01 -0.27874692634E+02  0.15713428035E+01  0.29018915955E+02  0.00000000000E+00 0. -1.
</event>
<event>
 8    1  0.6493926E-009  0.9826395E+02  0.7561462E-02  0.1283990E+00
         -2   -1    0    0    0  501 -0.00000000000E+00  0.00000000000E+00  0.68932828102E+02  0.68932828102E+02  0.00000000000E+00 0.  1.
          2   -1    0    0  501    0  0.00000000000E+00 -0.00000000000E+00 -0.21345006888E+03  0.21345006888E+03  0.00000000000E+00 0. -1.
         25    2    1    2    0    0  0.35405703626E+02 -0.35741664334E+02 -0.10394770730E+03  0.17024246038E+03  0.12508532705E+03 0.  0.
         23    2    1    2    0    0 -0.35405703626E+02  0.35741664334E+02 -0.40569533479E+02  0.11214043661E+03  0.91643658033E+02 0.  0.
          5    1    3    3  502    0 -0.35224538350E+02 -0.45598331241E+02 -0.71110753065E+02  0.91619798708E+02  0.41800000000E+01 0. -1.
         -5    1    3    3    0  502  0.70630241976E+02  0.98566669068E+01 -0.32836954239E+02  0.78622661668E+02  0.41800000000E+01 0. -1.
        -11    1    4    4    0    0 -0.58118326695E+01  0.37237691784E+02  0.21479141679E+02  0.43379449232E+02  0.00000000000E+00 0.  1.
         11    1    4    4    0    0 -0.29593870956E+02 -0.14960274499E+01 -0.62048675158E+02  0.68760987378E+02  0.00000000000E+00 0. -1.
</event>
<event>
 8    1  0.6493926E-009  0.1508861E+03  0.7561462E-02  0.1199388E+00
         -1   -1    0    0    0  501 -0.00000000000E+00  0.00000000000E+00  0.21393423659E+04  0.21393423659E+04  0.00000000000E+00 0.  1.
          1   -1    0    0  501    0  0.00000000000E+00 -0.00000000000E+00 -0.30105025632E+02  0.30105025632E+02  0.00000000000E+00 0. -1.
         25    2    1    2    0    0 -0.82223489335E+02  0.95646525663E+02  0.19051327599E+04  0.19133968336E+04  0.12509056701E+03 0.  0.
         23    2    1    2    0    0  0.82223489335E+02 -0.95646525663E+02  0.20410458030E+03  0.25605055785E+03  0.89410560941E+02 0.  0.
          5    1    3    3  502    0 -0.73065610443E+02  0.27088346613E+02  0.15253139460E+04  0.15273088974E+04  0.41800000000E+01 0.  1.
         -5    1    3    3    0  502 -0.91578788919E+01  0.68558179050E+02  0.37981881392E+03  0.38608793619E+03  0.41800000000E+01 0.  1.
        -11    1    4    4    0    0  0.79453891944E-01 -0.67661128909E+02  0.83575650028E+02  0.10753103717E+03  0.00000000000E+00 0.  1.
         11    1    4    4    0    0  0.82144035443E+02 -0.27985396754E+02  0.12052893027E+03  0.14851952068E+03  0.00000000000E+00 0. -1.
</event>
<event>
 8    1  0.6493926E-009  0.2352805E+03  0.7561462E-02  0.1122977E+00
          1   -1    0    0  501    0  0.00000000000E+00  0.00000000000E+00  0.42443220699E+03  0.42443220699E+03  0.00000000000E+00 0. -1.
         -1   -1    0    0    0  501 -0.00000000000E+00 -0.00000000000E+00 -0.13644065496E+03  0.13644065496E+03  0.00000000000E+00 0.  1.
         25    2    1    2    0    0  0.61217960954E+02  0.20277324103E+03  0.19261106804E+03  0.31241425607E+03  0.12505605881E+03 0.  0.
         23    2    1    2    0    0 -0.61217960954E+02 -0.20277324103E+03  0.95380483993E+02  0.24845860588E+03  0.88145425771E+02 0.  0.
          5    1    3    3  502    0  0.28227062574E+01  0.18457806042E+03  0.14635684018E+03  0.23561584226E+03  0.41800000000E+01 0.  1.
         -5    1    3    3    0  502  0.58395254697E+02  0.18195180614E+02  0.46254227864E+02  0.76798413812E+02  0.41800000000E+01 0.  1.
        -11    1    4    4    0    0  0.73703527664E+01 -0.10453327881E+03  0.69895693618E+02  0.12596402846E+03  0.00000000000E+00 0.  1.
         11    1    4    4    0    0 -0.68588313720E+02 -0.98239962224E+02  0.25484790376E+02  0.12249457742E+03  0.00000000000E+00 0. -1.
</event>
<event>
 8    1  0.6493926E-009  0.1305191E+03  0.7561462E-02  0.1226688E+00
          1   -1    0    0  501    0  0.00000000000E+00  0.00000000000E+00  0.10828859629E+03  0.10828859629E+03  0.00000000000E+00 0. -1.
         -1   -1    0    0    0  501 -0.00000000000E+00 -0.00000000000E+00 -0.25117399504E+03  0.25117399504E+03  0.00000000000E+00 0.  1.
         25    2    1    2    0    0  0.12211910242E+03  0.12979463756E+02 -0.55230617817E+02  0.18378945331E+03  0.12508637155E+03 0.  0.
         23    2    1    2    0    0 -0.12211910242E+03 -0.12979463756E+02 -0.87654780935E+02  0.17567313802E+03  0.89978603824E+02 0.  0.
          5    1    3    3  502    0  0.10219706890E+03  0.16153668909E+02  0.20281200163E+02  0.10551768284E+03  0.41800000000E+01 0.  1.
         -5    1    3    3    0  502  0.19922033519E+02 -0.31742051521E+01 -0.75511817980E+02  0.78271770470E+02  0.41800000000E+01 0.  1.
        -11    1    4    4    0    0 -0.53851969678E+02 -0.36074368705E+02 -0.80351135877E+02  0.10323613588E+03  0.00000000000E+00 0.  1.
         11    1    4    4    0    0 -0.68267132742E+02  0.23094904949E+02 -0.73036450582E+01  0.72437002137E+02  0.00000000000E+00 0. -1.
</event>
<event>
 8    1  0.6493926E-009  0.9253486E+02  0.7561462E-02  0.1296827E+00
          1   -1    0    0  501    0  0.00000000000E+00  0.00000000000E+00  0.15560884170E+03  0.15560884170E+03  0.00000000000E+00 0. -1.
         -1   -1    0    0    0  501 -0.00000000000E+00 -0.00000000000E+00 -0.15018951800E+03  0.15018951800E+03  0.00000000000E+00 0.  1.
         25    2    1    2    0    0  0.82498343292E+02 -0.33981662824E+01 -0.65616005290E+02  0.16361536317E+03  0.12508797998E+03 0.  0.
         23    2    1    2    0    0 -0.82498343292E+02  0.33981662824E+01  0.71035328984E+02  0.14218299653E+03  0.91391806848E+02 0.  0.
          5    1    3    3  502    0 -0.29293531782E+01 -0.10257460299E+02  0.31798797012E+02  0.33799888953E+02  0.41800000000E+01 0. -1.
         -5    1    3    3    0  502  0.85427696470E+02  0.68592940167E+01 -0.97414802302E+02  0.12981547422E+03  0.41800000000E+01 0. -1.
        -11    1    4    4    0    0 -0.42919012023E+02  0.16699400523E+02 -0.13420729250E+02  0.47969026928E+02  0.00000000000E+00 0.  1.
         11    1    4    4    0    0 -0.39579331269E+02 -0.13301234240E+02  0.84456058234E+02  0.94213969604E+02  0.00000000000E+00 0. -1.
</event>
<event>
 8    1  0.6493926E-009  0.1007861E+03  0.7561462E-02  0.1278651E+00
         -2   -1    0    0    0  501 -0.00000000000E+00  0.00000000000E+00  0.63623173641E+02  0.63623173641E+02  0.00000000000E+00 0.  1.
          2   -1    0    0  501    0  0.00000000000E+00 -0.00000000000E+00 -0.21140910003E+03  0.21140910003E+03  0.00000000000E+00 0. -1.
         25    2    1    2    0    0 -0.81712880847E+01 -0.10101267489E+02 -0.41500205180E+02  0.13243285384E+03  0.12508952072E+03 0.  0.
         23    2    1    2    0    0  0.81712880847E+01  0.10101267489E+02 -0.10628572121E+03  0.14259941983E+03  0.94176082146E+02 0.  0.
          5    1    3    3  502    0  0.26414523140E+02  0.49748188924E+02 -0.17173857427E+02  0.59034084332E+02  0.41800000000E+01 0. -1.
         -5    1    3    3    0  502 -0.34585811225E+02 -0.59849456413E+02 -0.24326347753E+02  0.73398769513E+02  0.41800000000E+01 0. -1.
        -11    1    4    4    0    0 -0.43646489462E+01 -0.31803430821E+02 -0.90621884462E+02  0.96139660473E+02  0.00000000000E+00 0. -1.
         11    1    4    4    0    0  0.12535937031E+02  0.41904698311E+02 -0.15663836750E+02  0.46459759357E+02  0.00000000000E+00 0.  1.
</event>
<event>
 8    1  0.6493926E-009  0.9921492E+02  0.7561462E-02  0.1281956E+00
         -2   -1    0    0    0  501 -0.00000000000E+00  0.00000000000E+00  0.47998645975E+02  0.47998645975E+02  0.00000000000E+00 0.  1.
          2   -1    0    0  501    0  0.00000000000E+00 -0.00000000000E+00 -0.32708564655E+03  0.32708564655E+03  0.00000000000E+00 0. -1.
         25    2    1    2    0    0  0.47074673449E+02 -0.33108943541E+02 -0.19084028346E+03  0.23532872427E+03  0.12508943861E+03 0.  0.
         23    2    1    2    0    0 -0.47074673449E+02  0.33108943541E+02 -0.88246717109E+02  0.13975556825E+03  0.91825425421E+02 0.  0.
          5    1    3    3  502    0 -0.16360948211E+02 -0.61928132464E+02 -0.11872277920E+03  0.13496423570E+03  0.41800000000E+01 0. -1.
         -5    1    3    3    0  502  0.63435621660E+02  0.28819188923E+02 -0.72117504268E+02  0.10036448858E+03  0.41800000000E+01 0. -1.
        -11    1    4    4    0    0 -0.11185556591E+02  0.25369797236E+02  0.14040787750E+02  0.31078722765E+02  0.00000000000E+00 0.  1.
         11    1    4    4    0    0 -0.35889116858E+02  0.77391463045E+01 -0.10228750486E+03  0.10867684549E+03  0.00000000000E+00 0. -1.
</event>
<event>
 8    1  0.6493926E-009  0.1400750E+03  0.7561462E-02  0.1213228E+00
          2   -1    0    0  501    0  0.00000000000E+00  0.00000000000E+00  0.11379270200E+04  0.11379270200E+04  0.00000000000E+00 0. -1.
         -2   -1    0    0    0  501 -0.00000000000E+00 -0.00000000000E+00 -0.20778496601E+02  0.20778496601E+02  0.00000000000E+00 0.  1.
         25    2    1    2    0    0  0.10119981914E+03  0.25045600056E+02  0.48779080277E+03  0.51425280222E+03  0.12508953532E+03 0.  0.
         23    2    1    2    0    0 -0.10119981914E+03 -0.25045600056E+02  0.62935772061E+03  0.64445271436E+03  0.91430165057E+02 0.  0.
          5    1    3    3  502    0 -0.18977981423E+02 -0.38416312280E+01  0.20047021957E+03  0.20144652701E+03  0.41800000000E+01 0. -1.
         -5    1    3    3    0  502  0.12017780057E+03  0.28887231284E+02  0.28732058320E+03  0.31280627521E+03  0.41800000000E+01 0. -1.
        -11    1    4    4    0    0 -0.18981685645E+02  0.31574812597E+02  0.12526450727E+03  0.13056978962E+03  0.00000000000E+00 0.  1.
         11    1    4    4    0    0 -0.82218133497E+02 -0.56620412653E+02  0.50409321334E+03  0.51388292475E+03  0.00000000000E+00 0. -1.
</event>
<event>
 8    1  0.6493926E-009  0.7931604E+02  0.7561462E-02  0.1331004E+00
          1   -1    0    0  501    0  0.00000000000E+00  0.00000000000E+00  0.34950961162E+03  0.34950961162E+03  0.00000000000E+00 0. -1.
         -1   -1    0    0    0  501 -0.00000000000E+00 -0.00000000000E+00 -0.42727145347E+02  0.42727145347E+02  0.00000000000E+00 0.  1.
         25    2    1    2    0    0  0.31282747379E+01  0.68011368204E+02  0.15742788247E+03  0.21228863276E+03  0.12509033981E+03 0.  0.
         23    2    1    2    0    0 -0.31282747379E+01 -0.68011368204E+02  0.14935458380E+03  0.17994812420E+03  0.73750955202E+02 0.  0.
          5    1    3    3  502    0  0.70461657114E+01  0.39992297539E+01  0.14687777885E+03  0.14716044512E+03  0.41800000000E+01 0.  1.
         -5    1    3    3    0  502 -0.39178909735E+01  0.64012138450E+02  0.10550103621E+02  0.65128187639E+02  0.41800000000E+01 0.  1.
        -11    1    4    4    0    0 -0.20675202218E+02 -0.71021752688E+01  0.51968303500E+01  0.22470245348E+02  0.00000000000E+00 0.  1.
         11    1    4    4    0    0  0.17546927480E+02 -0.60909192935E+02  0.14415775345E+03  0.15747787885E+03  0.00000000000E+00 0. -1.
</event>
<event>
 8    1  0.6493926E-009  0.8579791E+02  0.7561462E-02  0.1313359E+00
         -1   -1    0    0    0  501 -0.00000000000E+00  0.00000000000E+00  0.50035512383E+02  0.50035512383E+02  0.00000000000E+00 0.  1.
          1   -1    0    0  501    0  0.00000000000E+00 -0.00000000000E+00 -0.27559672910E+03  0.27559672910E+03  0.00000000000E+00 0. -1.
         25    2    1    2    0    0  0.44694176129E+02 -0.27056286224E+02 -0.13938563461E+03  0.19443884555E+03  0.12509395477E+03 0.  0.
         23    2    1    2    0    0 -0.44694176129E+02  0.27056286224E+02 -0.86175582113E+02  0.13119339594E+03  0.83999191546E+02 0.  0.
          5    1    3    3  502    0  0.56754223763E+02 -0.60791926114E+02 -0.47821391785E+02  0.96026340698E+02  0.41800000000E+01 0. -1.
         -5    1    3    3    0  502 -0.12060047634E+02  0.33735639890E+02 -0.91564242823E+02  0.98412504853E+02  0.41800000000E+01 0. -1.
        -11    1    4    4    0    0 -0.20069294242E+02  0.11588092884E+02 -0.97327371426E+02  0.10004837678E+03  0.00000000000E+00 0. -1.
         11    1    4    4    0    0 -0.24624881887E+02  0.15468193339E+02  0.11151789313E+02  0.31145019153E+02  0.00000000000E+00 0.  1.
</event>
<event>
 8    1  0.6493926E-009  0.1361076E+03  0.7561462E-02  0.1218665E+00
          1   -1    0    0  501    0  0.00000000000E+00  0.00000000000E+00  0.67950489395E+03  0.67950489395E+03  0.00000000000E+00 0. -1.
         -1   -1    0    0    0  501 -0.00000000000E+00 -0.00000000000E+00 -0.41092511063E+02  0.41092511063E+02  0.00000000000E+00 0.  1.
         25    2    1    2    0    0  0.71011856079E+02 -0.71729089962E+02  0.50475148752E+03  0.52972550008E+03  0.12508914914E+03 0.  0.
         23    2    1    2    0    0 -0.71011856079E+02  0.71729089962E+02  0.13366089537E+03  0.19087190494E+03  0.91537440930E+02 0.  0.
          5    1    3    3  502    0  0.86572775339E+02  0.54685587060E+00  0.27471612012E+03  0.28806520709E+03  0.41800000000E+01 0.  1.
         -5    1    3    3    0  502 -0.15560919260E+02 -0.72275945832E+02  0.23003536740E+03  0.24166029299E+03  0.41800000000E+01 0.  1.
        -11    1    4    4    0    0 -0.20161929435E+02  0.53994255947E+02  0.13501453728E+02  0.59196049923E+02  0.00000000000E+00 0.  1.
         11    1    4    4    0    0 -0.50849926644E+02  0.17734834015E+02  0.12015944164E+03  0.13167585501E+03  0.00000000000E+00 0. -1.
</event>
<event>
 8    1  0.6493926E-009  0.1641624E+03  0.7561462E-02  0.1184076E+00
          2   -1    0    0  501    0  0.00000000000E+00  0.00000000000E+00  0.12655547208E+04  0.12655547208E+04  0.00000000000E+00 0. -1.
         -2   -1    0    0    0  501 -0.00000000000E+00 -0.00000000000E+00 -0.23678036230E+02  0.23678036230E+02  0.00000000000E+00 0.  1.
         25    2    1    2    0    0  0.35572258346E+02  0.13022421093E+03  0.65881098937E+03  0.68403417210E+03  0.12508836159E+03 0.  0.
         23    2    1    2    0    0 -0.35572258346E+02 -0.13022421093E+03  0.58306569520E+03  0.60519858494E+03  0.89866521093E+02 0.  0.
          5    1    3    3  502    0  0.18740631080E+02  0.14857643221E+03  0.61915514535E+03  0.63702176876E+03  0.41800000000E+01 0.  1.
         -5    1    3    3    0  502  0.16831627266E+02 -0.18352221282E+02  0.39655844019E+02  0.47012403335E+02  0.41800000000E+01 0.  1.
        -11    1    4    4    0    0 -0.48812410489E+02 -0.43037142287E+02  0.35017741755E+03  0.35617281030E+03  0.00000000000E+00 0. -1.
         11    1    4    4    0    0  0.13240152143E+02 -0.87187068638E+02  0.23288827765E+03  0.24902577464E+03  0.00000000000E+00 0.  1.
</event>
<event>
 8    1  0.6493926E-009  0.1587365E+03  0.7561462E-02  0.1190131E+00
          1   -1    0    0  501    0  0.00000000000E+00  0.00000000000E+00  0.16445253282E+04  0.16445253282E+04  0.00000000000E+00 0. -1.
         -1   -1    0    0    0  501 -0.00000000000E+00 -0.00000000000E+00 -0.18594697444E+02  0.18594697444E+02  0.00000000000E+00 0.  1.
         25    2    1    2    0    0  0.12338041860E+03 -0.30586027087E+02  0.11481471624E+04  0.11619152768E+04  0.12508785310E+03 0.  0.
         23    2    1    2    0    0 -0.12338041860E+03  0.30586027087E+02  0.47778346827E+03  0.50120474884E+03  0.82285630358E+02 0.  0.
          5    1    3    3  502    0  0.19868433594E+01  0.30338033466E+02  0.90223600760E+02  0.95300127782E+02  0.41800000000E+01 0. -1.
         -5    1    3    3    0  502  0.12139357524E+03 -0.60924060554E+02  0.10579235617E+04  0.10666151490E+04  0.41800000000E+01 0. -1.
        -11    1    4    4    0    0 -0.76973123874E+02  0.58553226937E+02  0.32582285918E+03  0.33987332603E+03  0.00000000000E+00 0.  1.
         11    1    4    4    0    0 -0.46407294724E+02 -0.27967199850E+02  0.15196060909E+03  0.16133142281E+03  0.00000000000E+00 0. -1.
</event>
<event>
 8    1  0.6493926E-009  0.1514324E+03  0.7561462E-02  0.1198724E+00
          1   -1    0    0  501    0  0.00000000000E+00  0.00000000000E+00  0.65263479974E+03  0.65263479974E+03  0.00000000000E+00 0. -1.
         -1   -1    0    0    0  501 -0.00000000000E+00 -0.00000000000E+00 -0.44283472357E+02  0.44283472357E+02  0.00000000000E+00 0.  1.
         25    2    1    2    0    0 -0.38175031060E+02 -0.12426400631E+03  0.28725961595E+03  0.33921269694E+03  0.12509312750E+03 0.  0.
         23    2    1    2    0    0  0.38175031060E+02  0.12426400631E+03  0.32109171143E+03  0.35770557516E+03  0.89188088268E+02 0.  0.
          5    1    3    3  502    0  0.12932711359E+02  0.14527904134E+02  0.49846802162E+01  0.20509374892E+02  0.41800000000E+01 0. -1.
         -5    1    3    3    0  502 -0.51107742418E+02 -0.13879191044E+03  0.28227493574E+03  0.31870332205E+03  0.41800000000E+01 0. -1.
        -11    1    4    4    0    0  0.25157888989E+02  0.27103366511E+02  0.19244742865E+03  0.19596817254E+03  0.00000000000E+00 0. -1.
         11    1    4    4    0    0  0.13017142070E+02  0.97160639796E+02  0.12864428278E+03  0.16173740262E+03  0.00000000000E+00 0.  1.
</event>
<event>
 8    1  0.6493926E-009  0.1834905E+03  0.7561462E-02  0.1164467E+00
          1   -1    0    0  501    0  0.00000000000E+00  0.00000000000E+00  0.43267063494E+04  0.43267063494E+04  0.00000000000E+00 0. -1.
         -1   -1    0    0    0  501 -0.00000000000E+00 -0.00000000000E+00 -0.12393164150E+02  0.12393164150E+02  0.00000000000E+00 0.  1.
         25    2    1    2    0    0 -0.15922819999E+03 -0.18061509467E+02  0.34120772005E+04  0.34181278594E+04  0.12508958230E+03 0.  0.
         23    2    1    2    0    0  0.15922819999E+03  0.18061509467E+02  0.90223598477E+03  0.92097165411E+03  0.92082450427E+02 0.  0.
          5    1    3    3  502    0 -0.70572258682E+02  0.42039650033E+02  0.89565044005E+03  0.89941923431E+03  0.41800000000E+01 0.  1.
         -5    1    3    3    0  502 -0.88655941305E+02 -0.60101159500E+02  0.25164267604E+04  0.25187086251E+04  0.41800000000E+01 0.  1.
        -11    1    4    4    0    0  0.14019178438E+03 -0.13334319989E+02  0.80095864973E+03  0.81324430467E+03  0.00000000000E+00 0. -1.
         11    1    4    4    0    0  0.19036415608E+02  0.31395829456E+02  0.10127733504E+03  0.10772734945E+03  0.00000000000E+00 0.  1.
</event>
<event>
 8    1  0.6493926E-009  0.1467941E+03  0.7561462E-02  0.1204469E+00
         -1   -1    0    0    0  501 -0.00000000000E+00  0.00000000000E+00  0.14357935061E+03  0.14357935061E+03  0.00000000000E+00 0.  1.
          1   -1    0    0  501    0  0.00000000000E+00 -0.00000000000E+00 -0.17478174449E+03  0.17478174449E+03  0.00000000000E+00 0. -1.
         25    2    1    2    0    0 -0.13011040801E+02 -0.11444933619E+03 -0.19610278846E+02  0.17117145486E+03  0.12508863333E+03 0.  0.
         23    2    1    2    0    0  0.13011040801E+02  0.11444933619E+03 -0.11592115029E+02  0.14718964024E+03  0.90898159091E+02 0.  0.
          5    1    3    3  502    0  0.13943102615E+02 -0.13315558176E+03 -0.25885253797E+01  0.13397384793E+03  0.41800000000E+01 0. -1.
         -5    1    3    3    0  502 -0.26954143416E+02  0.18706245575E+02 -0.17021753466E+02  0.37197606937E+02  0.41800000000E+01 0. -1.
        -11    1    4    4    0    0  0.27698821134E+02  0.29935539854E+02 -0.39705117843E+02  0.56919747201E+02  0.00000000000E+00 0. -1.
         11    1    4    4    0    0 -0.14687780333E+02  0.84513796331E+02  0.28113002814E+02  0.90269893036E+02  0.00000000000E+00 0.  1.
</event>
<event>
 8    1  0.6493926E-009  0.7241336E+02  0.7561462E-02  0.1352073E+00
         -2   -1    0    0    0  501 -0.00000000000E+00  0.00000000000E+00  0.17791335897E+02  0.17791335897E+02  0.00000000000E+00 0.  1.
          2   -1    0    0  501    0  0.00000000000E+00 -0.00000000000E+00 -0.11051419852E+04  0.11051419852E+04  0.00000000000E+00 0. -1.
         25    2    1    2    0    0 -0.43930513599E+02 -0.59544575865E+01 -0.91645225930E+03  0.92601105816E+03  0.12508553339E+03 0.  0.
         23    2    1    2    0    0  0.43930513599E+02  0.59544575865E+01 -0.17089839004E+03  0.19692226298E+03  0.87216812298E+02 0.  0.
          5    1    3    3  502    0 -0.49897889496E+02 -0.16952276378E+02 -0.90961953662E+03  0.91115440670E+03  0.41800000000E+01 0. -1.
         -5    1    3    3    0  502  0.59673758975E+01  0.10997818791E+02 -0.68327226799E+01  0.14856651456E+02  0.41800000000E+01 0. -1.
        -11    1    4    4    0    0  0.58769368692E+02  0.15929662916E+02 -0.63238859358E+02  0.87788075443E+02  0.00000000000E+00 0.  1.
         11    1    4    4    0    0 -0.14838855093E+02 -0.99752053299E+01 -0.10765953069E+03  0.10913418754E+03  0.00000000000E+00 0. -1.
</event>
<event>
 8    1  0.6493926E-009  0.1580507E+03  0.7561462E-02  0.1190915E+00
         -2   -1    0    0    0  501 -0.00000000000E+00  0.00000000000E+00  0.94877414032E+03  0.94877414032E+03  0.00000000000E+00 0.  1.
          2   -1    0    0  501    0  0.00000000000E+00 -0.00000000000E+00 -0.73721433145E+02  0.73721433145E+02  0.00000000000E+00 0. -1.
         25    2    1    2    0    0  0.12005759374E+03 -0.31179859206E+02  0.84788430808E+03  0.86599167923E+03  0.12509108350E+03 0.  0.
         23    2    1    2    0    0 -0.12005759374E+03  0.31179859206E+02  0.27168399092E+02  0.15650389423E+03  0.91484083672E+02 0.  0.
          5    1    3    3  502    0 -0.51438257973E+01  0.27468804605E+02  0.28349416431E+03  0.28489894308E+03  0.41800000000E+01 0. -1.
         -5    1    3    3    0  502  0.12520141954E+03 -0.58648663811E+02  0.56439014377E+03  0.58109273615E+03  0.41800000000E+01 0. -1.
        -11    1    4    4    0    0 -0.69509972315E+01  0.35657541890E+02  0.23465415096E+02  0.43248148652E+02  0.00000000000E+00 0.  1.
         11    1    4    4    0    0 -0.11310659651E+03 -0.44776826844E+01  0.37029839962E+01  0.11325574558E+03  0.00000000000E+00 0. -1.
</event>
<event>
 8    1  0.6493926E-009  0.8502351E+02  0.7561462E-02  0.1315371E+00
          3   -1    0    0  501    0  0.00000000000E+00  0.00000000000E+00  0.16222507411E+03  0.16222507411E+03  0.00000000000E+00 0. -1.
         -3   -1    0    0    0  501 -0.00000000000E+00 -0.00000000000E+00 -0.97831068420E+02  0.97831068420E+02  0.00000000000E+00 0.  1.
         25    2    1    2    0    0  0.47332902048E+02 -0.90953770912E+01 -0.11984943053E+02  0.13458886780E+03  0.12508954782E+03 0.  0.
         23    2    1    2    0    0 -0.47332902048E+02  0.90953770912E+01  0.76378948742E+02  0.12546727473E+03  0.87092845381E+02 0.  0.
          5    1    3    3  502    0  0.58130210897E+02 -0.86635079287E+01 -0.60653246108E+02  0.84560430770E+02  0.41800000000E+01 0. -1.
         -5    1    3    3    0  502 -0.10797308849E+02 -0.43186916258E+00  0.48668303055E+02  0.50028437029E+02  0.41800000000E+01 0. -1.
        -11    1    4    4    0    0 -0.45980951479E+02  0.44571615170E+02  0.48982254786E+02  0.80623433701E+02  0.00000000000E+00 0.  1.
         11    1    4    4    0    0 -0.13519505690E+01 -0.35476238078E+02  0.27396693955E+02  0.44843841029E+02  0.00000000000E+00 0. -1.
</event>
<event>
 8    1  0.6493926E-009  0.1356524E+03  0.7561462E-02  0.1219302E+00
         -4   -1    0    0    0  501 -0.00000000000E+00  0.00000000000E+00  0.59994915295E+03  0.59994915295E+03  0.00000000000E+00 0.  1.
          4   -1    0    0  501    0  0.00000000000E+00 -0.00000000000E+00 -0.35341197980E+02  0.35341197980E+02  0.00000000000E+00 0. -1.
         25    2    1    2    0    0 -0.95513183745E+02  0.18922591883E+02  0.29030489856E+03  0.33076268923E+03  0.12508473011E+03 0.  0.
         23    2    1    2    0    0  0.95513183745E+02 -0.18922591883E+02  0.27430305641E+03  0.30452766169E+03  0.89521490326E+02 0.  0.
          5    1    3    3  502    0 -0.11465035162E+03  0.27115950711E+02  0.16000249078E+03  0.19874165986E+03  0.41800000000E+01 0.  1.
         -5    1    3    3    0  502  0.19137167871E+02 -0.81933588280E+01  0.13030240778E+03  0.13202102937E+03  0.41800000000E+01 0.  1.
        -11    1    4    4    0    0  0.65501207813E+02 -0.54805544713E+02  0.18236210168E+03  0.20137028601E+03  0.00000000000E+00 0.  1.
         11    1    4    4    0    0  0.30011975932E+02  0.35882952830E+02  0.91940954724E+02  0.10315737569E+03  0.00000000000E+00 0. -1.
</event>
<event>
 8    1  0.6493926E-009  0.1293887E+03  0.7561462E-02  0.1228366E+00
          1   -1    0    0  501    0  0.00000000000E+00  0.00000000000E+00  0.10858654142E+03  0.10858654142E+03  0.00000000000E+00 0. -1.
         -1   -1    0    0    0  501 -0.00000000000E+00 -0.00000000000E+00 -0.19650355821E+03  0.19650355821E+03  0.00000000000E+00 0.  1.
         25    2    1    2    0    0 -0.71807557939E+02  0.47739699593E+02 -0.89691852974E+02  0.17642759258E+03  0.12508662054E+03 0.  0.
         23    2    1    2    0    0  0.71807557939E+02 -0.47739699593E+02  0.17748361834E+01  0.12866250705E+03  0.95475056334E+02 0.  0.
          5    1    3    3  502    0  0.22175320997E+02  0.36097779689E+02  0.44830263927E+01  0.42806126728E+02  0.41800000000E+01 0.  1.
         -5    1    3    3    0  502 -0.93982878936E+02  0.11641919903E+02 -0.94174879367E+02  0.13362146585E+03  0.41800000000E+01 0.  1.
        -11    1    4    4    0    0 -0.19912667452E+02 -0.87044033191E+01  0.17302980935E+02  0.27779022867E+02  0.00000000000E+00 0. -1.
         11    1    4    4    0    0  0.91720225391E+02 -0.39035296274E+02 -0.15528144752E+02  0.10088348418E+03  0.00000000000E+00 0.  1.
</event>
<event>
 8    1  0.6493926E-009  0.1294786E+03  0.7561462E-02  0.1228231E+00
          2   -1    0    0  501    0  0.00000000000E+00  0.00000000000E+00  0.18860373535E+03  0.18860373535E+03  0.00000000000E+00 0. -1.
         -2   -1    0    0    0  501 -0.00000000000E+00 -0.00000000000E+00 -0.10777316861E+03  0.10777316861E+03  0.00000000000E+00 0.  1.
         25    2    1    2    0    0 -0.20200378719E+02  0.85048239927E+02  0.38086374574E+02  0.15728831296E+03  0.12509109901E+03 0.  0.
         23    2    1    2    0    0  0.20200378719E+02 -0.85048239927E+02  0.42744192160E+02  0.13908859100E+03  0.99384665660E+02 0.  0.
          5    1    3    3  502    0  0.96886971725E+01  0.10273486664E+03  0.56539115299E+02  0.11773898095E+03  0.41800000000E+01 0. -1.
         -5    1    3    3    0  502 -0.29889075891E+02 -0.17686626714E+02 -0.18452740725E+02  0.39549332009E+02  0.41800000000E+01 0. -1.
        -11    1    4    4    0    0 -0.44758664865E+01  0.16035888844E+02 -0.12927987905E+02  0.21078804119E+02  0.00000000000E+00 0.  1.
         11    1    4    4    0    0  0.24676245205E+02 -0.10108412877E+03  0.55672180064E+02  0.11800978688E+03  0.00000000000E+00 0. -1.
</event>
<event>
 8    1  0.6493926E-009  0.1195424E+03  0.7561462E-02  0.1243854E+00
          1   -1    0    0  501    0  0.00000000000E+00  0.00000000000E+00  0.46445455961E+03  0.46445455961E+03  0.00000000000E+00 0. -1.
         -1   -1    0    0    0  501 -0.00000000000E+00 -0.00000000000E+00 -0.43703744336E+02  0.43703744336E+02  0.00000000000E+00 0.  1.
         25    2    1    2    0    0 -0.16945964109E+02  0.89419546501E+02  0.25629121996E+03  0.29936744957E+03  0.12511058882E+03 0.  0.
         23    2    1    2    0    0  0.16945964109E+02 -0.89419546501E+02  0.16445959531E+03  0.20879085438E+03  0.90904572964E+02 0.  0.
          5    1    3    3  502    0  0.45604435139E+02  0.53532054250E+02  0.18464213991E+03  0.19762499226E+03  0.41800000000E+01 0. -1.
         -5    1    3    3    0  502 -0.62550399247E+02  0.35887492251E+02  0.71649080053E+02  0.10174245731E+03  0.41800000000E+01 0. -1.
        -11    1    4    4    0    0 -0.32139539001E+01 -0.63421387747E+02  0.29757095175E+02  0.70129071266E+02  0.00000000000E+00 0.  1.
         11    1    4    4    0    0  0.20159918009E+02 -0.25998158754E+02  0.13470250013E+03  0.13866178311E+03  0.00000000000E+00 0. -1.
</event>
<event>
 8    1  0.6493926E-009  0.1847841E+03  0.7561462E-02  0.1163252E+00
          2   -1    0    0  501    0  0.00000000000E+00  0.00000000000E+00  0.44727991735E+03  0.44727991735E+03  0.00000000000E+00 0. -1.
         -2   -1    0    0    0  501 -0.00000000000E+00 -0.00000000000E+00 -0.11001577391E+03  0.11001577391E+03  0.00000000000E+00 0.  1.
         25    2    1    2    0    0 -0.11679141437E+03 -0.12288446631E+03  0.60040920418E+02  0.21907332166E+03  0.12508949440E+03 0.  0.
         23    2    1    2    0    0  0.11679141437E+03  0.12288446631E+03  0.27722322302E+03  0.33822236959E+03  0.93812735704E+02 0.  0.
          5    1    3    3  502    0  0.22975070935E+01 -0.64852009038E+02 -0.15038752678E+02  0.66743524759E+02  0.41800000000E+01 0. -1.
         -5    1    3    3    0  502 -0.11908892146E+03 -0.58032457273E+02  0.75079673096E+02  0.15232979690E+03  0.41800000000E+01 0. -1.
        -11    1    4    4    0    0  0.22192800681E+02  0.42137850983E+02  0.16136350007E+03  0.16824475636E+03  0.00000000000E+00 0. -1.
         11    1    4    4    0    0  0.94598613685E+02  0.80746615328E+02  0.11585972295E+03  0.16997761323E+03  0.00000000000E+00 0.  1.
</event>
<event>
 8    1  0.6493926E-009  0.1022019E+03  0.7561462E-02  0.1275733E+00
          2   -1    0    0  501    0  0.00000000000E+00  0.00000000000E+00  0.31815166811E+03  0.31815166811E+03  0.00000000000E+00 0.  1.
         -2   -1    0    0    0  501 -0.00000000000E+00 -0.00000000000E+00 -0.41804434828E+02  0.41804434828E+02  0.00000000000E+00 0. -1.
         25    2    1    2    0    0  0.35930889578E+02 -0.20382038668E+01  0.13303278979E+03  0.18612035648E+03  0.12509148986E+03 0.  0.
         23    2    1    2    0    0 -0.35930889578E+02  0.20382038668E+01  0.14331444349E+03  0.17383574646E+03  0.91567755969E+02 0.  0.
          5    1    3    3  502    0  0.18641851812E+02  0.58214694703E+02  0.37668651615E+02  0.71922660079E+02  0.41800000000E+01 0. -1.
         -5    1    3    3    0  502  0.17289037766E+02 -0.60252898570E+02  0.95364138177E+02  0.11419769640E+03  0.41800000000E+01 0. -1.
        -11    1    4    4    0    0 -0.16541508190E+02 -0.34883987051E+02  0.11999985127E+03  0.12605744068E+03  0.00000000000E+00 0.  1.
         11    1    4    4    0    0 -0.19389381388E+02  0.36922190918E+02  0.23314592220E+02  0.47778305780E+02  0.00000000000E+00 0. -1.
</event>
<event>
 8    1  0.6493926E-009  0.1782181E+03  0.7561462E-02  0.1169539E+00
          1   -1    0    0  501    0  0.00000000000E+00  0.00000000000E+00  0.39452377512E+03  0.39452377512E+03  0.00000000000E+00 0. -1.
         -1   -1    0    0    0  501 -0.00000000000E+00 -0.00000000000E+00 -0.11394845472E+03  0.11394845472E+03  0.00000000000E+00 0.  1.
         25    2    1    2    0    0  0.83481704713E+02  0.11761947158E+03  0.14079022855E+02  0.19144059773E+03  0.12509096073E+03 0.  0.
         23    2    1    2    0    0 -0.83481704713E+02 -0.11761947158E+03  0.26649629754E+03  0.31703163211E+03  0.93194656713E+02 0.  0.
          5    1    3    3  502    0  0.11031731912E+03  0.72436876276E+02 -0.12078009628E+02  0.13259095994E+03  0.41800000000E+01 0. -1.
         -5    1    3    3    0  502 -0.26835614403E+02  0.45182595306E+02  0.26157032483E+02  0.58849637784E+02  0.41800000000E+01 0. -1.
        -11    1    4    4    0    0  0.35923782367E+01 -0.74368673208E+02  0.11205006780E+03  0.13453186400E+03  0.00000000000E+00 0. -1.
         11    1    4    4    0    0 -0.87074082950E+02 -0.43250798373E+02  0.15444622974E+03  0.18249976812E+03  0.00000000000E+00 0.  1.
</event>
<event>
 8    1  0.6493926E-009  0.1114590E+03  0.7561462E-02  0.1257892E+00
          2   -1    0    0  501    0  0.00000000000E+00  0.00000000000E+00  0.18633186963E+03  0.18633186963E+03  0.00000000000E+00 0. -1.
         -2   -1    0    0    0  501 -0.00000000000E+00 -0.00000000000E+00 -0.91679377546E+02  0.91679377546E+02  0.00000000000E+00 0.  1.
         25    2    1    2    0    0 -0.76720673951E+02  0.11774332880E+02  0.71751385431E+02  0.16376981276E+03  0.12509034149E+03 0.  0.
         23    2    1    2    0    0  0.76720673951E+02 -0.11774332880E+02  0.22901106651E+02  0.11424143441E+03  0.80634657094E+02 0.  0.
          5    1    3    3  502    0 -0.48575146649E+02  0.65635656953E+02  0.20829250601E+02  0.84373659493E+02  0.41800000000E+01 0. -1.
         -5    1    3    3    0  502 -0.28145527303E+02 -0.53861324073E+02  0.50922134830E+02  0.79396153268E+02  0.41800000000E+01 0. -1.
        -11    1    4    4    0    0  0.65861990392E+02 -0.17244007191E+02  0.50046580066E+02  0.84497442202E+02  0.00000000000E+00 0. -1.
         11    1    4    4    0    0  0.10858683559E+02  0.54696743116E+01 -0.27145473415E+02  0.29743992211E+02  0.00000000000E+00 0.  1.
</event>
<event>
 8    1  0.6493926E-009  0.1124839E+03  0.7561462E-02  0.1256038E+00
          1   -1    0    0  501    0  0.00000000000E+00  0.00000000000E+00  0.60064713814E+03  0.60064713814E+03  0.00000000000E+00 0. -1.
         -1   -1    0    0    0  501 -0.00000000000E+00 -0.00000000000E+00 -0.34725039274E+02  0.34725039274E+02  0.00000000000E+00 0.  1.
         25    2    1    2    0    0  0.32933683065E+02  0.88472880876E+02  0.33780834091E+03  0.37238919902E+03  0.12508861749E+03 0.  0.
         23    2    1    2    0    0 -0.32933683065E+02 -0.88472880876E+02  0.22811375796E+03  0.26298297840E+03  0.90620539765E+02 0.  0.
          5    1    3    3  502    0 -0.93431312932E+01  0.37589824535E+02  0.28496875923E+03  0.28761946239E+03  0.41800000000E+01 0.  1.
         -5    1    3    3    0  502  0.42276814358E+02  0.50883056341E+02  0.52839581677E+02  0.84769736621E+02  0.41800000000E+01 0.  1.
        -11    1    4    4    0    0  0.34060909286E+01  0.12213444431E+02  0.20331041042E+01  0.12841463802E+02  0.00000000000E+00 0.  1.
         11    1    4    4    0    0 -0.36339773993E+02 -0.10068632531E+03  0.22608065386E+03  0.25014151460E+03  0.00000000000E+00 0. -1.
</event>
<event>
 8    1  0.6493926E-009  0.1440627E+03  0.7561462E-02  0.1207964E+00
         -3   -1    0    0    0  501 -0.00000000000E+00  0.00000000000E+00  0.13209714115E+03  0.13209714115E+03  0.00000000000E+00 0.  1.
          3   -1    0    0  501    0  0.00000000000E+00 -0.00000000000E+00 -0.33619251170E+03  0.33619251170E+03  0.00000000000E+00 0. -1.
         25    2    1    2    0    0 -0.10743752090E+02 -0.99570743332E+02 -0.27302761475E+03  0.31658061576E+03  0.12509774866E+03 0.  0.
         23    2    1    2    0    0  0.10743752090E+02  0.99570743332E+02  0.68932244204E+02  0.15170903709E+03  0.90742583763E+02 0.  0.
          5    1    3    3  502    0 -0.28917473620E+02  0.18880166989E+02 -0.31519713348E+02  0.46943004971E+02  0.41800000000E+01 0.  1.
         -5    1    3    3    0  502  0.18173721530E+02 -0.11845091032E+03 -0.24150790141E+03  0.26963761079E+03  0.41800000000E+01 0.  1.
        -11    1    4    4    0    0 -0.28939705377E+02  0.87176317247E+02  0.35941955042E+02  0.98635901011E+02  0.00000000000E+00 0. -1.
         11    1    4    4    0    0  0.39683457467E+02  0.12394426084E+02  0.32990289163E+02  0.53073136081E+02  0.00000000000E+00 0.  1.
</event>
<event>
 8    1  0.6493926E-009  0.1274581E+03  0.7561462E-02  0.1231277E+00
         -2   -1    0    0    0  501 -0.00000000000E+00  0.00000000000E+00  0.20493575804E+03  0.20493575804E+03  0.00000000000E+00 0. -1.
          2   -1    0    0  501    0  0.00000000000E+00 -0.00000000000E+00 -0.82935656629E+02  0.82935656629E+02  0.00000000000E+00 0.  1.
         25    2    1    2    0    0 -0.38909166788E+02  0.57781956868E+02  0.45868660661E+02  0.15034804047E+03  0.12509165217E+03 0.  0.
         23    2    1    2    0    0  0.38909166788E+02 -0.57781956868E+02  0.76131440752E+02  0.13752337420E+03  0.90906569519E+02 0.  0.
          5    1    3    3  502    0 -0.16596292930E+02 -0.38433324211E+02  0.26171622019E+02  0.49547790546E+02  0.41800000000E+01 0. -1.
         -5    1    3    3    0  502 -0.22312873858E+02  0.96215281079E+02  0.19697038642E+02  0.10080024992E+03  0.41800000000E+01 0. -1.
        -11    1    4    4    0    0  0.13932220846E+02  0.24397926306E+02  0.13184830149E+02  0.31035549484E+02  0.00000000000E+00 0.  1.
         11    1    4    4    0    0  0.24976945942E+02 -0.82179883174E+02  0.62946610603E+02  0.10648782472E+03  0.00000000000E+00 0. -1.
</event>
<event>
 8    1  0.6493926E-009  0.1274219E+03  0.7561462E-02  0.1231332E+00
          2   -1    0    0  501    0  0.00000000000E+00  0.00000000000E+00  0.12076558640E+04  0.12076558640E+04  0.00000000000E+00 0. -1.
         -2   -1    0    0    0  501 -0.00000000000E+00 -0.00000000000E+00 -0.16600840241E+02  0.16600840241E+02  0.00000000000E+00 0.  1.
         25    2    1    2    0    0 -0.12633841756E+02  0.90468658716E+02  0.66064794120E+03  0.67856289262E+03  0.12509078648E+03 0.  0.
         23    2    1    2    0    0  0.12633841756E+02 -0.90468658716E+02  0.53040708254E+03  0.54569381160E+03  0.90032608784E+02 0.  0.
          5    1    3    3  502    0 -0.52032741743E+01 -0.18360438251E+02  0.17535579635E+02  0.26251642006E+02  0.41800000000E+01 0.  1.
         -5    1    3    3    0  502 -0.74305675813E+01  0.10882909697E+03  0.64311236157E+03  0.65231125062E+03  0.41800000000E+01 0.  1.
        -11    1    4    4    0    0  0.45374813687E+01 -0.10733795670E+03  0.48124884532E+03  0.49309479496E+03  0.00000000000E+00 0.  1.
         11    1    4    4    0    0  0.80963603869E+01  0.16869297985E+02  0.49158237219E+02  0.52599016650E+02  0.00000000000E+00 0. -1.
</event>
<event>
 8    1  0.6493926E-009  0.1330926E+03  0.7561462E-02  0.1222938E+00
         -2   -1    0    0    0  501 -0.00000000000E+00  0.00000000000E+00  0.20800803767E+02  0.20800803767E+02  0.00000000000E+00 0.  1.
          2   -1    0    0  501    0  0.00000000000E+00 -0.00000000000E+00 -0.12167053537E+04  0.12167053537E+04  0.00000000000E+00 0. -1.
         25    2    1    2    0    0 -0.10762691468E+03  0.43104869442E+02 -0.66502723151E+03  0.68654927222E+03  0.12508837676E+03 0.  0.
         23    2    1    2    0    0  0.10762691468E+03 -0.43104869442E+02 -0.53087731842E+03  0.55095688524E+03  0.91000987102E+02 0.  0.
          5    1    3    3  502    0 -0.73298511161E+02  0.99438020920E+01 -0.60605683019E+03  0.61056850947E+03  0.41800000000E+01 0. -1.
         -5    1    3    3    0  502 -0.34328403515E+02  0.33161067350E+02 -0.58970401318E+02  0.75980762745E+02  0.41800000000E+01 0. -1.
        -11    1    4    4    0    0  0.42188947166E+02  0.25564011325E+02 -0.13091781092E+03  0.13990317779E+03  0.00000000000E+00 0.  1.
         11    1    4    4    0    0  0.65437967511E+02 -0.68668880767E+02 -0.39995950750E+03  0.41105370746E+03  0.00000000000E+00 0. -1.
</event>
<event>
 8    1  0.6493926E-009  0.1078843E+03  0.7561462E-02  0.1264539E+00
          2   -1    0    0  501    0  0.00000000000E+00  0.00000000000E+00  0.59973305786E+03  0.59973305786E+03  0.00000000000E+00 0. -1.
         -2   -1    0    0    0  501 -0.00000000000E+00 -0.00000000000E+00 -0.23860575207E+02  0.23860575207E+02  0.00000000000E+00 0.  1.
         25    2    1    2    0    0 -0.32795070090E+02  0.38252025432E+02  0.32019665669E+03  0.34743632452E+03  0.12508943428E+03 0.  0.
         23    2    1    2    0    0  0.32795070090E+02 -0.38252025432E+02  0.25567582596E+03  0.27615730855E+03  0.91400202466E+02 0.  0.
          5    1    3    3  502    0  0.41596944565E+02  0.65696236992E+01  0.18560441247E+03  0.19036789667E+03  0.41800000000E+01 0.  1.
         -5    1    3    3    0  502 -0.74392014655E+02  0.31682401733E+02  0.13459224422E+03  0.15706842786E+03  0.41800000000E+01 0.  1.
        -11    1    4    4    0    0  0.58762537715E+01 -0.58503284393E+02  0.92982463869E+02  0.11001319571E+03  0.00000000000E+00 0.  1.
         11    1    4    4    0    0  0.26918816319E+02  0.20251258961E+02  0.16269336209E+03  0.16614411284E+03  0.00000000000E+00 0. -1.
</event>
<event>
 8    1  0.6493926E-009  0.1200761E+03  0.7561462E-02  0.1242972E+00
          1   -1    0    0  501    0  0.00000000000E+00  0.00000000000E+00  0.41762394649E+02  0.41762394649E+02  0.00000000000E+00 0. -1.
         -1   -1    0    0    0  501 -0.00000000000E+00 -0.00000000000E+00 -0.42141905065E+03  0.42141905065E+03  0.00000000000E+00 0.  1.
         25    2    1    2    0    0 -0.59396190019E+02  0.32804842915E+02 -0.26902837130E+03  0.30435201487E+03  0.12509923775E+03 0.  0.
         23    2    1    2    0    0  0.59396190019E+02 -0.32804842915E+02 -0.11062828470E+03  0.15882943043E+03  0.91564761155E+02 0.  0.
          5    1    3    3  502    0  0.19343523614E+02  0.43606974902E+02 -0.17363931212E+03  0.18012169019E+03  0.41800000000E+01 0.  1.
         -5    1    3    3    0  502 -0.78739713633E+02 -0.10802131987E+02 -0.95389059180E+02  0.12423032468E+03  0.41800000000E+01 0.  1.
        -11    1    4    4    0    0 -0.15283409990E+01  0.27154298158E+02 -0.17114658432E+02  0.32134144892E+02  0.00000000000E+00 0. -1.
         11    1    4    4    0    0  0.60924531018E+02 -0.59959141073E+02 -0.93513626272E+02  0.12669528553E+03  0.00000000000E+00 0.  1.
</event>
<event>
 8    1  0.6493926E-009  0.1873153E+03  0.7561462E-02  0.1160905E+00
         -1   -1    0    0    0  501 -0.00000000000E+00  0.00000000000E+00  0.11551374296E+03  0.11551374296E+03  0.00000000000E+00 0.  1.
          1   -1    0    0  501    0  0.00000000000E+00 -0.00000000000E+00 -0.40035154857E+03  0.40035154857E+03  0.00000000000E+00 0. -1.
         25    2    1    2    0    0 -0.80635594517E+02  0.15566479187E+03 -0.21549897498E+03  0.30466594526E+03  0.12509158028E+03 0.  0.
         23    2    1    2    0    0  0.80635594517E+02 -0.15566479187E+03 -0.69338830637E+02  0.21119934627E+03  0.95203276729E+02 0.  0.
          5    1    3    3  502    0 -0.95323021114E+02  0.13988060460E+03 -0.22427469572E+03  0.28101543274E+03  0.41800000000E+01 0.  1.
         -5    1    3    3    0  502  0.14687426597E+02  0.15784187269E+02  0.87757207478E+01  0.23650512520E+02  0.41800000000E+01 0.  1.
        -11    1    4    4    0    0  0.36880066903E+01 -0.62071857056E+02 -0.65007904324E+02  0.89958570777E+02  0.00000000000E+00 0. -1.
         11    1    4    4    0    0  0.76947587827E+02 -0.93592934812E+02 -0.43309263132E+01  0.12124077549E+03  0.00000000000E+00 0.  1.
</event>
<event>
 8    1  0.6493926E-009  0.1841344E+03  0.7561462E-02  0.1163861E+00
          2   -1    0    0  501    0  0.00000000000E+00  0.00000000000E+00  0.21569476901E+03  0.21569476901E+03  0.00000000000E+00 0. -1.
         -2   -1    0    0    0  501 -0.00000000000E+00 -0.00000000000E+00 -0.21866627289E+03  0.21866627289E+03  0.00000000000E+00 0.  1.
         25    2    1    2    0    0  0.14866711153E+03 -0.40074740857E+02 -0.10876589919E+03  0.22624142390E+03  0.12508903292E+03 0.  0.
         23    2    1    2    0    0 -0.14866711153E+03  0.40074740857E+02  0.10579439531E+03  0.20811961799E+03  0.91724731722E+02 0.  0.
          5    1    3    3  502    0  0.34932349052E+02 -0.63942406106E+02 -0.76129351925E+02  0.10546113471E+03  0.41800000000E+01 0. -1.
         -5    1    3    3    0  502  0.11373476248E+03  0.23867665250E+02 -0.32636547268E+02  0.12078028919E+03  0.41800000000E+01 0. -1.
        -11    1    4    4    0    0 -0.96813324573E+02  0.69687281133E+02  0.75369979846E+02  0.14110198733E+03  0.00000000000E+00 0.  1.
         11    1    4    4    0    0 -0.51853786955E+02 -0.29612540277E+02  0.30424415468E+02  0.67017630663E+02  0.00000000000E+00 0. -1.
</event>
<event>
 8    1  0.6493926E-009  0.1890581E+03  0.7561462E-02  0.1159314E+00
         -2   -1    0    0    0  501 -0.00000000000E+00  0.00000000000E+00  0.16017488624E+03  0.16017488624E+03  0.00000000000E+00 0.  1.
          2   -1    0    0  501    0  0.00000000000E+00 -0.00000000000E+00 -0.40580553078E+03  0.40580553078E+03  0.00000000000E+00 0. -1.
         25    2    1    2    0    0 -0.18089631458E+03  0.11851990229E+02  0.31573233439E+02  0.22250426018E+03  0.12508928983E+03 0.  0.
         23    2    1    2    0    0  0.18089631458E+03 -0.11851990229E+02 -0.27720387798E+03  0.34347615683E+03  0.90939177721E+02 0.  0.
          5    1    3    3  502    0 -0.11823960094E+03 -0.12550558946E+02 -0.38739303824E+02  0.12512524054E+03  0.41800000000E+01 0.  1.
         -5    1    3    3    0  502 -0.62656713638E+02  0.24402549175E+02  0.70312537263E+02  0.97379019643E+02  0.41800000000E+01 0.  1.
        -11    1    4    4    0    0  0.14204193962E+03 -0.35331854992E+02 -0.15536265018E+03  0.21345211562E+03  0.00000000000E+00 0. -1.
         11    1    4    4    0    0  0.38854374952E+02  0.23479864764E+02 -0.12184122780E+03  0.13002404122E+03  0.00000000000E+00 0.  1.
</event>
<event>
 8    1  0.6493926E-009  0.2624354E+03  0.7561462E-02  0.1105689E+00
          1   -1    0    0  501    0  0.00000000000E+00  0.00000000000E+00  0.40617334068E+03  0.40617334068E+03  0.00000000000E+00 0. -1.
         -1   -1    0    0    0  501 -0.00000000000E+00 -0.00000000000E+00 -0.22291438620E+03  0.22291438620E+03  0.00000000000E+00 0.  1.
         25    2    1    2    0    0  0.53534206771E+02  0.23648194869E+03 -0.55583514349E+02  0.27843524425E+03  0.12508810825E+03 0.  0.
         23    2    1    2    0    0 -0.53534206771E+02 -0.23648194869E+03  0.23884246883E+03  0.35065248263E+03  0.84390848477E+02 0.  0.
          5    1    3    3  502    0 -0.11025353471E+02  0.19469168382E+03 -0.30394512922E+02  0.19740240370E+03  0.41800000000E+01 0.  1.
         -5    1    3    3    0  502  0.64559560242E+02  0.41790264867E+02 -0.25189001427E+02  0.81032840560E+02  0.41800000000E+01 0.  1.
        -11    1    4    4    0    0  0.17886731476E+02 -0.43826007511E+02  0.22920435319E+02  0.52592779471E+02  0.00000000000E+00 0.  1.
         11    1    4    4    0    0 -0.71420938246E+02 -0.19265594118E+03  0.21592203351E+03  0.29805970316E+03  0.00000000000E+00 0. -1.
</event>
<event>
 8    1  0.6493926E-009  0.1348190E+03  0.7561462E-02  0.1220475E+00
          3   -1    0    0  501    0  0.00000000000E+00  0.00000000000E+00  0.77758932650E+02  0.77758932650E+02  0.00000000000E+00 0. -1.
         -3   -1    0    0    0  501 -0.00000000000E+00 -0.00000000000E+00 -0.28686341278E+03  0.28686341278E+03  0.00000000000E+00 0.  1.
         25    2    1    2    0    0  0.95452665938E+02  0.72936115851E+01 -0.62630682566E+02  0.16951002124E+03  0.12508651685E+03 0.  0.
         23    2    1    2    0    0 -0.95452665938E+02 -0.72936115851E+01 -0.14647379756E+03  0.19511232419E+03  0.86312441016E+02 0.  0.
          5    1    3    3  502    0  0.63866451881E+02 -0.54992350510E+02 -0.50970984077E+02  0.98582939235E+02  0.41800000000E+01 0.  1.
         -5    1    3    3    0  502  0.31586214056E+02  0.62285962095E+02 -0.11659698489E+02  0.70927082003E+02  0.41800000000E+01 0.  1.
        -11    1    4    4    0    0  0.47636506616E+01  0.12289778406E+02 -0.59616934106E+02  0.61056611870E+02  0.00000000000E+00 0.  1.
         11    1    4    4    0    0 -0.10021631660E+03 -0.19583389991E+02 -0.86856863458E+02  0.13405571232E+03  0.00000000000E+00 0. -1.
</event>
<event>
 8    1  0.6493926E-009  0.1002784E+03  0.7561462E-02  0.1279712E+00
         -1   -1    0    0    0  501 -0.00000000000E+00  0.00000000000E+00  0.67404317542E+02  0.67404317542E+02  0.00000000000E+00 0.  1.
          1   -1    0    0  501    0  0.00000000000E+00 -0.00000000000E+00 -0.37830607867E+03  0.37830607867E+03  0.00000000000E+00 0. -1.
         25    2    1    2    0    0  0.10128837187E+02  0.48795058609E+02 -0.31400003449E+03  0.34165258205E+03  0.12508762559E+03 0.  0.
         23    2    1    2    0    0 -0.10128837187E+02 -0.48795058609E+02  0.30982733612E+01  0.10405781416E+03  0.91295554673E+02 0.  0.
          5    1    3    3  502    0  0.15810074483E+02  0.82581744389E+02 -0.28301264641E+03  0.29526823972E+03  0.41800000000E+01 0.  1.
         -5    1    3    3    0  502 -0.56812372962E+01 -0.33786685781E+02 -0.30987388085E+02  0.46384342332E+02  0.41800000000E+01 0.  1.
        -11    1    4    4    0    0 -0.31888824602E+02 -0.50826370215E+02  0.31859318728E+02  0.67935507900E+02  0.00000000000E+00 0.  1.
         11    1    4    4    0    0  0.21759987416E+02  0.20313116062E+01 -0.28761045367E+02  0.36122306263E+02  0.00000000000E+00 0. -1.
</event>
<event>
 8    1  0.6493926E-009  0.1878591E+03  0.7561462E-02  0.1160407E+00
          1   -1    0    0  501    0  0.00000000000E+00  0.00000000000E+00  0.15919835212E+04  0.15919835212E+04  0.00000000000E+00 0.  1.
         -1   -1    0    0    0  501 -0.00000000000E+00 -0.00000000000E+00 -0.25172744315E+02  0.25172744315E+02  0.00000000000E+00 0. -1.
         25    2    1    2    0    0  0.15282659341E+03  0.39624281210E+02  0.59170806404E+03  0.62505352449E+03  0.12508966427E+03 0.  0.
         23    2    1    2    0    0 -0.15282659341E+03 -0.39624281210E+02  0.97510271285E+03  0.99210274103E+03  0.92284867933E+02 0.  0.
          5    1    3    3  502    0  0.17017799080E+03  0.30196786125E+02  0.56893211585E+03  0.59462056750E+03  0.41800000000E+01 0. -1.
         -5    1    3    3    0  502 -0.17351397394E+02  0.94274950847E+01  0.22775948194E+02  0.30432956992E+02  0.41800000000E+01 0. -1.
        -11    1    4    4    0    0 -0.48282519209E+02 -0.59088302068E+02  0.43191426428E+03  0.43860296487E+03  0.00000000000E+00 0.  1.
         11    1    4    4    0    0 -0.10454407420E+03  0.19464020858E+02  0.54318844856E+03  0.55349977616E+03  0.00000000000E+00 0. -1.
</event>
<event>
 8    1  0.6493926E-009  0.9566092E+02  0.7561462E-02  0.1289694E+00
         -2   -1    0    0    0  501 -0.00000000000E+00  0.00000000000E+00  0.67494068515E+02  0.67494068515E+02  0.00000000000E+00 0. -1.
          2   -1    0    0  501    0  0.00000000000E+00 -0.00000000000E+00 -0.21365984373E+03  0.21365984373E+03  0.00000000000E+00 0.  1.
         25    2    1    2    0    0 -0.25480386323E+02  0.18065447782E+02 -0.12574679258E+03  0.18009912018E+03  0.12509127370E+03 0.  0.
         23    2    1    2    0    0  0.25480386323E+02 -0.18065447782E+02 -0.20418982636E+02  0.10105479206E+03  0.93912329630E+02 0.  0.
          5    1    3    3  502    0  0.21245975894E+02  0.36127256319E+02  0.26596347976E+01  0.42203272363E+02  0.41800000000E+01 0.  1.
         -5    1    3    3    0  502 -0.46726362217E+02 -0.18061808537E+02 -0.12840642737E+03  0.13789584782E+03  0.41800000000E+01 0.  1.
        -11    1    4    4    0    0  0.54880382183E+02  0.12750155133E+02 -0.10245776277E+02  0.57266034750E+02  0.00000000000E+00 0.  1.
         11    1    4    4    0    0 -0.29399995860E+02 -0.30815602914E+02 -0.10173206359E+02  0.43788757315E+02  0.00000000000E+00 0. -1.
</event>
<event>
 8    1  0.6493926E-009  0.1331683E+03  0.7561462E-02  0.1222829E+00
         -2   -1    0    0    0  501 -0.00000000000E+00  0.00000000000E+00  0.22945471225E+03  0.22945471225E+03  0.00000000000E+00 0. -1.
          2   -1    0    0  501    0  0.00000000000E+00 -0.00000000000E+00 -0.88247043984E+02  0.88247043984E+02  0.00000000000E+00 0.  1.
         25    2    1    2    0    0 -0.81369813849E+02  0.16772586917E+02  0.32150324059E+02  0.15356800911E+03  0.12508846393E+03 0.  0.
         23    2    1    2    0    0  0.81369813849E+02 -0.16772586917E+02  0.10905734420E+03  0.16413374712E+03  0.90244203920E+02 0.  0.
          5    1    3    3  502    0  0.10093218753E+02  0.48815586939E+02 -0.36806323871E+01  0.50158289921E+02  0.41800000000E+01 0. -1.
         -5    1    3    3    0  502 -0.91463032602E+02 -0.32043000022E+02  0.35830956446E+02  0.10340971919E+03  0.41800000000E+01 0. -1.
        -11    1    4    4    0    0  0.92858158377E+02  0.67794163775E+01  0.67480425013E+02  0.11498785076E+03  0.00000000000E+00 0. -1.
         11    1    4    4    0    0 -0.11488344528E+02 -0.23552003295E+02  0.41576919191E+02  0.49145896356E+02  0.00000000000E+00 0.  1.
</event>
<event>
 8    1  0.6493926E-009  0.1462385E+03  0.7561462E-02  0.1205173E+00
         -2   -1    0    0    0  501 -0.00000000000E+00  0.00000000000E+00  0.27912349779E+03  0.27912349779E+03  0.00000000000E+00 0.  1.
          2   -1    0    0  501    0  0.00000000000E+00 -0.00000000000E+00 -0.88434695867E+02  0.88434695867E+02  0.00000000000E+00 0. -1.
         25    2    1    2    0    0  0.42415514853E+02  0.10399068973E+03  0.13289678898E+03  0.21429729612E+03  0.12509450489E+03 0.  0.
         23    2    1    2    0    0 -0.42415514853E+02 -0.10399068973E+03  0.57792012949E+02  0.15326089754E+03  0.86809253551E+02 0.  0.
          5    1    3    3  502    0  0.59242798726E+02  0.12643318991E+03  0.11266735647E+03  0.17946160126E+03  0.41800000000E+01 0.  1.
         -5    1    3    3    0  502 -0.16827283874E+02 -0.22442500181E+02  0.20229432506E+02  0.34835694861E+02  0.41800000000E+01 0.  1.
        -11    1    4    4    0    0 -0.94669933850E+01  0.49023172432E+01  0.35842337647E+02  0.37394248837E+02  0.00000000000E+00 0.  1.
         11    1    4    4    0    0 -0.32948521468E+02 -0.10889300698E+03  0.21949675302E+02  0.11586664870E+03  0.00000000000E+00 0. -1.
</event>
<event>
 8    1  0.6493926E-009  0.1012599E+03  0.7561462E-02  0.1277669E+00
          4   -1    0    0  501    0  0.00000000000E+00  0.00000000000E+00  0.53876611102E+03  0.53876611102E+03  0.00000000000E+00 0. -1.
         -4   -1    0    0    0  501 -0.00000000000E+00 -0.00000000000E+00 -0.57264497179E+02  0.57264497179E+02  0.00000000000E+00 0.  1.
         25    2    1    2    0    0 -0.94176676439E+02  0.26031223208E+02  0.42018817896E+03  0.44916874739E+03  0.12509031507E+03 0.  0.
         23    2    1    2    0    0  0.94176676439E+02 -0.26031223208E+02  0.61313434882E+02  0.14686186081E+03  0.90896633038E+02 0.  0.
          5    1    3    3  502    0 -0.57201129723E+02  0.49728837496E+01  0.39576156326E+03  0.39992672600E+03  0.41800000000E+01 0.  1.
         -5    1    3    3    0  502 -0.36975546716E+02  0.21058339458E+02  0.24426615698E+02  0.49242021386E+02  0.41800000000E+01 0.  1.
        -11    1    4    4    0    0  0.50096478689E+02  0.16848451056E+01 -0.16903630041E+02  0.52898285308E+02  0.00000000000E+00 0.  1.
         11    1    4    4    0    0  0.44080197750E+02 -0.27716068314E+02  0.78217064923E+02  0.93963575505E+02  0.00000000000E+00 0. -1.
</event>
<event>
 8    1  0.6493926E-009  0.1192921E+03  0.7561462E-02  0.1244269E+00
         -2   -1    0    0    0  501 -0.00000000000E+00  0.00000000000E+00  0.65666458980E+02  0.65666458980E+02  0.00000000000E+00 0.  1.
          2   -1    0    0  501    0  0.00000000000E+00 -0.00000000000E+00 -0.27520406318E+03  0.27520406318E+03  0.00000000000E+00 0. -1.
         25    2    1    2    0    0 -0.45873070607E+02  0.36163245324E+02 -0.47946797040E+02  0.14614864899E+03  0.12509361829E+03 0.  0.
         23    2    1    2    0    0  0.45873070607E+02 -0.36163245324E+02 -0.16159080716E+03  0.19472187317E+03  0.91612772098E+02 0.  0.
          5    1    3    3  502    0  0.40178282195E+02  0.72691663384E+01 -0.35815467134E+02  0.54473435961E+02  0.41800000000E+01 0.  1.
         -5    1    3    3    0  502 -0.86051352802E+02  0.28894078985E+02 -0.12131329906E+02  0.91675213034E+02  0.41800000000E+01 0.  1.
        -11    1    4    4    0    0  0.14650395387E+02 -0.63502582676E+02 -0.80019580413E+02  0.10320051037E+03  0.00000000000E+00 0.  1.
         11    1    4    4    0    0  0.31222675220E+02  0.27339337352E+02 -0.81571226748E+02  0.91521362795E+02  0.00000000000E+00 0. -1.
</event>
<event>
 8    1  0.6493926E-009  0.1553956E+03  0.7561462E-02  0.1193995E+00
         -2   -1    0    0    0  501 -0.00000000000E+00  0.00000000000E+00  0.44721784574E+02  0.44721784574E+02  0.00000000000E+00 0.  1.
          2   -1    0    0  501    0  0.00000000000E+00 -0.00000000000E+00 -0.73346501429E+03  0.73346501429E+03  0.00000000000E+00 0. -1.
         25    2    1    2    0    0  0.11783484746E+01 -0.12076859784E+03 -0.53861424061E+03  0.56598498374E+03  0.12508900390E+03 0.  0.
         23    2    1    2    0    0 -0.11783484746E+01  0.12076859784E+03 -0.15012898910E+03  0.21220181513E+03  0.88906997723E+02 0.  0.
          5    1    3    3  502    0 -0.58119626894E+02 -0.31384357516E+02 -0.18829995221E+03  0.19959261843E+03  0.41800000000E+01 0. -1.
         -5    1    3    3    0  502  0.59297975369E+02 -0.89384240326E+02 -0.35031428840E+03  0.36639236531E+03  0.41800000000E+01 0. -1.
        -11    1    4    4    0    0  0.25832158539E+02  0.99735640690E+02 -0.68596551209E+02  0.12377392810E+03  0.00000000000E+00 0.  1.
         11    1    4    4    0    0 -0.27010507014E+02  0.21032957152E+02 -0.81532437895E+02  0.88427887031E+02  0.00000000000E+00 0. -1.
</event>
<event>
 8    1  0.6493926E-009  0.9920805E+02  0.7561462E-02  0.1281970E+00
         -2   -1    0    0    0  501 -0.00000000000E+00  0.00000000000E+00  0.43818722505E+02  0.43818722505E+02  0.00000000000E+00 0.  1.
          2   -1    0    0  501    0  0.00000000000E+00 -0.00000000000E+00 -0.47907999454E+03  0.47907999454E+03  0.00000000000E+00 0. -1.
         25    2    1    2    0    0  0.22160755646E+02 -0.52728835615E+02 -0.37745469363E+03  0.40173836395E+03  0.12510091178E+03 0.  0.
         23    2    1    2    0    0 -0.22160755646E+02  0.52728835615E+02 -0.57806578396E+02  0.12116035309E+03  0.89815374287E+02 0.  0.
          5    1    3    3  502    0  0.11366942626E+02  0.34475403510E+02 -0.20405231045E+03  0.20729828420E+03  0.41800000000E+01 0.  1.
         -5    1    3    3    0  502  0.10793813020E+02 -0.87204239125E+02 -0.17340238319E+03  0.19444007976E+03  0.41800000000E+01 0.  1.
        -11    1    4    4    0    0 -0.33767666698E+02  0.52346530961E+02 -0.96154426957E-01  0.62293048276E+02  0.00000000000E+00 0.  1.
         11    1    4    4    0    0  0.11606911052E+02  0.38230465407E+00 -0.57710423969E+02  0.58867304811E+02  0.00000000000E+00 0. -1.
</event>
<event>
 8    1  0.6493926E-009  0.1846039E+03  0.7561462E-02  0.1163420E+00
         -2   -1    0    0    0  501 -0.00000000000E+00  0.00000000000E+00  0.37471745609E+02  0.37471745609E+02  0.00000000000E+00 0.  1.
          2   -1    0    0  501    0  0.00000000000E+00 -0.00000000000E+00 -0.11256252351E+04  0.11256252351E+04  0.00000000000E+00 0. -1.
         25    2    1    2    0    0  0.14346932413E+03 -0.92674491836E+02 -0.74102755493E+03  0.77067630172E+03  0.12509243165E+03 0.  0.
         23    2    1    2    0    0 -0.14346932413E+03  0.92674491836E+02 -0.34712593455E+03  0.39242067899E+03  0.65769038713E+02 0.  0.
          5    1    3    3  502    0  0.53715965369E+02  0.45146128906E+01 -0.80193079098E+02  0.96717056408E+02  0.41800000000E+01 0. -1.
         -5    1    3    3    0  502  0.89753358761E+02 -0.97189104726E+02 -0.66083447584E+03  0.67395924531E+03  0.41800000000E+01 0. -1.
        -11    1    4    4    0    0 -0.11398317033E+03  0.37099249636E+02 -0.23708354980E+03  0.26566355984E+03  0.00000000000E+00 0.  1.
         11    1    4    4    0    0 -0.29486153797E+02  0.55575242200E+02 -0.11004238475E+03  0.12675711914E+03  0.00000000000E+00 0. -1.
</event>
<event>
 8    1  0.6493926E-009  0.1008718E+03  0.7561462E-02  0.1278473E+00
         -2   -1    0    0    0  501 -0.00000000000E+00  0.00000000000E+00  0.13795512568E+03  0.13795512568E+03  0.00000000000E+00 0.  1.
          2   -1    0    0  501    0  0.00000000000E+00 -0.00000000000E+00 -0.13400875916E+03  0.13400875916E+03  0.00000000000E+00 0. -1.
         25    2    1    2    0    0 -0.28131437872E+02  0.20738266771E+02  0.76598688031E+02  0.15075895932E+03  0.12505779184E+03 0.  0.
         23    2    1    2    0    0  0.28131437872E+02 -0.20738266771E+02 -0.72652321513E+02  0.12120492553E+03  0.90503152688E+02 0.  0.
          5    1    3    3  502    0 -0.24612314534E+02 -0.41558338019E+02 -0.41143476873E+01  0.48654514102E+02  0.41800000000E+01 0.  1.
         -5    1    3    3    0  502 -0.35191233383E+01  0.62296604790E+02  0.80713035718E+02  0.10210444521E+03  0.41800000000E+01 0.  1.
        -11    1    4    4    0    0  0.41018246185E+02  0.21679766785E+02 -0.58508548578E+02  0.74671005515E+02  0.00000000000E+00 0.  1.
         11    1    4    4    0    0 -0.12886808313E+02 -0.42418033556E+02 -0.14143772935E+02  0.46533920017E+02  0.00000000000E+00 0. -1.
</event>
<event>
 8    1  0.6493926E-009  0.1120628E+03  0.7561462E-02  0.1256797E+00
          1   -1    0    0  501    0  0.00000000000E+00  0.00000000000E+00  0.20718045507E+03  0.20718045507E+03  0.00000000000E+00 0. -1.
         -1   -1    0    0    0  501 -0.00000000000E+00 -0.00000000000E+00 -0.61817329973E+02  0.61817329973E+02  0.00000000000E+00 0.  1.
         25    2    1    2    0    0 -0.27961084586E+02 -0.26283102100E+02  0.97275359198E+02  0.16304577004E+03  0.12509517942E+03 0.  0.
         23    2    1    2    0    0  0.27961084586E+02  0.26283102100E+02  0.48087765901E+02  0.10595201501E+03  0.86259912748E+02 0.  0.
          5    1    3    3  502    0 -0.57670903373E+02  0.31371292734E+02  0.51616562300E+02  0.83617181293E+02  0.41800000000E+01 0. -1.
         -5    1    3    3    0  502  0.29709818787E+02 -0.57654394833E+02  0.45658796898E+02  0.79428588746E+02  0.41800000000E+01 0. -1.
        -11    1    4    4    0    0  0.47399375523E+01 -0.31092231879E+02  0.88737610269E+01  0.32679313425E+02  0.00000000000E+00 0.  1.
         11    1    4    4    0    0  0.23221147034E+02  0.57375333978E+02  0.39214004874E+02  0.73272701581E+02  0.00000000000E+00 0. -1.
</event>
<event>
 8    1  0.6493926E-009  0.6560549E+02  0.7561462E-02  0.1375708E+00
         -1   -1    0    0    0  501 -0.00000000000E+00  0.00000000000E+00  0.17736302533E+03  0.17736302533E+03  0.00000000000E+00 0.  1.
          1   -1    0    0  501    0  0.00000000000E+00 -0.00000000000E+00 -0.72680040084E+02  0.72680040084E+02  0.00000000000E+00 0. -1.
         25    2    1    2    0    0 -0.27720859023E+02  0.26787371097E+01  0.83366063762E+02  0.15288404135E+03  0.12509199756E+03 0.  0.
         23    2    1    2    0    0  0.27720859023E+02 -0.26787371097E+01  0.21316921488E+02  0.97159024068E+02  0.90608184833E+02 0.  0.
          5    1    3    3  502    0  0.37284243642E+01  0.24972038301E+02  0.10527920130E+03  0.10834521896E+03  0.41800000000E+01 0.  1.
         -5    1    3    3    0  502 -0.31449283388E+02 -0.22293301191E+02 -0.21913137534E+02  0.44538822393E+02  0.41800000000E+01 0.  1.
        -11    1    4    4    0    0  0.39573088715E+02 -0.21169795138E+02  0.45899000682E+02  0.64194297568E+02  0.00000000000E+00 0.  1.
         11    1    4    4    0    0 -0.11852229692E+02  0.18491058029E+02 -0.24582079194E+02  0.32964726500E+02  0.00000000000E+00 0. -1.
</event>
<event>
 7    1  0.6493926E-009  0.1132325E+03  0.7561462E-02  0.1254698E+00
         -2   -1    0    0    0  501 -0.00000000000E+00  0.00000000000E+00  0.30724479522E+02  0.30724479522E+02  0.00000000000E+00 0.  1.
          2   -1    0    0  501    0  0.00000000000E+00 -0.00000000000E+00 -0.45467717924E+03  0.45467717924E+03  0.00000000000E+00 0. -1.
         23    2    1    2    0    0  0.32569788992E+01 -0.43578082873E+02 -0.20991254992E+03  0.23336953397E+03  0.92132532542E+02 0.  0.
          5    1    1    2  502    0  0.57574641604E+02 -0.65598193238E+00 -0.94214525575E+02  0.11049488177E+03  0.41800000000E+01 0.  1.
         -5    1    1    2    0  502 -0.60831620503E+02  0.44234064805E+02 -0.11982562423E+03  0.14153724303E+03  0.41800000000E+01 0.  1.
        -11    1    3    3    0    0  0.23636906603E+02  0.17244582363E+02 -0.28076808467E+02  0.40551031409E+02  0.00000000000E+00 0.  1.
         11    1    3    3    0    0 -0.20379927704E+02 -0.60822665236E+02 -0.18183574145E+03  0.19281850256E+03  0.00000000000E+00 0. -1.
</event>
<event>
 8    1  0.6493926E-009  0.1390847E+03  0.7561462E-02  0.1214566E+00
          1   -1    0    0  501    0  0.00000000000E+00  0.00000000000E+00  0.49040803077E+03  0.49040803077E+03  0.00000000000E+00 0. -1.
         -1   -1    0    0    0  501 -0.00000000000E+00 -0.00000000000E+00 -0.48518808692E+02  0.48518808692E+02  0.00000000000E+00 0.  1.
         25    2    1    2    0    0 -0.21768915943E+02 -0.10474354929E+03  0.18839355532E+03  0.25016827973E+03  0.12508772791E+03 0.  0.
         23    2    1    2    0    0  0.21768915943E+02  0.10474354929E+03  0.25349566675E+03  0.28875855973E+03  0.87614815746E+02 0.  0.
          5    1    3    3  502    0 -0.69454515445E+02 -0.29851274246E+02  0.86632128218E+02  0.11505488399E+03  0.41800000000E+01 0.  1.
         -5    1    3    3    0  502  0.47685599503E+02 -0.74892275045E+02  0.10176142711E+03  0.13511339574E+03  0.41800000000E+01 0.  1.
        -11    1    4    4    0    0 -0.10072249232E+02  0.42262102724E+02  0.25846075345E+02  0.50552498869E+02  0.00000000000E+00 0.  1.
         11    1    4    4    0    0  0.31841165174E+02  0.62481446567E+02  0.22764959141E+03  0.23820606087E+03  0.00000000000E+00 0. -1.
</event>
<event>
 8    1  0.6493926E-009  0.1235644E+03  0.7561462E-02  0.1237330E+00
         -1   -1    0    0    0  501 -0.00000000000E+00  0.00000000000E+00  0.18723969892E+02  0.18723969892E+02  0.00000000000E+00 0.  1.
          1   -1    0    0  501    0  0.00000000000E+00 -0.00000000000E+00 -0.15527828241E+04  0.15527828241E+04  0.00000000000E+00 0. -1.
         25    2    1    2    0    0 -0.54315849544E+02  0.63268353256E+02 -0.13351010168E+04  0.13435372257E+04  0.12507779821E+03 0.  0.
         23    2    1    2    0    0  0.54315849544E+02 -0.63268353256E+02 -0.19895783735E+03  0.22796956828E+03  0.73707577538E+02 0.  0.
          5    1    3    3  502    0 -0.31378478723E+01  0.87740693293E+02 -0.62328738969E+03  0.62945446054E+03  0.41800000000E+01 0. -1.
         -5    1    3    3    0  502 -0.51178001672E+02 -0.24472340037E+02 -0.71181362714E+03  0.71408276513E+03  0.41800000000E+01 0. -1.
        -11    1    4    4    0    0  0.55523887296E+02 -0.19925467032E+02 -0.15664864947E+03  0.16738794962E+03  0.00000000000E+00 0. -1.
         11    1    4    4    0    0 -0.12080377519E+01 -0.43342886224E+02 -0.42309187881E+02  0.60581618669E+02  0.00000000000E+00 0.  1.
</event>
<event>
 8    1  0.6493926E-009  0.2037676E+03  0.7561462E-02  0.1146599E+00
         -1   -1    0    0    0  501 -0.00000000000E+00  0.00000000000E+00  0.20738719770E+04  0.20738719770E+04  0.00000000000E+00 0.  1.
          1   -1    0    0  501    0  0.00000000000E+00 -0.00000000000E+00 -0.21104949323E+02  0.21104949323E+02  0.00000000000E+00 0. -1.
         25    2    1    2    0    0 -0.11695477195E+03 -0.13196202911E+03  0.12165935534E+04  0.12356546451E+04  0.12510048686E+03 0.  0.
         23    2    1    2    0    0  0.11695477195E+03  0.13196202911E+03  0.83617347420E+03  0.85932228122E+03  0.90312281677E+02 0.  0.
          5    1    3    3  502    0  0.75992574668E+01  0.14928743118E+02  0.42664734446E+02  0.46025732481E+02  0.41800000000E+01 0. -1.
         -5    1    3    3    0  502 -0.12455402942E+03 -0.14689077223E+03  0.11739288190E+04  0.11896289126E+04  0.41800000000E+01 0. -1.
        -11    1    4    4    0    0  0.54821908473E+02  0.12325279081E+03  0.54222714966E+03  0.55875484241E+03  0.00000000000E+00 0.  1.
         11    1    4    4    0    0  0.62132863481E+02  0.87092383042E+01  0.29394632455E+03  0.30056743881E+03  0.00000000000E+00 0. -1.
</event>
<event>
 8    1  0.6493926E-009  0.2114741E+03  0.7561462E-02  0.1140404E+00
          2   -1    0    0  501    0  0.00000000000E+00  0.00000000000E+00  0.16588586659E+04  0.16588586659E+04  0.00000000000E+00 0. -1.
         -2   -1    0    0    0  501 -0.00000000000E+00 -0.00000000000E+00 -0.34863444780E+02  0.34863444780E+02  0.00000000000E+00 0.  1.
         25    2    1    2    0    0  0.50752612590E+02  0.19460795347E+03  0.10955161938E+04  0.11208260344E+04  0.12508871016E+03 0.  0.
         23    2    1    2    0    0 -0.50752612590E+02 -0.19460795347E+03  0.52847902741E+03  0.57289607631E+03  0.92042102317E+02 0.  0.
          5    1    3    3  502    0  0.56175223870E+01  0.10275526274E+02  0.39062400263E+03  0.39082186073E+03  0.41800000000E+01 0. -1.
         -5    1    3    3    0  502  0.45135090203E+02  0.18433242719E+03  0.70489219113E+03  0.73000417369E+03  0.41800000000E+01 0. -1.
        -11    1    4    4    0    0 -0.52724454483E+02 -0.40282290070E+02  0.17681105630E+03  0.18885094817E+03  0.00000000000E+00 0.  1.
         11    1    4    4    0    0  0.19718418929E+01 -0.15432566340E+03  0.35166797111E+03  0.38404512814E+03  0.00000000000E+00 0. -1.
</event>
<event>
 8    1  0.6493926E-009  0.1333694E+03  0.7561462E-02  0.1222540E+00
         -2   -1    0    0    0  501 -0.00000000000E+00  0.00000000000E+00  0.44019579344E+02  0.44019579344E+02  0.00000000000E+00 0.  1.
          2   -1    0    0  501    0  0.00000000000E+00 -0.00000000000E+00 -0.48168850020E+03  0.48168850020E+03  0.00000000000E+00 0. -1.
         25    2    1    2    0    0 -0.58071068999E+02 -0.51773248791E+02 -0.34213335492E+03  0.37249882707E+03  0.12508966891E+03 0.  0.
         23    2    1    2    0    0  0.58071068999E+02  0.51773248791E+02 -0.95535565932E+02  0.15320925248E+03  0.91067625103E+02 0.  0.
          5    1    3    3  502    0  0.18663245295E+02 -0.66123372614E+02 -0.14839311474E+03  0.16358057964E+03  0.41800000000E+01 0. -1.
         -5    1    3    3    0  502 -0.76734314294E+02  0.14350123823E+02 -0.19374024018E+03  0.20891824743E+03  0.41800000000E+01 0. -1.
        -11    1    4    4    0    0  0.76029235321E+02  0.13181861842E+02 -0.63599222061E+02  0.99995335650E+02  0.00000000000E+00 0.  1.
         11    1    4    4    0    0 -0.17958166322E+02  0.38591386949E+02 -0.31936343872E+02  0.53213916828E+02  0.00000000000E+00 0. -1.
</event>
<event>
 8    1  0.6493926E-009  0.9919946E+02  0.7561462E-02  0.1281988E+00
         -4   -1    0    0    0  501 -0.00000000000E+00  0.00000000000E+00  0.34658011539E+02  0.34658011539E+02  0.00000000000E+00 0.  1.
          4   -1    0    0  501    0  0.00000000000E+00 -0.00000000000E+00 -0.38273425690E+03  0.38273425690E+03  0.00000000000E+00 0. -1.
         25    2    1    2    0    0  0.23247128148E+02 -0.22781220071E+02 -0.22584789509E+03  0.26021950685E+03  0.12508999589E+03 0.  0.
         23    2    1    2    0    0 -0.23247128148E+02  0.22781220071E+02 -0.12222835028E+03  0.15717276160E+03  0.93295736354E+02 0.  0.
          5    1    3    3  502    0  0.39869205214E+02 -0.68875230391E+02 -0.12974315469E+03  0.15226328998E+03  0.41800000000E+01 0.  1.
         -5    1    3    3    0  502 -0.16622077066E+02  0.46094010320E+02 -0.96104740397E+02  0.10795621687E+03  0.41800000000E+01 0.  1.
        -11    1    4    4    0    0  0.19193257146E+02 -0.36418860415E+01 -0.10097763800E+03  0.10285002591E+03  0.00000000000E+00 0. -1.
         11    1    4    4    0    0 -0.42440385294E+02  0.26423106112E+02 -0.21250712281E+02  0.54322735691E+02  0.00000000000E+00 0.  1.
</event>
<event>
 8    1  0.6493926E-009  0.1760414E+03  0.7561462E-02  0.1171690E+00
         -2   -1    0    0    0  501 -0.00000000000E+00  0.00000000000E+00  0.94733854129E+02  0.94733854129E+02  0.00000000000E+00 0. -1.
          2   -1    0    0  501    0  0.00000000000E+00 -0.00000000000E+00 -0.60106342152E+03  0.60106342152E+03  0.00000000000E+00 0.  1.
         25    2    1    2    0    0 -0.58352636284E+02 -0.15028994561E+03 -0.46683314543E+03  0.50949050900E+03  0.12512112201E+03 0.  0.
         23    2    1    2    0    0  0.58352636284E+02  0.15028994561E+03 -0.39496421962E+02  0.18630676666E+03  0.84605827469E+02 0.  0.
          5    1    3    3  502    0 -0.74532669164E+01  0.26676807318E+01 -0.18166450189E+03  0.18188493988E+03  0.41800000000E+01 0.  1.
         -5    1    3    3    0  502 -0.50899369367E+02 -0.15295762634E+03 -0.28516864354E+03  0.32760556911E+03  0.41800000000E+01 0.  1.
        -11    1    4    4    0    0 -0.15768576094E+02  0.73394716393E+02 -0.12013969146E+02  0.76024784387E+02  0.00000000000E+00 0.  1.
         11    1    4    4    0    0  0.74121212377E+02  0.76895229214E+02 -0.27482452816E+02  0.11028198227E+03  0.00000000000E+00 0. -1.
</event>
<event>
 8    1  0.6493926E-009  0.7888266E+02  0.7561462E-02  0.1332253E+00
          1   -1    0    0  501    0  0.00000000000E+00  0.00000000000E+00  0.61011588041E+02  0.61011588041E+02  0.00000000000E+00 0. -1.
         -1   -1    0    0    0  501 -0.00000000000E+00 -0.00000000000E+00 -0.26025431642E+03  0.26025431642E+03  0.00000000000E+00 0.  1.
         25    2    1    2    0    0 -0.15718722437E+02 -0.78741156352E+01 -0.20091657909E+03  0.23731909479E+03  0.12507518166E+03 0.  0.
         23    2    1    2    0    0  0.15718722437E+02  0.78741156352E+01  0.16738507078E+01  0.83946809673E+02  0.82068173770E+02 0.  0.
          5    1    3    3  502    0  0.45903240003E+02 -0.23987263189E+02 -0.13898886753E+03  0.14838421053E+03  0.41800000000E+01 0.  1.
         -5    1    3    3    0  502 -0.61621962440E+02  0.16113147554E+02 -0.61927711558E+02  0.88934884257E+02  0.41800000000E+01 0.  1.
        -11    1    4    4    0    0  0.25432547442E+01 -0.15195248617E+02  0.36806171435E+02  0.39900601260E+02  0.00000000000E+00 0. -1.
         11    1    4    4    0    0  0.13175467693E+02  0.23069364252E+02 -0.35132320727E+02  0.44046208413E+02  0.00000000000E+00 0.  1.
</event>
<event>
 8    1  0.6493926E-009  0.8408326E+02  0.7561462E-02  0.1317847E+00
          1   -1    0    0  501    0  0.00000000000E+00  0.00000000000E+00  0.26868524673E+02  0.26868524673E+02  0.00000000000E+00 0. -1.
         -1   -1    0    0    0  501 -0.00000000000E+00 -0.00000000000E+00 -0.50297035562E+03  0.50297035562E+03  0.00000000000E+00 0.  1.
         25    2    1    2    0    0  0.28430357168E+02 -0.13829838680E+02 -0.27630573085E+03  0.30494247471E+03  0.12508199845E+03 0.  0.
         23    2    1    2    0    0 -0.28430357168E+02  0.13829838680E+02 -0.19979610010E+03  0.22489640558E+03  0.98287140473E+02 0.  0.
          5    1    3    3  502    0  0.14741637448E+02  0.22365916124E+02 -0.12432925391E+01  0.27139790991E+02  0.41800000000E+01 0.  1.
         -5    1    3    3    0  502  0.13688719720E+02 -0.36195754805E+02 -0.27506243831E+03  0.27780268372E+03  0.41800000000E+01 0.  1.
        -11    1    4    4    0    0  0.32284413064E+02  0.24447196536E+02 -0.63536545837E+02  0.75344816692E+02  0.00000000000E+00 0. -1.
         11    1    4    4    0    0 -0.60714770232E+02 -0.10617357855E+02 -0.13625955426E+03  0.14955158889E+03  0.00000000000E+00 0.  1.
</event>
<event>
 8    1  0.6493926E-009  0.2820647E+03  0.7561462E-02  0.1094567E+00
          1   -1    0    0  501    0  0.00000000000E+00  0.00000000000E+00  0.60817614993E+03  0.60817614993E+03  0.00000000000E+00 0. -1.
         -1   -1    0    0    0  501 -0.00000000000E+00 -0.00000000000E+00 -0.15519917141E+03  0.15519917141E+03  0.00000000000E+00 0.  1.
         25    2    1    2    0    0 -0.13579167045E+03  0.23117845042E+03  0.35521118286E+03  0.46228275819E+03  0.12509000913E+03 0.  0.
         23    2    1    2    0    0  0.13579167045E+03 -0.23117845042E+03  0.97765795655E+02  0.30109256315E+03  0.95998578516E+02 0.  0.
          5    1    3    3  502    0 -0.12169416634E+03  0.92773217164E+02  0.14998718849E+03  0.21431278323E+03  0.41800000000E+01 0.  1.
         -5    1    3    3    0  502 -0.14097504112E+02  0.13840523326E+03  0.20522399437E+03  0.24796997496E+03  0.41800000000E+01 0.  1.
        -11    1    4    4    0    0  0.78589165718E+02 -0.89689593890E+02 -0.10966657767E+01  0.11925469759E+03  0.00000000000E+00 0.  1.
         11    1    4    4    0    0  0.57202504732E+02 -0.14148885653E+03  0.98862461431E+02  0.18183786556E+03  0.00000000000E+00 0. -1.
</event>
<event>
 8    1  0.6493926E-009  0.3102460E+03  0.7561462E-02  0.1080228E+00
          1   -1    0    0  501    0  0.00000000000E+00  0.00000000000E+00  0.13994646450E+04  0.13994646450E+04  0.00000000000E+00 0. -1.
         -1   -1    0    0    0  501 -0.00000000000E+00 -0.00000000000E+00 -0.77622595680E+02  0.77622595680E+02  0.00000000000E+00 0.  1.
         25    2    1    2    0    0 -0.29500803080E+03  0.32158271357E+02  0.46404142642E+03  0.56484244215E+03  0.12509454973E+03 0.  0.
         23    2    1    2    0    0  0.29500803080E+03 -0.32158271357E+02  0.85780062290E+03  0.91224479852E+03  0.91130517034E+02 0.  0.
          5    1    3    3  502    0 -0.47645628179E+02 -0.41981229895E+02  0.85300016568E+02  0.10642412684E+03  0.41800000000E+01 0.  1.
         -5    1    3    3    0  502 -0.24736240262E+03  0.74139501252E+02  0.37874140985E+03  0.45841831531E+03  0.41800000000E+01 0.  1.
        -11    1    4    4    0    0  0.25848582595E+03 -0.39046519416E+02  0.81321332037E+03  0.85419872239E+03  0.00000000000E+00 0.  1.
         11    1    4    4    0    0  0.36522204846E+02  0.68882480591E+01  0.44587302523E+02  0.58046076133E+02  0.00000000000E+00 0. -1.
</event>
<event>
 8    1  0.6493926E-009  0.1051922E+03  0.7561462E-02  0.1269741E+00
          1   -1    0    0  501    0  0.00000000000E+00  0.00000000000E+00  0.32129569912E+02  0.32129569912E+02  0.00000000000E+00 0. -1.
         -1   -1    0    0    0  501 -0.00000000000E+00 -0.00000000000E+00 -0.60430098959E+03  0.60430098959E+03  0.00000000000E+00 0.  1.
         25    2    1    2    0    0  0.81988938828E+02 -0.75765748351E+01 -0.37987572427E+03  0.40832900789E+03  0.12508965670E+03 0.  0.
         23    2    1    2    0    0 -0.81988938828E+02  0.75765748351E+01 -0.19229569541E+03  0.22810155162E+03  0.90956543483E+02 0.  0.
          5    1    3    3  502    0  0.77993820607E+02  0.12361851585E+02 -0.37941064511E+03  0.38756388048E+03  0.41800000000E+01 0.  1.
         -5    1    3    3    0  502  0.39951182214E+01 -0.19938426420E+02 -0.46507916387E+00  0.20765127410E+02  0.41800000000E+01 0.  1.
        -11    1    4    4    0    0 -0.18101236157E+02  0.36250978640E+02 -0.12333022376E+03  0.12981576289E+03  0.00000000000E+00 0.  1.
         11    1    4    4    0    0 -0.63887702671E+02 -0.28674403805E+02 -0.68965471652E+02  0.98285788730E+02  0.00000000000E+00 0. -1.
</event>
<event>
 8    1  0.6493926E-009  0.9352060E+02  0.7561462E-02  0.1294543E+00
         -1   -1    0    0    0  501 -0.00000000000E+00  0.00000000000E+00  0.19696570306E+02  0.19696570306E+02  0.00000000000E+00 0.  1.
          1   -1    0    0  501    0  0.00000000000E+00 -0.00000000000E+00 -0.15015861690E+04  0.15015861690E+04  0.00000000000E+00 0. -1.
         25    2    1    2    0    0 -0.11537022478E+02  0.23215794808E+02 -0.13651370462E+04  0.13711015684E+04  0.12509308514E+03 0.  0.
         23    2    1    2    0    0  0.11537022478E+02 -0.23215794808E+02 -0.11675255245E+03  0.15018117086E+03  0.90835838527E+02 0.  0.
          5    1    3    3  502    0 -0.68289885415E+02  0.12987123842E+02 -0.79180183115E+03  0.79485834339E+03  0.41800000000E+01 0. -1.
         -5    1    3    3    0  502  0.56752862937E+02  0.10228670966E+02 -0.57333521505E+03  0.57624322502E+03  0.41800000000E+01 0. -1.
        -11    1    4    4    0    0 -0.55894939849E+01 -0.37110584007E+02 -0.69269084601E+01  0.38163070489E+02  0.00000000000E+00 0.  1.
         11    1    4    4    0    0  0.17126516463E+02  0.13894789199E+02 -0.10982564399E+03  0.11201810037E+03  0.00000000000E+00 0. -1.
</event>
<event>
 8    1  0.6493926E-009  0.1752464E+03  0.7561462E-02  0.1172485E+00
          1   -1    0    0  501    0  0.00000000000E+00  0.00000000000E+00  0.46279189644E+03  0.46279189644E+03  0.00000000000E+00 0. -1.
         -1   -1    0    0    0  501 -0.00000000000E+00 -0.00000000000E+00 -0.70183149093E+02  0.70183149093E+02  0.00000000000E+00 0.  1.
         25    2    1    2    0    0 -0.13266390453E+03  0.50749699112E+02  0.24254798693E+03  0.30765620601E+03  0.12509025384E+03 0.  0.
         23    2    1    2    0    0  0.13266390453E+03 -0.50749699112E+02  0.15006076041E+03  0.22531883952E+03  0.89861583019E+02 0.  0.
          5    1    3    3  502    0 -0.82655230434E+02 -0.34798423436E+02  0.12403950921E+03  0.15312115999E+03  0.41800000000E+01 0.  1.
         -5    1    3    3    0  502 -0.50008674095E+02  0.85548122548E+02  0.11850847772E+03  0.15453504602E+03  0.41800000000E+01 0.  1.
        -11    1    4    4    0    0  0.72654986669E+02  0.13191558810E+02  0.38062097612E+02  0.83075192364E+02  0.00000000000E+00 0.  1.
         11    1    4    4    0    0  0.60008917861E+02 -0.63941257922E+02  0.11199866280E+03  0.14224364716E+03  0.00000000000E+00 0. -1.
</event>
<event>
 8    1  0.6493926E-009  0.1265694E+03  0.7561462E-02  0.1232637E+00
         -1   -1    0    0    0  501 -0.00000000000E+00  0.00000000000E+00  0.19428219281E+03  0.19428219281E+03  0.00000000000E+00 0.  1.
          1   -1    0    0  501    0  0.00000000000E+00 -0.00000000000E+00 -0.13362344710E+03  0.13362344710E+03  0.00000000000E+00 0. -1.
         25    2    1    2    0    0  0.83401030000E+02 -0.84204817671E+02  0.26680895447E+02  0.17436108675E+03  0.12507491862E+03 0.  0.
         23    2    1    2    0    0 -0.83401030000E+02  0.84204817671E+02  0.33977850261E+02  0.15354455316E+03  0.91516404932E+02 0.  0.
          5    1    3    3  502    0  0.55363918634E+02 -0.60731777710E+02 -0.44997785825E+02  0.93785848823E+02  0.41800000000E+01 0.  1.
         -5    1    3    3    0  502  0.28037111366E+02 -0.23473039961E+02  0.71678681272E+02  0.80575237931E+02  0.41800000000E+01 0.  1.
        -11    1    4    4    0    0  0.89015508179E+01  0.19170101660E+02  0.34699118838E+02  0.40629536704E+02  0.00000000000E+00 0.  1.
         11    1    4    4    0    0 -0.92302580818E+02  0.65034716011E+02 -0.72126857691E+00  0.11291501645E+03  0.00000000000E+00 0. -1.
</event>
<event>
 8    1  0.6493926E-009  0.1134364E+03  0.7561462E-02  0.1254335E+00
         -2   -1    0    0    0  501 -0.00000000000E+00  0.00000000000E+00  0.83288304427E+02  0.83288304427E+02  0.00000000000E+00 0.  1.
          2   -1    0    0  501    0  0.00000000000E+00 -0.00000000000E+00 -0.28581723206E+03  0.28581723206E+03  0.00000000000E+00 0. -1.
         25    2    1    2    0    0  0.12925965616E+02  0.42487593852E+02  0.99477796514E+01  0.13310955496E+03  0.12508764561E+03 0.  0.
         23    2    1    2    0    0 -0.12925965616E+02 -0.42487593852E+02 -0.21247670728E+03  0.23599598152E+03  0.92603865677E+02 0.  0.
          5    1    3    3  502    0  0.98012618013E+01  0.84909318397E+02  0.22647117044E+02  0.88521304746E+02  0.41800000000E+01 0.  1.
         -5    1    3    3    0  502  0.31247038150E+01 -0.42421724545E+02 -0.12699337392E+02  0.44588250218E+02  0.41800000000E+01 0.  1.
        -11    1    4    4    0    0 -0.42267401046E+02 -0.52638707008E+02 -0.17345886105E+03  0.18613259559E+03  0.00000000000E+00 0. -1.
         11    1    4    4    0    0  0.29341435429E+02  0.10151113156E+02 -0.39017846231E+02  0.49863385925E+02  0.00000000000E+00 0.  1.
</event>
<event>
 8    1  0.6493926E-009  0.6654698E+02  0.7561462E-02  0.1372245E+00
         -1   -1    0    0    0  501 -0.00000000000E+00  0.00000000000E+00  0.51669532266E+02  0.51669532266E+02  0.00000000000E+00 0.  1.
          1   -1    0    0  501    0  0.00000000000E+00 -0.00000000000E+00 -0.27190988822E+03  0.27190988822E+03  0.00000000000E+00 0. -1.
         25    2    1    2    0    0 -0.42687889503E+02  0.19948669400E+02 -0.12809517742E+03  0.18513927947E+03  0.12509185827E+03 0.  0.
         23    2    1    2    0    0  0.42687889503E+02 -0.19948669400E+02 -0.92145178538E+02  0.13844014102E+03  0.91949624228E+02 0.  0.
          5    1    3    3  502    0 -0.28607623390E+01  0.29457767293E+01  0.25157525697E+02  0.25830893537E+02  0.41800000000E+01 0.  1.
         -5    1    3    3    0  502 -0.39827127164E+02  0.17002892671E+02 -0.15325270311E+03  0.15930838594E+03  0.41800000000E+01 0.  1.
        -11    1    4    4    0    0 -0.31991032488E+01  0.21594236070E+02  0.57890254589E+01  0.22584466095E+02  0.00000000000E+00 0.  1.
         11    1    4    4    0    0  0.45886992752E+02 -0.41542905471E+02 -0.97934203997E+02  0.11585567492E+03  0.00000000000E+00 0. -1.
</event>
<event>
 7    1  0.6493926E-009  0.1349635E+03  0.7561462E-02  0.1220271E+00
          1   -1    0    0  501    0  0.00000000000E+00  0.00000000000E+00  0.60219307400E+03  0.60219307400E+03  0.00000000000E+00 0. -1.
         -1   -1    0    0    0  501 -0.00000000000E+00 -0.00000000000E+00 -0.32197924925E+02  0.32197924925E+02  0.00000000000E+00 0.  1.
         25    2    1    2    0    0 -0.25948106466E+02 -0.10487035426E+03  0.35428838608E+03  0.39094650152E+03  0.12509121116E+03 0.  0.
          5    1    3    3  502    0 -0.65291068886E+02 -0.21264184253E+02  0.19463553474E+03  0.20643534821E+03  0.41800000000E+01 0.  1.
         -5    1    3    3    0  502  0.39342962420E+02 -0.83606170007E+02  0.15965285134E+03  0.18451115331E+03  0.41800000000E+01 0.  1.
        -11    1    1    2    0    0  0.35141146702E+01  0.36777556579E+02  0.44530791713E+02  0.57861291728E+02  0.00000000000E+00 0.  1.
         11    1    1    2    0    0  0.22433991795E+02  0.68092797680E+02  0.17117597128E+03  0.18558320567E+03  0.00000000000E+00 0. -1.
</event>
<event>
 8    1  0.6493926E-009  0.1157642E+03  0.7561462E-02  0.1250253E+00
          1   -1    0    0  501    0  0.00000000000E+00  0.00000000000E+00  0.75684257965E+03  0.75684257965E+03  0.00000000000E+00 0. -1.
         -1   -1    0    0    0  501 -0.00000000000E+00 -0.00000000000E+00 -0.20559087930E+02  0.20559087930E+02  0.00000000000E+00 0.  1.
         25    2    1    2    0    0  0.44427090222E+02  0.95321654397E+01  0.53998183112E+03  0.55614114104E+03  0.12509181547E+03 0.  0.
         23    2    1    2    0    0 -0.44427090222E+02 -0.95321654397E+01  0.19630166060E+03  0.22126052654E+03  0.91417996726E+02 0.  0.
          5    1    3    3  502    0  0.39432895164E+02  0.64234296606E+02  0.25745811873E+03  0.26829676365E+03  0.41800000000E+01 0.  1.
         -5    1    3    3    0  502  0.49941950577E+01 -0.54702131166E+02  0.28252371238E+03  0.28784437739E+03  0.41800000000E+01 0.  1.
        -11    1    4    4    0    0  0.17562605282E+02 -0.30766242398E+02  0.85259767928E+02  0.92326782695E+02  0.00000000000E+00 0.  1.
         11    1    4    4    0    0 -0.61989695504E+02  0.21234076959E+02  0.11104189268E+03  0.12893374384E+03  0.00000000000E+00 0. -1.
</event>
<event>
 8    1  0.6493926E-009  0.1358566E+03  0.7561462E-02  0.1219016E+00
         -2   -1    0    0    0  501 -0.00000000000E+00  0.00000000000E+00  0.12197828111E+04  0.12197828111E+04  0.00000000000E+00 0. -1.
          2   -1    0    0  501    0  0.00000000000E+00 -0.00000000000E+00 -0.17192722479E+02  0.17192722479E+02  0.00000000000E+00 0.  1.
         25    2    1    2    0    0  0.40975924705E+02 -0.70133075647E+02  0.85533611697E+03  0.86824258901E+03  0.12509054994E+03 0.  0.
         23    2    1    2    0    0 -0.40975924705E+02  0.70133075647E+02  0.34725397169E+03  0.36873294460E+03  0.93706930775E+02 0.  0.
          5    1    3    3  502    0 -0.23845716688E+02 -0.78591181543E+02  0.41604182576E+03  0.42409134064E+03  0.41800000000E+01 0. -1.
         -5    1    3    3    0  502  0.64821641393E+02  0.84581058953E+01  0.43929429121E+03  0.44415124838E+03  0.41800000000E+01 0. -1.
        -11    1    4    4    0    0 -0.55333289073E+02  0.31003837322E+01  0.15976214320E+03  0.16910153062E+03  0.00000000000E+00 0. -1.
         11    1    4    4    0    0  0.14357364368E+02  0.67032691915E+02  0.18749182848E+03  0.19963141397E+03  0.00000000000E+00 0.  1.
</event>
<event>
 8    1  0.6493926E-009  0.1699415E+03  0.7561462E-02  0.1177909E+00
          1   -1    0    0  501    0  0.00000000000E+00  0.00000000000E+00  0.12227382840E+04  0.12227382840E+04  0.00000000000E+00 0. -1.
         -1   -1    0    0    0  501 -0.00000000000E+00 -0.00000000000E+00 -0.31335938494E+02  0.31335938494E+02  0.00000000000E+00 0.  1.
         25    2    1    2    0    0 -0.14726476878E+03 -0.14512593455E+02  0.84898163383E+03  0.87081221825E+03  0.12508627972E+03 0.  0.
         23    2    1    2    0    0  0.14726476878E+03  0.14512593455E+02  0.34242071168E+03  0.38326200425E+03  0.87978932822E+02 0.  0.
          5    1    3    3  502    0 -0.92612912118E+02 -0.63702829758E+02  0.62475757265E+03  0.63480288200E+03  0.41800000000E+01 0.  1.
         -5    1    3    3    0  502 -0.54651856667E+02  0.49190236302E+02  0.22422406118E+03  0.23600933625E+03  0.41800000000E+01 0.  1.
        -11    1    4    4    0    0  0.82038722641E+02  0.28857876034E+02  0.27475120116E+03  0.28818631397E+03  0.00000000000E+00 0. -1.
         11    1    4    4    0    0  0.65226046144E+02 -0.14345282579E+02  0.67669510516E+02  0.95075690275E+02  0.00000000000E+00 0.  1.
</event>
<event>
 8    1  0.6493926E-009  0.1055505E+03  0.7561462E-02  0.1269039E+00
          3   -1    0    0  501    0  0.00000000000E+00  0.00000000000E+00  0.18072073442E+03  0.18072073442E+03  0.00000000000E+00 0. -1.
         -3   -1    0    0    0  501 -0.00000000000E+00 -0.00000000000E+00 -0.86049147611E+02  0.86049147611E+02  0.00000000000E+00 0.  1.
         25    2    1    2    0    0  0.58654968434E+02  0.13033289139E+02  0.62992459281E+02  0.15239772477E+03  0.12508694833E+03 0.  0.
         23    2    1    2    0    0 -0.58654968434E+02 -0.13033289139E+02  0.31679127534E+02  0.11437215726E+03  0.92017124968E+02 0.  0.
          5    1    3    3  502    0 -0.16239197289E+02  0.23151788647E+02 -0.23828794051E+02  0.37215597161E+02  0.41800000000E+01 0.  1.
         -5    1    3    3    0  502  0.74894165722E+02 -0.10118499508E+02  0.86821253332E+02  0.11518212761E+03  0.41800000000E+01 0.  1.
        -11    1    4    4    0    0  0.13238107811E+02 -0.30144331076E+02  0.22558706618E+02  0.39910192165E+02  0.00000000000E+00 0.  1.
         11    1    4    4    0    0 -0.71893076245E+02  0.17111041937E+02  0.91204209160E+01  0.74461965095E+02  0.00000000000E+00 0. -1.
</event>
<event>
 8    1  0.6493926E-009  0.1570750E+03  0.7561462E-02  0.1192039E+00
         -1   -1    0    0    0  501 -0.00000000000E+00  0.00000000000E+00  0.93553326145E+02  0.93553326145E+02  0.00000000000E+00 0.  1.
          1   -1    0    0  501    0  0.00000000000E+00 -0.00000000000E+00 -0.41036656110E+03  0.41036656110E+03  0.00000000000E+00 0. -1.
         25    2    1    2    0    0  0.68567963559E+02 -0.10735927866E+03 -0.35727298418E+02  0.18207683503E+03  0.12509178096E+03 0.  0.
         23    2    1    2    0    0 -0.68567963559E+02  0.10735927866E+03 -0.28108593653E+03  0.32184305221E+03  0.91356807066E+02 0.  0.
          5    1    3    3  502    0 -0.22521057476E+02 -0.12649971527E+02 -0.43076238404E+02  0.50400937734E+02  0.41800000000E+01 0. -1.
         -5    1    3    3    0  502  0.91089021035E+02 -0.94709307131E+02  0.73489399859E+01  0.13167589730E+03  0.41800000000E+01 0. -1.
        -11    1    4    4    0    0 -0.56908859534E+02  0.12386020480E+03 -0.23840294267E+03  0.27461961274E+03  0.00000000000E+00 0.  1.
         11    1    4    4    0    0 -0.11659104025E+02 -0.16500926143E+02 -0.42682993859E+02  0.47223439467E+02  0.00000000000E+00 0. -1.
</event>
<event>
 8    1  0.6493926E-009  0.1142552E+03  0.7561462E-02  0.1252887E+00
         -1   -1    0    0    0  501 -0.00000000000E+00  0.00000000000E+00  0.42250935985E+02  0.42250935985E+02  0.00000000000E+00 0.  1.
          1   -1    0    0  501    0  0.00000000000E+00 -0.00000000000E+00 -0.52866247000E+03  0.52866247000E+03  0.00000000000E+00 0. -1.
         25    2    1    2    0    0 -0.88541245587E+02 -0.84146376805E+01 -0.35752038750E+03  0.38907393341E+03  0.12508932762E+03 0.  0.
         23    2    1    2    0    0  0.88541245587E+02  0.84146376805E+01 -0.12889114651E+03  0.18183947257E+03  0.92424606241E+02 0.  0.
          5    1    3    3  502    0 -0.68062934806E+02 -0.26223352403E+02 -0.73166953075E+02  0.10339778880E+03  0.41800000000E+01 0. -1.
         -5    1    3    3    0  502 -0.20478310781E+02  0.17808714722E+02 -0.28435343443E+03  0.28567614462E+03  0.41800000000E+01 0. -1.
        -11    1    4    4    0    0  0.81206364714E+02  0.43517103828E+02 -0.98012316872E+02  0.13451626762E+03  0.00000000000E+00 0.  1.
         11    1    4    4    0    0  0.73348808726E+01 -0.35102466148E+02 -0.30878829640E+02  0.47323204953E+02  0.00000000000E+00 0. -1.
</event>
<event>
 8    1  0.6493926E-009  0.6262301E+02  0.7561462E-02  0.1387143E+00
         -1   -1    0    0    0  501 -0.00000000000E+00  0.00000000000E+00  0.10284185077E+03  0.10284185077E+03  0.00000000000E+00 0.  1.
          1   -1    0    0  501    0  0.00000000000E+00 -0.00000000000E+00 -0.22044316558E+03  0.22044316558E+03  0.00000000000E+00 0. -1.
         25    2    1    2    0    0 -0.15376295445E+02  0.86176396291E+01  0.46521996708E+02  0.13461714292E+03  0.12508710891E+03 0.  0.
         23    2    1    2    0    0  0.15376295445E+02 -0.86176396291E+01 -0.16412331151E+03  0.18866787343E+03  0.91369638879E+02 0.  0.
          5    1    3    3  502    0 -0.13302162150E+02 -0.81408026057E+01 -0.41689394332E+02  0.44706802443E+02  0.41800000000E+01 0. -1.
         -5    1    3    3    0  502 -0.20741332956E+01  0.16758442235E+02  0.88211391040E+02  0.89910340474E+02  0.41800000000E+01 0. -1.
        -11    1    4    4    0    0  0.52463213654E+02 -0.13822848345E+02 -0.11241339814E+03  0.12482079957E+03  0.00000000000E+00 0. -1.
         11    1    4    4    0    0 -0.37086918209E+02  0.52052087154E+01 -0.51709913371E+02  0.63847073863E+02  0.00000000000E+00 0.  1.
</event>
<event>
 8    1  0.6493926E-009  0.9283904E+02  0.7561462E-02  0.1296119E+00
          1   -1    0    0  501    0  0.00000000000E+00  0.00000000000E+00  0.17411913321E+03  0.17411913321E+03  0.00000000000E+00 0. -1.
         -1   -1    0    0    0  501 -0.00000000000E+00 -0.00000000000E+00 -0.89025222313E+02  0.89025222313E+02  0.00000000000E+00 0.  1.
         25    2    1    2    0    0  0.33545455900E+02  0.25553601580E+01 -0.96003011674E+01  0.12989332108E+03  0.12509309174E+03 0.  0.
         23    2    1    2    0    0 -0.33545455900E+02 -0.25553601580E+01  0.94694212068E+02  0.13325103445E+03  0.87504382205E+02 0.  0.
          5    1    3    3  502    0  0.77251431953E+02  0.66149784863E+01  0.15468345776E+02  0.79172493963E+02  0.41800000000E+01 0.  1.
         -5    1    3    3    0  502 -0.43705976053E+02 -0.40596183283E+01 -0.25068646943E+02  0.50720827116E+02  0.41800000000E+01 0.  1.
        -11    1    4    4    0    0  0.12951834206E+02  0.93106921491E+01 -0.94799402940E+01  0.18555545413E+02  0.00000000000E+00 0.  1.
         11    1    4    4    0    0 -0.46497290106E+02 -0.11866052307E+02  0.10417415236E+03  0.11469548903E+03  0.00000000000E+00 0. -1.
</event>
<event>
 8    1  0.6493926E-009  0.2000670E+03  0.7561462E-02  0.1149682E+00
          2   -1    0    0  501    0  0.00000000000E+00  0.00000000000E+00  0.28607501331E+03  0.28607501331E+03  0.00000000000E+00 0. -1.
         -2   -1    0    0    0  501 -0.00000000000E+00 -0.00000000000E+00 -0.14096954912E+03  0.14096954912E+03  0.00000000000E+00 0.  1.
         25    2    1    2    0    0 -0.43130670381E+01 -0.16948495126E+03  0.85527095634E+02  0.22738745582E+03  0.12508564956E+03 0.  0.
         23    2    1    2    0    0  0.43130670381E+01  0.16948495126E+03  0.59578368559E+02  0.19965710661E+03  0.87003603193E+02 0.  0.
          5    1    3    3  502    0 -0.63998970599E+02 -0.10174148750E+03  0.50959062189E+02  0.13061966520E+03  0.41800000000E+01 0. -1.
         -5    1    3    3    0  502  0.59685903561E+02 -0.67743463756E+02  0.34568033445E+02  0.96767790622E+02  0.41800000000E+01 0. -1.
        -11    1    4    4    0    0  0.44318216075E+02  0.79834793975E+02  0.18123305058E+02  0.93092173631E+02  0.00000000000E+00 0.  1.
         11    1    4    4    0    0 -0.40005149037E+02  0.89650157285E+02  0.41455063501E+02  0.10656493298E+03  0.00000000000E+00 0. -1.
</event>
<event>
 8    1  0.6493926E-009  0.6377487E+02  0.7561462E-02  0.1382640E+00
          2   -1    0    0  501    0  0.00000000000E+00  0.00000000000E+00  0.46406237693E+03  0.46406237693E+03  0.00000000000E+00 0.  1.
         -2   -1    0    0    0  501 -0.00000000000E+00 -0.00000000000E+00 -0.28924572355E+02  0.28924572355E+02  0.00000000000E+00 0. -1.
         25    2    1    2    0    0 -0.14238847228E+02 -0.31359198390E+02  0.30363508884E+03  0.33019220375E+03  0.12508589109E+03 0.  0.
         23    2    1    2    0    0  0.14238847228E+02  0.31359198390E+02  0.13150271574E+03  0.16279474554E+03  0.89571317028E+02 0.  0.
          5    1    3    3  502    0  0.24812646937E+01  0.11871208699E+01 -0.11694106107E+02  0.12719687420E+02  0.41800000000E+01 0. -1.
         -5    1    3    3    0  502 -0.16720111921E+02 -0.32546319260E+02  0.31532919494E+03  0.31747251633E+03  0.41800000000E+01 0. -1.
        -11    1    4    4    0    0  0.46459196435E+02  0.11472833175E+02  0.35468442108E+02  0.59565872948E+02  0.00000000000E+00 0. -1.
         11    1    4    4    0    0 -0.32220349207E+02  0.19886365215E+02  0.96034273633E+02  0.10322887259E+03  0.00000000000E+00 0.  1.
</event>
<event>
 8    1  0.6493926E-009  0.1006724E+03  0.7561462E-02  0.1278888E+00
          2   -1    0    0  501    0  0.00000000000E+00  0.00000000000E+00  0.52450182567E+03  0.52450182567E+03  0.00000000000E+00 0.  1.
         -2   -1    0    0    0  501 -0.00000000000E+00 -0.00000000000E+00 -0.36046101040E+02  0.36046101040E+02  0.00000000000E+00 0. -1.
         25    2    1    2    0    0 -0.71309234331E+02  0.29449979757E+01  0.17585781676E+03  0.22730116663E+03  0.12508464622E+03 0.  0.
         23    2    1    2    0    0  0.71309234331E+02 -0.29449979757E+01  0.31259790787E+03  0.33324676008E+03  0.90786954942E+02 0.  0.
          5    1    3    3  502    0 -0.49775239783E+02 -0.33916205330E+02  0.16957323154E+02  0.62712890924E+02  0.41800000000E+01 0.  1.
         -5    1    3    3    0  502 -0.21533994548E+02  0.36861203306E+02  0.15890049360E+03  0.16458827570E+03  0.41800000000E+01 0.  1.
        -11    1    4    4    0    0  0.76397862145E+02 -0.21068135714E+02  0.30072324100E+03  0.31099030107E+03  0.00000000000E+00 0.  1.
         11    1    4    4    0    0 -0.50886278135E+01  0.18123137738E+02  0.11874666870E+02  0.22256459012E+02  0.00000000000E+00 0. -1.
</event>
<event>
 8    1  0.6493926E-009  0.1067290E+03  0.7561462E-02  0.1266750E+00
          1   -1    0    0  501    0  0.00000000000E+00  0.00000000000E+00  0.32696431411E+03  0.32696431411E+03  0.00000000000E+00 0. -1.
         -1   -1    0    0    0  501 -0.00000000000E+00 -0.00000000000E+00 -0.50823330024E+02  0.50823330024E+02  0.00000000000E+00 0.  1.
         25    2    1    2    0    0 -0.59079565757E+02  0.19383995404E+02  0.20489379982E+03  0.24798164252E+03  0.12508913405E+03 0.  0.
         23    2    1    2    0    0  0.59079565757E+02 -0.19383995404E+02  0.71247184268E+02  0.12980600161E+03  0.88923014008E+02 0.  0.
          5    1    3    3  502    0  0.12576675681E+02  0.39635766170E+02  0.14908490090E+03  0.15483199542E+03  0.41800000000E+01 0. -1.
         -5    1    3    3    0  502 -0.71656241437E+02 -0.20251770765E+02  0.55808898918E+02  0.93149647098E+02  0.41800000000E+01 0. -1.
        -11    1    4    4    0    0  0.29741398044E+02  0.28328673214E+02  0.59943873414E+02  0.72665896014E+02  0.00000000000E+00 0.  1.
         11    1    4    4    0    0  0.29338167713E+02 -0.47712668618E+02  0.11303310854E+02  0.57140105597E+02  0.00000000000E+00 0. -1.
</event>
<event>
 8    1  0.6493926E-009  0.1114448E+03  0.7561462E-02  0.1257917E+00
         -1   -1    0    0    0  501 -0.00000000000E+00  0.00000000000E+00  0.17600783242E+03  0.17600783242E+03  0.00000000000E+00 0.  1.
          1   -1    0    0  501    0  0.00000000000E+00 -0.00000000000E+00 -0.14723024241E+03  0.14723024241E+03  0.00000000000E+00 0. -1.
         25    2    1    2    0    0  0.40354907777E+02 -0.33419025230E+02  0.12130670797E+03  0.18195835941E+03  0.12509267497E+03 0.  0.
         23    2    1    2    0    0 -0.40354907777E+02  0.33419025230E+02 -0.92529117966E+02  0.14127971542E+03  0.93021344269E+02 0.  0.
          5    1    3    3  502    0  0.46243597110E+01 -0.66852585319E+02  0.21126879188E+02  0.70387998201E+02  0.41800000000E+01 0.  1.
         -5    1    3    3    0  502  0.35730548066E+02  0.33433560089E+02  0.10017982878E+03  0.11157036121E+03  0.41800000000E+01 0.  1.
        -11    1    4    4    0    0  0.54310953848E+01  0.55526577583E+02 -0.44958937081E+02  0.71651961862E+02  0.00000000000E+00 0.  1.
         11    1    4    4    0    0 -0.45786003162E+02 -0.22107552353E+02 -0.47570180886E+02  0.69627753562E+02  0.00000000000E+00 0. -1.
</event>
<event>
 8    1  0.6493926E-009  0.1713872E+03  0.7561462E-02  0.1176409E+00
         -2   -1    0    0    0  501 -0.00000000000E+00  0.00000000000E+00  0.18839206094E+02  0.18839206094E+02  0.00000000000E+00 0.  1.
          2   -1    0    0  501    0  0.00000000000E+00 -0.00000000000E+00 -0.21572971853E+04  0.21572971853E+04  0.00000000000E+00 0. -1.
         25    2    1    2    0    0  0.23738949808E+02  0.15676205760E+03 -0.14296865430E+04  0.14438798547E+04  0.12509014028E+03 0.  0.
         23    2    1    2    0    0 -0.23738949808E+02 -0.15676205760E+03 -0.70877143617E+03  0.73225653664E+03  0.93299551321E+02 0.  0.
          5    1    3    3  502    0 -0.17093225606E+02  0.39134322305E+02 -0.84398027692E+03  0.84507032475E+03  0.41800000000E+01 0. -1.
         -5    1    3    3    0  502  0.40832175414E+02  0.11762773529E+03 -0.58570626610E+03  0.59880952999E+03  0.41800000000E+01 0. -1.
        -11    1    4    4    0    0  0.20669151603E+02 -0.10529741554E+03 -0.31800230704E+03  0.33561916935E+03  0.00000000000E+00 0.  1.
         11    1    4    4    0    0 -0.44408101411E+02 -0.51464642057E+02 -0.39076912913E+03  0.39663736729E+03  0.00000000000E+00 0. -1.
</event>
<event>
 8    1  0.6493926E-009  0.1032873E+03  0.7561462E-02  0.1273531E+00
          2   -1    0    0  501    0  0.00000000000E+00  0.00000000000E+00  0.53151093589E+03  0.53151093589E+03  0.00000000000E+00 0. -1.
         -2   -1    0    0    0  501 -0.00000000000E+00 -0.00000000000E+00 -0.28121276078E+02  0.28121276078E+02  0.00000000000E+00 0.  1.
         25    2    1    2    0    0 -0.13554045624E+02  0.56277839996E+02  0.27617125893E+03  0.30865696735E+03  0.12509057439E+03 0.  0.
         23    2    1    2    0    0  0.13554045624E+02 -0.56277839996E+02  0.22721840088E+03  0.25097524462E+03  0.89495610443E+02 0.  0.
          5    1    3    3  502    0 -0.45163178155E+02  0.84505396124E+01  0.23096845345E+03  0.23553136345E+03  0.41800000000E+01 0. -1.
         -5    1    3    3    0  502  0.31609132531E+02  0.47827300384E+02  0.45202805488E+02  0.73125603897E+02  0.41800000000E+01 0. -1.
        -11    1    4    4    0    0  0.49287598599E+02 -0.40930707089E+02  0.17107583613E+03  0.18267876687E+03  0.00000000000E+00 0.  1.
         11    1    4    4    0    0 -0.35733552975E+02 -0.15347132907E+02  0.56142564752E+02  0.68296477754E+02  0.00000000000E+00 0. -1.
</event>
<event>
 8    1  0.6493926E-009  0.1443264E+03  0.7561462E-02  0.1207623E+00
         -2   -1    0    0    0  501 -0.00000000000E+00  0.00000000000E+00  0.14323982744E+03  0.14323982744E+03  0.00000000000E+00 0.  1.
          2   -1    0    0  501    0  0.00000000000E+00 -0.00000000000E+00 -0.17915101658E+03  0.17915101658E+03  0.00000000000E+00 0. -1.
         25    2    1    2    0    0  0.54352412287E+02  0.10237282731E+03 -0.44617877961E+02  0.17627286175E+03  0.12508791414E+03 0.  0.
         23    2    1    2    0    0 -0.54352412287E+02 -0.10237282731E+03  0.87066888156E+01  0.14611798227E+03  0.88545343300E+02 0.  0.
          5    1    3    3  502    0  0.66398225872E+02  0.12540473888E+03 -0.47718581206E+02  0.14976517728E+03  0.41800000000E+01 0. -1.
         -5    1    3    3    0  502 -0.12045813585E+02 -0.23031911572E+02  0.31007032445E+01  0.26507684474E+02  0.41800000000E+01 0. -1.
        -11    1    4    4    0    0 -0.34308390717E+02 -0.91155254468E+02 -0.29300021455E+02  0.10170957353E+03  0.00000000000E+00 0.  1.
         11    1    4    4    0    0 -0.20044021570E+02 -0.11217572840E+02  0.38006710271E+02  0.44408408739E+02  0.00000000000E+00 0. -1.
</event>
<event>
 8    1  0.6493926E-009  0.7519241E+02  0.7561462E-02  0.1343276E+00
          1   -1    0    0  501    0  0.00000000000E+00  0.00000000000E+00  0.88414919254E+02  0.88414919254E+02  0.00000000000E+00 0. -1.
         -1   -1    0    0    0  501 -0.00000000000E+00 -0.00000000000E+00 -0.15898735751E+03  0.15898735751E+03  0.00000000000E+00 0.  1.
         25    2    1    2    0    0  0.91451794654E+00 -0.34232924415E+01  0.10590626651E+02  0.12558630777E+03  0.12508878468E+03 0.  0.
         23    2    1    2    0    0 -0.91451794654E+00  0.34232924415E+01 -0.81163064907E+02  0.12181596899E+03  0.90769664104E+02 0.  0.
          5    1    3    3  502    0  0.29953532139E+02 -0.32387950187E+02  0.51202744024E+02  0.67715484201E+02  0.41800000000E+01 0.  1.
         -5    1    3    3    0  502 -0.29039014193E+02  0.28964657745E+02 -0.40612117373E+02  0.57870823574E+02  0.41800000000E+01 0.  1.
        -11    1    4    4    0    0  0.18231027456E+02  0.28170837852E+02  0.13368311783E+01  0.33582042597E+02  0.00000000000E+00 0. -1.
         11    1    4    4    0    0 -0.19145545402E+02 -0.24747545411E+02 -0.82499896086E+02  0.88233926393E+02  0.00000000000E+00 0.  1.
</event>
<event>
 8    1  0.6493926E-009  0.1177122E+03  0.7561462E-02  0.1246920E+00
         -2   -1    0    0    0  501 -0.00000000000E+00  0.00000000000E+00  0.11301795194E+03  0.11301795194E+03  0.00000000000E+00 0.  1.
          2   -1    0    0  501    0  0.00000000000E+00 -0.00000000000E+00 -0.17760334559E+03  0.17760334559E+03  0.00000000000E+00 0. -1.
         25    2    1    2    0    0 -0.26452509813E+02 -0.61203092360E+02 -0.99340047066E+02  0.17309242488E+03  0.12508792432E+03 0.  0.
         23    2    1    2    0    0  0.26452509813E+02  0.61203092360E+02  0.34754653418E+02  0.11752887264E+03  0.90330483120E+02 0.  0.
          5    1    3    3  502    0  0.39835432122E+02 -0.28978259497E+02 -0.14090717520E+00  0.49437773318E+02  0.41800000000E+01 0.  1.
         -5    1    3    3    0  502 -0.66287941935E+02 -0.32224832863E+02 -0.99199139890E+02  0.12365465157E+03  0.41800000000E+01 0.  1.
        -11    1    4    4    0    0 -0.25602286706E+02 -0.68316468120E+01  0.10438360963E+02  0.28479955448E+02  0.00000000000E+00 0.  1.
         11    1    4    4    0    0  0.52054796518E+02  0.68034739172E+02  0.24316292455E+02  0.89048917194E+02  0.00000000000E+00 0. -1.
</event>
<event>
 8    1  0.6493926E-009  0.1107857E+03  0.7561462E-02  0.1259122E+00
          1   -1    0    0  501    0  0.00000000000E+00  0.00000000000E+00  0.33329259673E+03  0.33329259673E+03  0.00000000000E+00 0. -1.
         -1   -1    0    0    0  501 -0.00000000000E+00 -0.00000000000E+00 -0.56155672201E+02  0.56155672201E+02  0.00000000000E+00 0.  1.
         25    2    1    2    0    0  0.28291465447E+01 -0.25657996294E+02  0.26553790126E+03  0.29465701909E+03  0.12508415186E+03 0.  0.
         23    2    1    2    0    0 -0.28291465447E+01  0.25657996294E+02  0.11599023273E+02  0.94791249850E+02  0.90468264398E+02 0.  0.
          5    1    3    3  502    0  0.56186467175E+02 -0.43615874273E+02  0.15043272394E+03  0.16645341816E+03  0.41800000000E+01 0.  1.
         -5    1    3    3    0  502 -0.53357320631E+02  0.17957877979E+02  0.11510517732E+03  0.12820360093E+03  0.41800000000E+01 0.  1.
        -11    1    4    4    0    0 -0.19094090003E+01 -0.34074232142E+02  0.11648601030E+01  0.34147562692E+02  0.00000000000E+00 0.  1.
         11    1    4    4    0    0 -0.91973754438E+00  0.59732228435E+02  0.10434163170E+02  0.60643687158E+02  0.00000000000E+00 0. -1.
</event>
<event>
 8    1  0.6493926E-009  0.1200667E+03  0.7561462E-02  0.1242987E+00
          2   -1    0    0  501    0  0.00000000000E+00  0.00000000000E+00  0.15439031947E+04  0.15439031947E+04  0.00000000000E+00 0. -1.
         -2   -1    0    0    0  501 -0.00000000000E+00 -0.00000000000E+00 -0.12215180375E+02  0.12215180375E+02  0.00000000000E+00 0.  1.
         25    2    1    2    0    0 -0.75250638220E+02 -0.14606503843E+02  0.10624408241E+04  0.10725221927E+04  0.12508933032E+03 0.  0.
         23    2    1    2    0    0  0.75250638220E+02  0.14606503843E+02  0.46924719019E+03  0.48359618236E+03  0.88296849258E+02 0.  0.
          5    1    3    3  502    0 -0.35912298589E+02  0.49821695320E+02  0.29425921236E+03  0.30062909203E+03  0.41800000000E+01 0.  1.
         -5    1    3    3    0  502 -0.39338339631E+02 -0.64428199163E+02  0.76818161178E+03  0.77189310069E+03  0.41800000000E+01 0.  1.
        -11    1    4    4    0    0 -0.30881505073E+01 -0.17893925441E+02  0.22715686271E+02  0.29081465644E+02  0.00000000000E+00 0.  1.
         11    1    4    4    0    0  0.78338788727E+02  0.32500429284E+02  0.44653150392E+03  0.45451471672E+03  0.00000000000E+00 0. -1.
</event>
<event>
 8    1  0.6493926E-009  0.2879364E+03  0.7561462E-02  0.1091431E+00
         -2   -1    0    0    0  501 -0.00000000000E+00  0.00000000000E+00  0.35562659544E+03  0.35562659544E+03  0.00000000000E+00 0.  1.
          2   -1    0    0  501    0  0.00000000000E+00 -0.00000000000E+00 -0.26695376258E+03  0.26695376258E+03  0.00000000000E+00 0. -1.
         25    2    1    2    0    0  0.21363952229E+03  0.16527276083E+03 -0.55487002956E+02  0.30279012313E+03  0.12508445233E+03 0.  0.
         23    2    1    2    0    0 -0.21363952229E+03 -0.16527276083E+03  0.14415983581E+03  0.31979023489E+03  0.92340701281E+02 0.  0.
          5    1    3    3  502    0 -0.21793240649E+01 -0.13708608463E+02 -0.12426255738E+02  0.19093444714E+02  0.41800000000E+01 0.  1.
         -5    1    3    3    0  502  0.21581884635E+03  0.17898136929E+03 -0.43060747218E+02  0.28369667842E+03  0.41800000000E+01 0.  1.
        -11    1    4    4    0    0 -0.21538251230E+03 -0.14278784202E+03  0.11479550103E+03  0.28276492266E+03  0.00000000000E+00 0. -1.
         11    1    4    4    0    0  0.17429900090E+01 -0.22484918807E+02  0.29364334787E+02  0.37025312226E+02  0.00000000000E+00 0.  1.
</event>
<event>
 8    1  0.6493926E-009  0.1292398E+03  0.7561462E-02  0.1228588E+00
          4   -1    0    0  501    0  0.00000000000E+00  0.00000000000E+00  0.19440593633E+03  0.19440593633E+03  0.00000000000E+00 0. -1.
         -4   -1    0    0    0  501 -0.00000000000E+00 -0.00000000000E+00 -0.11856512611E+03  0.11856512611E+03  0.00000000000E+00 0.  1.
         25    2    1    2    0    0  0.36566885089E+02 -0.98806081932E+02  0.34320720225E+02  0.16710660421E+03  0.12508767493E+03 0.  0.
         23    2    1    2    0    0 -0.36566885089E+02  0.98806081932E+02  0.41520089996E+02  0.14586445824E+03  0.91938802429E+02 0.  0.
          5    1    3    3  502    0 -0.17172057372E+02  0.15372304289E+02  0.33457355010E+02  0.40841820452E+02  0.41800000000E+01 0.  1.
         -5    1    3    3    0  502  0.53738942461E+02 -0.11417838622E+03  0.86336521473E+00  0.12626478375E+03  0.41800000000E+01 0.  1.
        -11    1    4    4    0    0 -0.76869310437E+01  0.59631457206E+02 -0.23579394291E+02  0.64583182273E+02  0.00000000000E+00 0.  1.
         11    1    4    4    0    0 -0.28879954045E+02  0.39174624727E+02  0.65099484288E+02  0.81281275966E+02  0.00000000000E+00 0. -1.
</event>
<event>
 8    1  0.6493926E-009  0.5873397E+02  0.7561462E-02  0.1403223E+00
          2   -1    0    0  501    0  0.00000000000E+00  0.00000000000E+00  0.14216162971E+03  0.14216162971E+03  0.00000000000E+00 0. -1.
         -2   -1    0    0    0  501 -0.00000000000E+00 -0.00000000000E+00 -0.86838881788E+02  0.86838881788E+02  0.00000000000E+00 0.  1.
         25    2    1    2    0    0  0.13342819762E+02  0.18238914418E+02  0.22787795254E+02  0.12914036527E+03  0.12508901427E+03 0.  0.
         23    2    1    2    0    0 -0.13342819762E+02 -0.18238914418E+02  0.32534952666E+02  0.99860146230E+02  0.91666988724E+02 0.  0.
          5    1    3    3  502    0 -0.24295945211E+02  0.34491525679E+02  0.60099480175E+02  0.73548475271E+02  0.41800000000E+01 0.  1.
         -5    1    3    3    0  502  0.37638764973E+02 -0.16252611262E+02 -0.37311684921E+02  0.55591889994E+02  0.41800000000E+01 0.  1.
        -11    1    4    4    0    0 -0.17323693154E+02 -0.23511336498E+01  0.62940669523E+02  0.65323549000E+02  0.00000000000E+00 0. -1.
         11    1    4    4    0    0  0.39808733919E+01 -0.15887780768E+02 -0.30405716857E+02  0.34536597231E+02  0.00000000000E+00 0.  1.
</event>
<event>
 8    1  0.6493926E-009  0.8033986E+02  0.7561462E-02  0.1328090E+00
          1   -1    0    0  501    0  0.00000000000E+00  0.00000000000E+00  0.98944064697E+02  0.98944064697E+02  0.00000000000E+00 0. -1.
         -1   -1    0    0    0  501 -0.00000000000E+00 -0.00000000000E+00 -0.12737892549E+03  0.12737892549E+03  0.00000000000E+00 0.  1.
         25    2    1    2    0    0 -0.29338214770E+02 -0.12136509615E+01 -0.10478130111E+02  0.12892102576E+03  0.12509450778E+03 0.  0.
         23    2    1    2    0    0  0.29338214770E+02  0.12136509615E+01 -0.17956730681E+02  0.97401964429E+02  0.91118026226E+02 0.  0.
          5    1    3    3  502    0  0.21501610813E+02  0.19702355860E+02 -0.52091985505E+02  0.59846047889E+02  0.41800000000E+01 0. -1.
         -5    1    3    3    0  502 -0.50839825584E+02 -0.20916006822E+02  0.41613855395E+02  0.69074977868E+02  0.41800000000E+01 0. -1.
        -11    1    4    4    0    0  0.24994341542E+01 -0.32723149349E+02 -0.37580051034E+02  0.49893004622E+02  0.00000000000E+00 0.  1.
         11    1    4    4    0    0  0.26838780616E+02  0.33936800311E+02  0.19623320354E+02  0.47508959807E+02  0.00000000000E+00 0. -1.
</event>
<event>
 8    1  0.6493926E-009  0.9570334E+02  0.7561462E-02  0.1289600E+00
          3   -1    0    0  501    0  0.00000000000E+00  0.00000000000E+00  0.15625908500E+02  0.15625908500E+02  0.00000000000E+00 0. -1.
         -3   -1    0    0    0  501 -0.00000000000E+00 -0.00000000000E+00 -0.79727035081E+03  0.79727035081E+03  0.00000000000E+00 0.  1.
         25    2    1    2    0    0  0.21774294649E+02  0.71153321989E+01 -0.50756520124E+03  0.52325418977E+03  0.12509102981E+03 0.  0.
         23    2    1    2    0    0 -0.21774294649E+02 -0.71153321989E+01 -0.27407924107E+03  0.28964206954E+03  0.90820428341E+02 0.  0.
          5    1    3    3  502    0  0.57515892140E+02  0.17573655533E+02 -0.45339388759E+03  0.45738430332E+03  0.41800000000E+01 0.  1.
         -5    1    3    3    0  502 -0.35741597491E+02 -0.10458323334E+02 -0.54171313651E+02  0.65869886449E+02  0.41800000000E+01 0.  1.
        -11    1    4    4    0    0 -0.48576367325E+02  0.22645894348E+02 -0.15967143686E+03  0.16842644609E+03  0.00000000000E+00 0.  1.
         11    1    4    4    0    0  0.26802072675E+02 -0.29761226547E+02 -0.11440780421E+03  0.12121562345E+03  0.00000000000E+00 0. -1.
</event>
<event>
 8    1  0.6493926E-009  0.1835815E+03  0.7561462E-02  0.1164381E+00
         -2   -1    0    0    0  501 -0.00000000000E+00  0.00000000000E+00  0.16181545886E+03  0.16181545886E+03  0.00000000000E+00 0.  1.
          2   -1    0    0  501    0  0.00000000000E+00 -0.00000000000E+00 -0.28403900793E+03  0.28403900793E+03  0.00000000000E+00 0. -1.
         25    2    1    2    0    0  0.16874275265E+03 -0.43414879096E+02 -0.10533476314E+02  0.21474636453E+03  0.12508428621E+03 0.  0.
         23    2    1    2    0    0 -0.16874275265E+03  0.43414879096E+02 -0.11169007275E+03  0.23110810226E+03  0.10284607081E+03 0.  0.
          5    1    3    3  502    0  0.12673315576E+03 -0.48607317723E+02 -0.60893499499E+02  0.14882692897E+03  0.41800000000E+01 0. -1.
         -5    1    3    3    0  502  0.42009596893E+02  0.51924386272E+01  0.50360023185E+02  0.65919435565E+02  0.41800000000E+01 0. -1.
        -11    1    4    4    0    0 -0.50795516977E+02 -0.20383086946E+02 -0.73575408920E+02  0.91700575659E+02  0.00000000000E+00 0.  1.
         11    1    4    4    0    0 -0.11794723567E+03  0.63797966042E+02 -0.38114663828E+02  0.13940752660E+03  0.00000000000E+00 0. -1.
</event>
<event>
 8    1  0.6493926E-009  0.1526195E+03  0.7561462E-02  0.1197291E+00
         -2   -1    0    0    0  501 -0.00000000000E+00  0.00000000000E+00  0.14962697674E+03  0.14962697674E+03  0.00000000000E+00 0.  1.
          2   -1    0    0  501    0  0.00000000000E+00 -0.00000000000E+00 -0.17065815278E+03  0.17065815278E+03  0.00000000000E+00 0. -1.
         25    2    1    2    0    0  0.10632018124E+03 -0.45416042864E+02 -0.30496431830E+02  0.17304381449E+03  0.12509009349E+03 0.  0.
         23    2    1    2    0    0 -0.10632018124E+03  0.45416042864E+02  0.94652557858E+01  0.14724131503E+03  0.90685257329E+02 0.  0.
          5    1    3    3  502    0  0.10251568658E+03  0.15306767257E+02 -0.40273471285E+02  0.11127977358E+03  0.41800000000E+01 0.  1.
         -5    1    3    3    0  502  0.38044946573E+01 -0.60722810121E+02  0.97770394550E+01  0.61764040907E+02  0.41800000000E+01 0.  1.
        -11    1    4    4    0    0  0.36256370404E+01  0.29150229127E+02  0.20096582619E+02  0.35591484024E+02  0.00000000000E+00 0.  1.
         11    1    4    4    0    0 -0.10994581828E+03  0.16265813737E+02 -0.10631326833E+02  0.11164983101E+03  0.00000000000E+00 0. -1.
</event>
<event>
 8    1  0.6493926E-009  0.2176966E+03  0.7561462E-02  0.1135612E+00
          1   -1    0    0  501    0  0.00000000000E+00  0.00000000000E+00  0.51068562120E+03  0.51068562120E+03  0.00000000000E+00 0. -1.
         -1   -1    0    0    0  501 -0.00000000000E+00 -0.00000000000E+00 -0.10359468919E+03  0.10359468919E+03  0.00000000000E+00 0.  1.
         25    2    1    2    0    0  0.17066333501E+03 -0.92588983963E+02  0.13505316553E+03  0.26755510728E+03  0.12509070328E+03 0.  0.
         23    2    1    2    0    0 -0.17066333501E+03  0.92588983963E+02  0.27203776648E+03  0.34672520310E+03  0.92277441489E+02 0.  0.
          5    1    3    3  502    0  0.15157187518E+03 -0.11943625876E+03  0.13276016125E+03  0.23426861947E+03  0.41800000000E+01 0. -1.
         -5    1    3    3    0  502  0.19091459825E+02  0.26847274798E+02  0.22930042818E+01  0.33286487814E+02  0.41800000000E+01 0. -1.
        -11    1    4    4    0    0 -0.34204754193E+02  0.59693427017E+02  0.12970018063E+03  0.14681759872E+03  0.00000000000E+00 0.  1.
         11    1    4    4    0    0 -0.13645858081E+03  0.32895556946E+02  0.14233758585E+03  0.19990760439E+03  0.00000000000E+00 0. -1.
</event>
<event>
 8    1  0.6493926E-009  0.2318091E+03  0.7561462E-02  0.1125373E+00
          3   -1    0    0  501    0  0.00000000000E+00  0.00000000000E+00  0.12018023925E+03  0.12018023925E+03  0.00000000000E+00 0. -1.
         -3   -1    0    0    0  501 -0.00000000000E+00 -0.00000000000E+00 -0.54700888436E+03  0.54700888436E+03  0.00000000000E+00 0.  1.
         25    2    1    2    0    0 -0.20982740092E+03  0.57645499769E+01 -0.34837083114E+03  0.42552472445E+03  0.12509311297E+03 0.  0.
         23    2    1    2    0    0  0.20982740092E+03 -0.57645499769E+01 -0.78457813967E+02  0.24166439917E+03  0.90472565116E+02 0.  0.
          5    1    3    3  502    0 -0.22075492041E+03 -0.10529531945E+02 -0.29588228013E+03  0.36933372717E+03  0.41800000000E+01 0. -1.
         -5    1    3    3    0  502  0.10927519492E+02  0.16294081922E+02 -0.52488551015E+02  0.56190997282E+02  0.41800000000E+01 0. -1.
        -11    1    4    4    0    0  0.94495556883E+02  0.34139262065E+02 -0.63142842497E+02  0.11866725767E+03  0.00000000000E+00 0.  1.
         11    1    4    4    0    0  0.11533184404E+03 -0.39903812042E+02 -0.15314971470E+02  0.12299714150E+03  0.00000000000E+00 0. -1.
</event>
<event>
 8    1  0.6493926E-009  0.6955930E+02  0.7561462E-02  0.1361598E+00
         -1   -1    0    0    0  501 -0.00000000000E+00  0.00000000000E+00  0.73152046981E+02  0.73152046981E+02  0.00000000000E+00 0.  1.
          1   -1    0    0  501    0  0.00000000000E+00 -0.00000000000E+00 -0.18444280275E+03  0.18444280275E+03  0.00000000000E+00 0. -1.
         25    2    1    2    0    0 -0.36178065277E+02 -0.16765421749E+02 -0.54815101534E+02  0.14227342719E+03  0.12508837258E+03 0.  0.
         23    2    1    2    0    0  0.36178065277E+02  0.16765421749E+02 -0.56475654239E+02  0.11532142255E+03  0.92301674972E+02 0.  0.
          5    1    3    3  502    0 -0.48528534689E+02  0.58444529881E+01 -0.87579929876E+02  0.10038372790E+03  0.41800000000E+01 0.  1.
         -5    1    3    3    0  502  0.12350469411E+02 -0.22609874737E+02  0.32764828342E+02  0.41889699290E+02  0.41800000000E+01 0.  1.
        -11    1    4    4    0    0  0.41611448540E+02  0.28901775899E+02 -0.76216851930E+02  0.91519581609E+02  0.00000000000E+00 0. -1.
         11    1    4    4    0    0 -0.54333832624E+01 -0.12136354150E+02  0.19741197691E+02  0.23801840937E+02  0.00000000000E+00 0.  1.
</event>
<event>
 8    1  0.6493926E-009  0.1620852E+03  0.7561462E-02  0.1186362E+00
          1   -1    0    0  501    0  0.00000000000E+00  0.00000000000E+00  0.19152878513E+04  0.19152878513E+04  0.00000000000E+00 0.  1.
         -1   -1    0    0    0  501 -0.00000000000E+00 -0.00000000000E+00 -0.33019620846E+02  0.33019620846E+02  0.00000000000E+00 0. -1.
         25    2    1    2    0    0  0.13359943108E+03 -0.43232657752E+02  0.16597197162E+04  0.16703399618E+04  0.12509268917E+03 0.  0.
         23    2    1    2    0    0 -0.13359943108E+03  0.43232657752E+02  0.22254851419E+03  0.27796751030E+03  0.89555708552E+02 0.  0.
          5    1    3    3  502    0  0.35974514239E+02 -0.62659942891E+02  0.10539915219E+04  0.10564733952E+04  0.41800000000E+01 0. -1.
         -5    1    3    3    0  502  0.97624916846E+02  0.19427285139E+02  0.60572819430E+03  0.61386656659E+03  0.41800000000E+01 0. -1.
        -11    1    4    4    0    0 -0.28010590411E+02 -0.14804567479E+02  0.92740534151E+01  0.33011762452E+02  0.00000000000E+00 0. -1.
         11    1    4    4    0    0 -0.10558884067E+03  0.58037225231E+02  0.21327446077E+03  0.24495574785E+03  0.00000000000E+00 0.  1.
</event>
<event>
 8    1  0.6493926E-009  0.1532811E+03  0.7561462E-02  0.1196498E+00
          2   -1    0    0  501    0  0.00000000000E+00  0.00000000000E+00  0.57435686176E+03  0.57435686176E+03  0.00000000000E+00 0.  1.
         -2   -1    0    0    0  501 -0.00000000000E+00 -0.00000000000E+00 -0.45346523005E+02  0.45346523005E+02  0.00000000000E+00 0. -1.
         25    2    1    2    0    0 -0.23184271782E+02 -0.11556477966E+03  0.27212916435E+03  0.32186083751E+03  0.12508951946E+03 0.  0.
         23    2    1    2    0    0  0.23184271782E+02  0.11556477966E+03  0.25688117441E+03  0.29784254726E+03  0.93965506620E+02 0.  0.
          5    1    3    3  502    0  0.40402002398E+02 -0.49594853104E+02  0.49226989288E+02  0.80825368088E+02  0.41800000000E+01 0.  1.
         -5    1    3    3    0  502 -0.63586274179E+02 -0.65969926556E+02  0.22290217506E+03  0.24103546942E+03  0.41800000000E+01 0.  1.
        -11    1    4    4    0    0 -0.26048873011E+02  0.92998611047E+02  0.16372845644E+03  0.19009022303E+03  0.00000000000E+00 0. -1.
         11    1    4    4    0    0  0.49233144792E+02  0.22566168613E+02  0.93152717971E+02  0.10775232423E+03  0.00000000000E+00 0.  1.
</event>
<event>
 8    1  0.6493926E-009  0.1002083E+03  0.7561462E-02  0.1279859E+00
          1   -1    0    0  501    0  0.00000000000E+00  0.00000000000E+00  0.41312003623E+03  0.41312003623E+03  0.00000000000E+00 0. -1.
         -1   -1    0    0    0  501 -0.00000000000E+00 -0.00000000000E+00 -0.37159051548E+02  0.37159051548E+02  0.00000000000E+00 0.  1.
         25    2    1    2    0    0 -0.31845823286E+02  0.34025867207E+02  0.18252502860E+03  0.22613059411E+03  0.12509094062E+03 0.  0.
         23    2    1    2    0    0  0.31845823286E+02 -0.34025867207E+02  0.19343595608E+03  0.22414849367E+03  0.10321415606E+03 0.  0.
          5    1    3    3  502    0  0.26371398474E+02 -0.28106431934E+00 -0.46351477477E+01  0.27101414156E+02  0.41800000000E+01 0. -1.
         -5    1    3    3    0  502 -0.58217221760E+02  0.34306931527E+02  0.18716017635E+03  0.19902917995E+03  0.41800000000E+01 0. -1.
        -11    1    4    4    0    0 -0.29679745418E+02 -0.33129126418E+02  0.44114869743E+02  0.62646213276E+02  0.00000000000E+00 0. -1.
         11    1    4    4    0    0  0.61525568704E+02 -0.89674078906E+00  0.14932108634E+03  0.16150228040E+03  0.00000000000E+00 0.  1.
</event>
<event>
 8    1  0.6493926E-009  0.1515689E+03  0.7561462E-02  0.1198558E+00
         -1   -1    0    0    0  501 -0.00000000000E+00  0.00000000000E+00  0.55064361097E+02  0.55064361097E+02  0.00000000000E+00 0.  1.
          1   -1    0    0  501    0  0.00000000000E+00 -0.00000000000E+00 -0.53981729922E+03  0.53981729922E+03  0.00000000000E+00 0. -1.
         25    2    1    2    0    0 -0.74096401592E+02  0.90353081947E+02 -0.14683374228E+03  0.22552502856E+03  0.12508970577E+03 0.  0.
         23    2    1    2    0    0  0.74096401592E+02 -0.90353081947E+02 -0.33791919584E+03  0.36935663176E+03  0.92633591947E+02 0.  0.
          5    1    3    3  502    0  0.24168695759E+02  0.46850715211E+02 -0.14175291835E+02  0.54749672776E+02  0.41800000000E+01 0.  1.
         -5    1    3    3    0  502 -0.98265097351E+02  0.43502366736E+02 -0.13265845044E+03  0.17077535578E+03  0.41800000000E+01 0.  1.
        -11    1    4    4    0    0  0.80282960135E+02 -0.35964211322E+02 -0.25718990026E+03  0.27181873184E+03  0.00000000000E+00 0. -1.
         11    1    4    4    0    0 -0.61865585433E+01 -0.54388870625E+02 -0.80729295584E+02  0.97537899916E+02  0.00000000000E+00 0.  1.
</event>
<event>
 8    1  0.6493926E-009  0.7285003E+02  0.7561462E-02  0.1350661E+00
         -1   -1    0    0    0  501 -0.00000000000E+00  0.00000000000E+00  0.16081098307E+02  0.16081098307E+02  0.00000000000E+00 0.  1.
          1   -1    0    0  501    0  0.00000000000E+00 -0.00000000000E+00 -0.66789773618E+03  0.66789773618E+03  0.00000000000E+00 0. -1.
         25    2    1    2    0    0 -0.25382597551E+02 -0.34843127854E+02 -0.42485613960E+03  0.44498101135E+03  0.12508813410E+03 0.  0.
         23    2    1    2    0    0  0.25382597551E+02  0.34843127854E+02 -0.22696049827E+03  0.23899782313E+03  0.61241912683E+02 0.  0.
          5    1    3    3  502    0  0.77144080186E+01 -0.42776005150E+02 -0.40061454488E+03  0.40298732571E+03  0.41800000000E+01 0. -1.
         -5    1    3    3    0  502 -0.33097005570E+02  0.79328772967E+01 -0.24241594718E+02  0.41993685649E+02  0.41800000000E+01 0. -1.
        -11    1    4    4    0    0 -0.12324476743E+02  0.26352614678E+02 -0.49842498158E+02  0.57711590257E+02  0.00000000000E+00 0.  1.
         11    1    4    4    0    0  0.37707074294E+02  0.84905131759E+01 -0.17711800011E+03  0.18128623287E+03  0.00000000000E+00 0. -1.
</event>
<event>
 8    1  0.6493926E-009  0.1265510E+03  0.7561462E-02  0.1232665E+00
          2   -1    0    0  501    0  0.00000000000E+00  0.00000000000E+00  0.76326343704E+02  0.76326343704E+02  0.00000000000E+00 0.  1.
         -2   -1    0    0    0  501 -0.00000000000E+00 -0.00000000000E+00 -0.48205751112E+03  0.48205751112E+03  0.00000000000E+00 0. -1.
         25    2    1    2    0    0 -0.76204810281E+02  0.36852124138E+02 -0.40558594709E+03  0.43279824895E+03  0.12509640945E+03 0.  0.
         23    2    1    2    0    0  0.76204810281E+02 -0.36852124138E+02 -0.14522032304E+00  0.12558560587E+03  0.92771068490E+02 0.  0.
          5    1    3    3  502    0  0.21600337652E+02 -0.51983065549E+01 -0.13142995340E+02  0.26149717097E+02  0.41800000000E+01 0.  1.
         -5    1    3    3    0  502 -0.97805147933E+02  0.42050430692E+02 -0.39244295175E+03  0.40664853186E+03  0.41800000000E+01 0.  1.
        -11    1    4    4    0    0 -0.19378720235E+02 -0.18158930536E+02 -0.83693589648E+01  0.27844707318E+02  0.00000000000E+00 0.  1.
         11    1    4    4    0    0  0.95583530516E+02 -0.18693193602E+02  0.82241386418E+01  0.97740898549E+02  0.00000000000E+00 0. -1.
</event>
<event>
 8    1  0.6493926E-009  0.1218422E+03  0.7561462E-02  0.1240089E+00
         -1   -1    0    0    0  501 -0.00000000000E+00  0.00000000000E+00  0.39610559110E+03  0.39610559110E+03  0.00000000000E+00 0.  1.
          1   -1    0    0  501    0  0.00000000000E+00 -0.00000000000E+00 -0.70535383937E+02  0.70535383937E+02  0.00000000000E+00 0. -1.
         25    2    1    2    0    0 -0.31916558695E+02  0.90463046225E+02  0.28761398029E+03  0.32799304969E+03  0.12512157902E+03 0.  0.
         23    2    1    2    0    0  0.31916558695E+02 -0.90463046225E+02  0.37956226877E+02  0.13864792535E+03  0.92630138690E+02 0.  0.
          5    1    3    3  502    0  0.14568964014E+02  0.90073479325E+02  0.10343474855E+03  0.13799168815E+03  0.41800000000E+01 0.  1.
         -5    1    3    3    0  502 -0.46485522709E+02  0.38956690004E+00  0.18417923174E+03  0.19000136154E+03  0.41800000000E+01 0.  1.
        -11    1    4    4    0    0 -0.10927862170E+02 -0.26696541446E+02 -0.25887106397E+02  0.38759073446E+02  0.00000000000E+00 0. -1.
         11    1    4    4    0    0  0.42844420866E+02 -0.63766504780E+02  0.63843333274E+02  0.99888851904E+02  0.00000000000E+00 0.  1.
</event>
<event>
 8    1  0.6493926E-009  0.1170476E+03  0.7561462E-02  0.1248049E+00
         -1   -1    0    0    0  501 -0.00000000000E+00  0.00000000000E+00  0.15556737087E+03  0.15556737087E+03  0.00000000000E+00 0.  1.
          1   -1    0    0  501    0  0.00000000000E+00 -0.00000000000E+00 -0.12023308996E+03  0.12023308996E+03  0.00000000000E+00 0. -1.
         25    2    1    2    0    0 -0.31048098061E+02 -0.25944461599E+02 -0.51609768576E+02  0.14124673859E+03  0.12509985400E+03 0.  0.
         23    2    1    2    0    0  0.31048098061E+02  0.25944461599E+02  0.86944049485E+02  0.13455372224E+03  0.94383986711E+02 0.  0.
          5    1    3    3  502    0 -0.67298412648E+02 -0.53177350861E+02 -0.35970424845E+02  0.93103441682E+02  0.41800000000E+01 0.  1.
         -5    1    3    3    0  502  0.36250314587E+02  0.27232889262E+02 -0.15639343731E+02  0.48143296912E+02  0.41800000000E+01 0.  1.
        -11    1    4    4    0    0 -0.82451759738E+01  0.53860784150E+02  0.45683652833E+02  0.71105296091E+02  0.00000000000E+00 0.  1.
         11    1    4    4    0    0  0.39293274035E+02 -0.27916322551E+02  0.41260396651E+02  0.63448426151E+02  0.00000000000E+00 0. -1.
</event>
<event>
 8    1  0.6493926E-009  0.2069583E+03  0.7561462E-02  0.1143998E+00
         -1   -1    0    0    0  501 -0.00000000000E+00  0.00000000000E+00  0.86408664294E+02  0.86408664294E+02  0.00000000000E+00 0.  1.
          1   -1    0    0  501    0  0.00000000000E+00 -0.00000000000E+00 -0.62978211713E+03  0.62978211713E+03  0.00000000000E+00 0. -1.
         25    2    1    2    0    0 -0.16321019788E+03 -0.87815918866E+02 -0.14205600651E+03  0.26490901133E+03  0.12509065113E+03 0.  0.
         23    2    1    2    0    0  0.16321019788E+03  0.87815918866E+02 -0.40131744633E+03  0.45128177009E+03  0.90831376714E+02 0.  0.
          5    1    3    3  502    0 -0.54521300717E+02 -0.98484698942E+02 -0.55968815485E+02  0.12578469249E+03  0.41800000000E+01 0. -1.
         -5    1    3    3    0  502 -0.10868889716E+03  0.10668780076E+02 -0.86087191023E+02  0.13912431884E+03  0.41800000000E+01 0. -1.
        -11    1    4    4    0    0  0.12118527102E+03  0.38431039770E+02 -0.17799371251E+03  0.21873403124E+03  0.00000000000E+00 0.  1.
         11    1    4    4    0    0  0.42024926862E+02  0.49384879096E+02 -0.22332373382E+03  0.23254773885E+03  0.00000000000E+00 0. -1.
</event>
<event>
 8    1  0.6493926E-009  0.1027572E+03  0.7561462E-02  0.1274603E+00
         -2   -1    0    0    0  501 -0.00000000000E+00  0.00000000000E+00  0.83290391884E+02  0.83290391884E+02  0.00000000000E+00 0.  1.
          2   -1    0    0  501    0  0.00000000000E+00 -0.00000000000E+00 -0.18269920190E+03  0.18269920190E+03  0.00000000000E+00 0. -1.
         25    2    1    2    0    0  0.36913047278E+02 -0.36056688058E+02 -0.55027059444E+02  0.14607939012E+03  0.12509417706E+03 0.  0.
         23    2    1    2    0    0 -0.36913047278E+02  0.36056688058E+02 -0.44381750578E+02  0.11991020367E+03  0.98722132001E+02 0.  0.
          5    1    3    3  502    0 -0.43583318441E+02 -0.86333101489E+01  0.14080356583E+00  0.44626583065E+02  0.41800000000E+01 0. -1.
         -5    1    3    3    0  502  0.80496365719E+02 -0.27423377909E+02 -0.55167863009E+02  0.10145280705E+03  0.41800000000E+01 0. -1.
        -11    1    4    4    0    0 -0.51605416585E+02  0.24905492587E+02 -0.68654103579E+02  0.89424764580E+02  0.00000000000E+00 0. -1.
         11    1    4    4    0    0  0.14692369307E+02  0.11151195471E+02  0.24272353002E+02  0.30485439090E+02  0.00000000000E+00 0.  1.
</event>
<event>
 8    1  0.6493926E-009  0.1056021E+03  0.7561462E-02  0.1268938E+00
          1   -1    0    0  501    0  0.00000000000E+00  0.00000000000E+00  0.36242819021E+03  0.36242819021E+03  0.00000000000E+00 0. -1.
         -1   -1    0    0    0  501 -0.00000000000E+00 -0.00000000000E+00 -0.32836068340E+02  0.32836068340E+02  0.00000000000E+00 0.  1.
         25    2    1    2    0    0 -0.28285549493E+02  0.44582522348E+02  0.20424450840E+03  0.24525707569E+03  0.12509012894E+03 0.  0.
         23    2    1    2    0    0  0.28285549493E+02 -0.44582522348E+02  0.12534761347E+03  0.15000718286E+03  0.63264975272E+02 0.  0.
          5    1    3    3  502    0  0.10542842822E+01  0.82987949191E+02  0.15648880311E+03  0.17718444945E+03  0.41800000000E+01 0. -1.
         -5    1    3    3    0  502 -0.29339833775E+02 -0.38405426842E+02  0.47755705285E+02  0.68072626247E+02  0.41800000000E+01 0. -1.
        -11    1    4    4    0    0 -0.18394368697E+02 -0.18646724350E+02  0.61010678042E+02  0.66395451379E+02  0.00000000000E+00 0. -1.
         11    1    4    4    0    0  0.46679918190E+02 -0.25935797998E+02  0.64336935432E+02  0.83611731478E+02  0.00000000000E+00 0.  1.
</event>
<event>
 8    1  0.6493926E-009  0.9844117E+02  0.7561462E-02  0.1283609E+00
         -1   -1    0    0    0  501 -0.00000000000E+00  0.00000000000E+00  0.43275545162E+02  0.43275545162E+02  0.00000000000E+00 0.  1.
          1   -1    0    0  501    0  0.00000000000E+00 -0.00000000000E+00 -0.48859073314E+03  0.48859073314E+03  0.00000000000E+00 0. -1.
         25    2    1    2    0    0  0.26526758567E+02  0.27098855280E+02 -0.40630565565E+03  0.42681437741E+03  0.12509280585E+03 0.  0.
         23    2    1    2    0    0 -0.26526758567E+02 -0.27098855280E+02 -0.39009532334E+02  0.10505190089E+03  0.89867354424E+02 0.  0.
          5    1    3    3  502    0 -0.35777007509E+02  0.17469126991E+02 -0.30361946463E+03  0.30624731242E+03  0.41800000000E+01 0.  1.
         -5    1    3    3    0  502  0.62303766076E+02  0.96297282891E+01 -0.10268619102E+03  0.12056706499E+03  0.41800000000E+01 0.  1.
        -11    1    4    4    0    0  0.31435240004E+02 -0.12986651703E+02 -0.44155118635E+00  0.34015032031E+02  0.00000000000E+00 0.  1.
         11    1    4    4    0    0 -0.57961998571E+02 -0.14112203576E+02 -0.38567981147E+02  0.71036868863E+02  0.00000000000E+00 0. -1.
</event>
<event>
 8    1  0.6493926E-009  0.1592889E+03  0.7561462E-02  0.1189502E+00
          1   -1    0    0  501    0  0.00000000000E+00  0.00000000000E+00  0.15832274373E+03  0.15832274373E+03  0.00000000000E+00 0. -1.
         -1   -1    0    0    0  501 -0.00000000000E+00 -0.00000000000E+00 -0.20756483685E+03  0.20756483685E+03  0.00000000000E+00 0.  1.
         25    2    1    2    0    0  0.12319043037E+03 -0.62732318367E+02 -0.67586228742E+02  0.19830997484E+03  0.12509085459E+03 0.  0.
         23    2    1    2    0    0 -0.12319043037E+03  0.62732318367E+02  0.18344135618E+02  0.16757760574E+03  0.92922121867E+02 0.  0.
          5    1    3    3  502    0  0.18446833873E+02  0.33025706258E+02  0.57796674949E+01  0.38494933565E+02  0.41800000000E+01 0. -1.
         -5    1    3    3    0  502  0.10474359650E+03 -0.95758024625E+02 -0.73365896237E+02  0.15981504127E+03  0.41800000000E+01 0. -1.
        -11    1    4    4    0    0 -0.25878564461E+02  0.91351247177E+01 -0.34886936747E+02  0.44387486500E+02  0.00000000000E+00 0.  1.
         11    1    4    4    0    0 -0.97311865907E+02  0.53597193649E+02  0.53231072366E+02  0.12319011924E+03  0.00000000000E+00 0. -1.
</event>
<event>
 8    1  0.6493926E-009  0.1427948E+03  0.7561462E-02  0.1209617E+00
          1   -1    0    0  501    0  0.00000000000E+00  0.00000000000E+00  0.13503471662E+03  0.13503471662E+03  0.00000000000E+00 0. -1.
         -1   -1    0    0    0  501 -0.00000000000E+00 -0.00000000000E+00 -0.15675683488E+03  0.15675683488E+03  0.00000000000E+00 0.  1.
         25    2    1    2    0    0 -0.15031754157E+02 -0.95212174115E+02 -0.17882788289E+02  0.15892896159E+03  0.12508920410E+03 0.  0.
         23    2    1    2    0    0  0.15031754157E+02  0.95212174115E+02 -0.38393299705E+01  0.13286258992E+03  0.91358719412E+02 0.  0.
          5    1    3    3  502    0 -0.40252291222E+02 -0.11606286696E+03 -0.24368319382E+02  0.12530811396E+03  0.41800000000E+01 0. -1.
         -5    1    3    3    0  502  0.25220537066E+02  0.20850692841E+02  0.64855310928E+01  0.33620847630E+02  0.41800000000E+01 0. -1.
        -11    1    4    4    0    0 -0.18833460603E+02  0.93925160551E+02 -0.15463474747E+02  0.97034808570E+02  0.00000000000E+00 0.  1.
         11    1    4    4    0    0  0.33865214759E+02  0.12870135639E+01  0.11624144777E+02  0.35827781349E+02  0.00000000000E+00 0. -1.
</event>
<event>
 8    1  0.6493926E-009  0.1010743E+03  0.7561462E-02  0.1278053E+00
          1   -1    0    0  501    0  0.00000000000E+00  0.00000000000E+00  0.26424318433E+03  0.26424318433E+03  0.00000000000E+00 0. -1.
         -1   -1    0    0    0  501 -0.00000000000E+00 -0.00000000000E+00 -0.47009058700E+02  0.47009058700E+02  0.00000000000E+00 0.  1.
         25    2    1    2    0    0 -0.21383237621E+02  0.12212232346E+02  0.12058777466E+03  0.17548604964E+03  0.12509021044E+03 0.  0.
         23    2    1    2    0    0  0.21383237621E+02 -0.12212232346E+02  0.96646350965E+02  0.13576619339E+03  0.92117102881E+02 0.  0.
          5    1    3    3  502    0  0.60755860439E+01  0.62216006913E+02  0.32828305864E+02  0.70731282527E+02  0.41800000000E+01 0.  1.
         -5    1    3    3    0  502 -0.27458823664E+02 -0.50003774567E+02  0.87759468799E+02  0.10475476711E+03  0.41800000000E+01 0.  1.
        -11    1    4    4    0    0  0.94588778707E+01  0.33627172164E+02  0.76876589521E+02  0.84440908894E+02  0.00000000000E+00 0. -1.
         11    1    4    4    0    0  0.11924359750E+02 -0.45839404510E+02  0.19769761443E+02  0.51325284498E+02  0.00000000000E+00 0.  1.
</event>
<event>
 8    1  0.6493926E-009  0.2761744E+03  0.7561462E-02  0.1097797E+00
         -2   -1    0    0    0  501 -0.00000000000E+00  0.00000000000E+00  0.98194181943E+02  0.98194181943E+02  0.00000000000E+00 0.  1.
          2   -1    0    0  501    0  0.00000000000E+00 -0.00000000000E+00 -0.91835807911E+03  0.91835807911E+03  0.00000000000E+00 0. -1.
         25    2    1    2    0    0  0.26178766962E+03  0.67123597651E+01 -0.58374626992E+03  0.65190678340E+03  0.12507960210E+03 0.  0.
         23    2    1    2    0    0 -0.26178766962E+03 -0.67123597651E+01 -0.23641762725E+03  0.36464547765E+03  0.92169355841E+02 0.  0.
          5    1    3    3  502    0  0.21510131914E+03  0.52531418480E+02 -0.40622724086E+03  0.46267285531E+03  0.41800000000E+01 0.  1.
         -5    1    3    3    0  502  0.46686350480E+02 -0.45819058715E+02 -0.17751902906E+03  0.18923392809E+03  0.41800000000E+01 0.  1.
        -11    1    4    4    0    0 -0.56348522773E+02  0.16187136679E+02 -0.12582699066E+02  0.59962519362E+02  0.00000000000E+00 0.  1.
         11    1    4    4    0    0 -0.20543914685E+03 -0.22899496444E+02 -0.22383492818E+03  0.30468295829E+03  0.00000000000E+00 0. -1.
</event>
<event>
 8    1  0.6493926E-009  0.7914465E+02  0.7561462E-02  0.1331496E+00
         -1   -1    0    0    0  501 -0.00000000000E+00  0.00000000000E+00  0.60372165882E+03  0.60372165882E+03  0.00000000000E+00 0.  1.
          1   -1    0    0  501    0  0.00000000000E+00 -0.00000000000E+00 -0.27975663841E+02  0.27975663841E+02  0.00000000000E+00 0. -1.
         25    2    1    2    0    0 -0.27966705487E+02 -0.11673998575E+02  0.49499723915E+03  0.51145707478E+03  0.12509058203E+03 0.  0.
         23    2    1    2    0    0  0.27966705487E+02  0.11673998575E+02  0.80748755820E+02  0.12024024788E+03  0.83779095152E+02 0.  0.
          5    1    3    3  502    0 -0.67034910514E+02  0.67259368213E+01  0.41498396146E+03  0.42043795990E+03  0.41800000000E+01 0.  1.
         -5    1    3    3    0  502  0.39068205026E+02 -0.18399935397E+02  0.80013277692E+02  0.91019114881E+02  0.41800000000E+01 0.  1.
        -11    1    4    4    0    0  0.35838550616E+01  0.20994811554E+02  0.90045806855E+02  0.92530392096E+02  0.00000000000E+00 0.  1.
         11    1    4    4    0    0  0.24382850426E+02 -0.93208129783E+01 -0.92970510351E+01  0.27709855781E+02  0.00000000000E+00 0. -1.
</event>
<event>
 8    1  0.6493926E-009  0.2259419E+03  0.7561462E-02  0.1129529E+00
          4   -1    0    0  501    0  0.00000000000E+00  0.00000000000E+00  0.41568679032E+03  0.41568679032E+03  0.00000000000E+00 0. -1.
         -4   -1    0    0    0  501 -0.00000000000E+00 -0.00000000000E+00 -0.17508419698E+03  0.17508419698E+03  0.00000000000E+00 0.  1.
         25    2    1    2    0    0  0.21896967093E+03 -0.44988748615E+02  0.23237313522E+03  0.34585653859E+03  0.12509103496E+03 0.  0.
         23    2    1    2    0    0 -0.21896967093E+03  0.44988748615E+02  0.82294581225E+01  0.24491444871E+03  0.99717896655E+02 0.  0.
          5    1    3    3  502    0  0.16601553899E+03 -0.44971645840E+02  0.90573571089E+02  0.19443418500E+03  0.41800000000E+01 0. -1.
         -5    1    3    3    0  502  0.52954131943E+02 -0.17102775086E-01  0.14179956413E+03  0.15142235360E+03  0.41800000000E+01 0. -1.
        -11    1    4    4    0    0 -0.11642432901E+03  0.46377700873E+01  0.50363564992E+02  0.12693550321E+03  0.00000000000E+00 0. -1.
         11    1    4    4    0    0 -0.10254534192E+03  0.40350978528E+02 -0.42134106869E+02  0.11797894549E+03  0.00000000000E+00 0.  1.
</event>
<event>
 8    1  0.6493926E-009  0.8942801E+02  0.7561462E-02  0.1304243E+00
         -2   -1    0    0    0  501 -0.00000000000E+00  0.00000000000E+00  0.14019649674E+02  0.14019649674E+02  0.00000000000E+00 0.  1.
          2   -1    0    0  501    0  0.00000000000E+00 -0.00000000000E+00 -0.11360381626E+04  0.11360381626E+04  0.00000000000E+00 0. -1.
         25    2    1    2    0    0 -0.14907643437E+02  0.54586376600E+02 -0.77152497661E+03  0.78364561603E+03  0.12509097353E+03 0.  0.
         23    2    1    2    0    0  0.14907643437E+02 -0.54586376600E+02 -0.35049353630E+03  0.36641219622E+03  0.90610530330E+02 0.  0.
          5    1    3    3  502    0 -0.43898705079E+02  0.44696698390E+02 -0.16833126535E+03  0.17966017491E+03  0.41800000000E+01 0. -1.
         -5    1    3    3    0  502  0.28991061642E+02  0.98896782102E+01 -0.60319371125E+03  0.60398544112E+03  0.41800000000E+01 0. -1.
        -11    1    4    4    0    0  0.21985079026E+02  0.70678877505E+01 -0.21287874496E+02  0.31408157182E+02  0.00000000000E+00 0.  1.
         11    1    4    4    0    0 -0.70774355882E+01 -0.61654264351E+02 -0.32920566180E+03  0.33500403904E+03  0.00000000000E+00 0. -1.
</event>
<event>
 8    1  0.6493926E-009  0.1386013E+03  0.7561462E-02  0.1215223E+00
          2   -1    0    0  501    0  0.00000000000E+00  0.00000000000E+00  0.26762266880E+04  0.26762266880E+04  0.00000000000E+00 0. -1.
         -2   -1    0    0    0  501 -0.00000000000E+00 -0.00000000000E+00 -0.12359288096E+02  0.12359288096E+02  0.00000000000E+00 0.  1.
         25    2    1    2    0    0 -0.40001834149E+02 -0.10739463037E+03  0.20804011859E+04  0.20873068732E+04  0.12508850983E+03 0.  0.
         23    2    1    2    0    0  0.40001834149E+02  0.10739463037E+03  0.58346621408E+03  0.60127910296E+03  0.89274763043E+02 0.  0.
          5    1    3    3  502    0 -0.25975092553E+02 -0.12838892734E+03  0.19511358884E+04  0.19555324465E+04  0.41800000000E+01 0. -1.
         -5    1    3    3    0  502 -0.14026741596E+02  0.20994296964E+02  0.12926529750E+03  0.13177442666E+03  0.41800000000E+01 0. -1.
        -11    1    4    4    0    0  0.25171523421E+02  0.10153267635E+03  0.57237294913E+03  0.58185331730E+03  0.00000000000E+00 0. -1.
         11    1    4    4    0    0  0.14830310728E+02  0.58619540220E+01  0.11093264949E+02  0.19425785659E+02  0.00000000000E+00 0.  1.
</event>
<event>
 8    1  0.6493926E-009  0.2771686E+03  0.7561462E-02  0.1097246E+00
          1   -1    0    0  501    0  0.00000000000E+00  0.00000000000E+00  0.34565710475E+03  0.34565710475E+03  0.00000000000E+00 0. -1.
         -1   -1    0    0    0  501 -0.00000000000E+00 -0.00000000000E+00 -0.26244490915E+03  0.26244490915E+03  0.00000000000E+00 0.  1.
         25    2    1    2    0    0 -0.12727529815E+03 -0.24586147533E+03  0.88436522511E+02  0.31641049994E+03  0.12509084453E+03 0.  0.
         23    2    1    2    0    0  0.12727529815E+03  0.24586147533E+03 -0.52243269122E+01  0.29169151396E+03  0.91704848035E+02 0.  0.
          5    1    3    3  502    0 -0.61435325851E+02 -0.13437869205E+03  0.11108681110E+03  0.18490452710E+03  0.41800000000E+01 0. -1.
         -5    1    3    3    0  502 -0.65839972303E+02 -0.11148278328E+03 -0.22650288588E+02  0.13150597284E+03  0.41800000000E+01 0. -1.
        -11    1    4    4    0    0  0.43889735281E+01  0.12384411228E+02  0.22851871205E+02  0.26359907961E+02  0.00000000000E+00 0. -1.
         11    1    4    4    0    0  0.12288632463E+03  0.23347706410E+03 -0.28076198118E+02  0.26533160600E+03  0.00000000000E+00 0.  1.
</event>
<event>
 8    1  0.6493926E-009  0.1214033E+03  0.7561462E-02  0.1240800E+00
         -1   -1    0    0    0  501 -0.00000000000E+00  0.00000000000E+00  0.29840942554E+02  0.29840942554E+02  0.00000000000E+00 0. -1.
          1   -1    0    0  501    0  0.00000000000E+00 -0.00000000000E+00 -0.71556789722E+03  0.71556789722E+03  0.00000000000E+00 0.  1.
         25    2    1    2    0    0 -0.28589427584E+02 -0.91193865143E+02 -0.42712102404E+03  0.45520902263E+03  0.12509679730E+03 0.  0.
         23    2    1    2    0    0  0.28589427584E+02  0.91193865143E+02 -0.25860593063E+03  0.29019981715E+03  0.90582725224E+02 0.  0.
          5    1    3    3  502    0 -0.17951065129E+02 -0.10190747077E+03 -0.18056009638E+03  0.20815089272E+03  0.41800000000E+01 0. -1.
         -5    1    3    3    0  502 -0.10638362455E+02  0.10713605626E+02 -0.24656092766E+03  0.24705812990E+03  0.41800000000E+01 0. -1.
        -11    1    4    4    0    0 -0.23639133774E+02  0.55484865547E+02 -0.76490788196E+02  0.97407492675E+02  0.00000000000E+00 0. -1.
         11    1    4    4    0    0  0.52228561358E+02  0.35708999596E+02 -0.18211514244E+03  0.19279232448E+03  0.00000000000E+00 0.  1.
</event>
<event>
 8    1  0.6493926E-009  0.9170955E+02  0.7561462E-02  0.1298764E+00
          1   -1    0    0  501    0  0.00000000000E+00  0.00000000000E+00  0.16286982443E+03  0.16286982443E+03  0.00000000000E+00 0. -1.
         -1   -1    0    0    0  501 -0.00000000000E+00 -0.00000000000E+00 -0.80778454587E+02  0.80778454587E+02  0.00000000000E+00 0.  1.
         25    2    1    2    0    0 -0.37901900816E+02  0.85203534820E+01  0.48284741774E+02  0.13960443727E+03  0.12509529211E+03 0.  0.
         23    2    1    2    0    0  0.37901900816E+02 -0.85203534820E+01  0.33806628069E+02  0.10404384175E+03  0.90405101602E+02 0.  0.
          5    1    3    3  502    0 -0.64739353828E+02  0.40895594933E+02  0.16994962829E+01  0.76707198531E+02  0.41800000000E+01 0. -1.
         -5    1    3    3    0  502  0.26837453012E+02 -0.32375241451E+02  0.46585245491E+02  0.62897238736E+02  0.41800000000E+01 0. -1.
        -11    1    4    4    0    0 -0.94070060445E+01  0.99422491213E+01 -0.23672187728E+02  0.27344333090E+02  0.00000000000E+00 0.  1.
         11    1    4    4    0    0  0.47308906860E+02 -0.18462602603E+02  0.57478815796E+02  0.76699508659E+02  0.00000000000E+00 0. -1.
</event>
<event>
 8    1  0.6493926E-009  0.1420895E+03  0.7561462E-02  0.1210545E+00
         -1   -1    0    0    0  501 -0.00000000000E+00  0.00000000000E+00  0.86298676882E+02  0.86298676882E+02  0.00000000000E+00 0.  1.
          1   -1    0    0  501    0  0.00000000000E+00 -0.00000000000E+00 -0.31488631139E+03  0.31488631139E+03  0.00000000000E+00 0. -1.
         25    2    1    2    0    0  0.49534685465E+02 -0.10750665445E+03 -0.77205389547E+02  0.18873445467E+03  0.12509458977E+03 0.  0.
         23    2    1    2    0    0 -0.49534685465E+02  0.10750665445E+03 -0.15138224496E+03  0.21245053360E+03  0.90594035803E+02 0.  0.
          5    1    3    3  502    0  0.61785622937E+02 -0.47608090726E+01 -0.46395847243E+01  0.62282635230E+02  0.41800000000E+01 0. -1.
         -5    1    3    3    0  502 -0.12250937472E+02 -0.10274584537E+03 -0.72565804823E+02  0.12645181944E+03  0.41800000000E+01 0. -1.
        -11    1    4    4    0    0 -0.37252380233E+02  0.74524265660E+02 -0.34140156247E+02  0.90039748299E+02  0.00000000000E+00 0.  1.
         11    1    4    4    0    0 -0.12282305232E+02  0.32982388786E+02 -0.11724208871E+03  0.12241078530E+03  0.00000000000E+00 0. -1.
</event>
<event>
 8    1  0.6493926E-009  0.1443799E+03  0.7561462E-02  0.1207554E+00
         -1   -1    0    0    0  501 -0.00000000000E+00  0.00000000000E+00  0.15619849844E+03  0.15619849844E+03  0.00000000000E+00 0.  1.
          1   -1    0    0  501    0  0.00000000000E+00 -0.00000000000E+00 -0.19457689102E+03  0.19457689102E+03  0.00000000000E+00 0. -1.
         25    2    1    2    0    0  0.88813925017E+02  0.55971761878E+02  0.66693428132E+02  0.17640512484E+03  0.12509997325E+03 0.  0.
         23    2    1    2    0    0 -0.88813925017E+02 -0.55971761878E+02 -0.10507182071E+03  0.17437026463E+03  0.91346320526E+02 0.  0.
          5    1    3    3  502    0  0.89631766687E+02  0.91129207972E+02  0.52915903652E+02  0.13840502666E+03  0.41800000000E+01 0. -1.
         -5    1    3    3    0  502 -0.81784167000E+00 -0.35157446093E+02  0.13777524480E+02  0.38000098179E+02  0.41800000000E+01 0. -1.
        -11    1    4    4    0    0  0.57409304404E+01 -0.25460207126E+02 -0.59678376197E+02  0.65135927219E+02  0.00000000000E+00 0. -1.
         11    1    4    4    0    0 -0.94554855458E+02 -0.30511554752E+02 -0.45393444516E+02  0.10923433741E+03  0.00000000000E+00 0.  1.
</event>
<event>
 8    1  0.6493926E-009  0.5370341E+02  0.7561462E-02  0.1426332E+00
         -1   -1    0    0    0  501 -0.00000000000E+00  0.00000000000E+00  0.40830529992E+02  0.40830529992E+02  0.00000000000E+00 0.  1.
          1   -1    0    0  501    0  0.00000000000E+00 -0.00000000000E+00 -0.33601115342E+03  0.33601115342E+03  0.00000000000E+00 0. -1.
         25    2    1    2    0    0  0.37957418935E+02 -0.31882925043E+02 -0.18338694411E+03  0.22745787867E+03  0.12509607803E+03 0.  0.
         23    2    1    2    0    0 -0.37957418935E+02  0.31882925043E+02 -0.11179367931E+03  0.14938380474E+03  0.85792819171E+02 0.  0.
          5    1    3    3  502    0  0.15117280177E+02 -0.51181094599E+01 -0.19058778564E+03  0.19130055839E+03  0.41800000000E+01 0.  1.
         -5    1    3    3    0  502  0.22840138758E+02 -0.26764815583E+02  0.72008415269E+01  0.36157320288E+02  0.41800000000E+01 0.  1.
        -11    1    4    4    0    0 -0.62998955178E+01  0.21117857451E+02 -0.11377284228E+03  0.11588749815E+03  0.00000000000E+00 0. -1.
         11    1    4    4    0    0 -0.31657523418E+02  0.10765067592E+02  0.19791629615E+01  0.33496306591E+02  0.00000000000E+00 0.  1.
</event>
<event>
 8    1  0.6493926E-009  0.1032493E+03  0.7561462E-02  0.1273608E+00
         -2   -1    0    0    0  501 -0.00000000000E+00  0.00000000000E+00  0.34683741457E+03  0.34683741457E+03  0.00000000000E+00 0.  1.
          2   -1    0    0  501    0  0.00000000000E+00 -0.00000000000E+00 -0.63434045221E+02  0.63434045221E+02  0.00000000000E+00 0. -1.
         25    2    1    2    0    0  0.38717437832E+02  0.17694975775E+02  0.27760383972E+03  0.30744758644E+03  0.12509186391E+03 0.  0.
         23    2    1    2    0    0 -0.38717437832E+02 -0.17694975775E+02  0.57995296260E+01  0.10282387336E+03  0.93418211437E+02 0.  0.
          5    1    3    3  502    0 -0.20093043656E+02  0.51675145687E+02  0.18052330826E+03  0.18889200171E+03  0.41800000000E+01 0. -1.
         -5    1    3    3    0  502  0.58810481487E+02 -0.33980169912E+02  0.97080531463E+02  0.11855558472E+03  0.41800000000E+01 0. -1.
        -11    1    4    4    0    0 -0.44277262695E+02  0.17208438592E+02 -0.26970389605E+02  0.54626076794E+02  0.00000000000E+00 0. -1.
         11    1    4    4    0    0  0.55598248630E+01 -0.34903414368E+02  0.32769919231E+02  0.48197796562E+02  0.00000000000E+00 0.  1.
</event>
<event>
 8    1  0.6493926E-009  0.6275440E+02  0.7561462E-02  0.1386623E+00
         -4   -1    0    0    0  501 -0.00000000000E+00  0.00000000000E+00  0.16702482933E+03  0.16702482933E+03  0.00000000000E+00 0.  1.
          4   -1    0    0  501    0  0.00000000000E+00 -0.00000000000E+00 -0.91002517732E+02  0.91002517732E+02  0.00000000000E+00 0. -1.
         25    2    1    2    0    0 -0.50026539711E+02 -0.33747467642E+02  0.31233481523E+02  0.14235454325E+03  0.12509092440E+03 0.  0.
         23    2    1    2    0    0  0.50026539711E+02  0.33747467642E+02  0.44788830075E+02  0.11567280382E+03  0.87935271623E+02 0.  0.
          5    1    3    3  502    0 -0.30115151344E+02 -0.14792219843E+02  0.79645273878E+02  0.86524991531E+02  0.41800000000E+01 0. -1.
         -5    1    3    3    0  502 -0.19911388368E+02 -0.18955247800E+02 -0.48411792354E+02  0.55829551716E+02  0.41800000000E+01 0. -1.
        -11    1    4    4    0    0  0.23676392308E+01  0.10685869326E+02 -0.25456152152E+02  0.27709370277E+02  0.00000000000E+00 0. -1.
         11    1    4    4    0    0  0.47658900481E+02  0.23061598317E+02  0.70244982227E+02  0.87963433539E+02  0.00000000000E+00 0.  1.
</event>
<event>
 8    1  0.6493926E-009  0.1152967E+03  0.7561462E-02  0.1251064E+00
         -1   -1    0    0    0  501 -0.00000000000E+00  0.00000000000E+00  0.49231741127E+02  0.49231741127E+02  0.00000000000E+00 0.  1.
          1   -1    0    0  501    0  0.00000000000E+00 -0.00000000000E+00 -0.51087962667E+03  0.51087962667E+03  0.00000000000E+00 0. -1.
         25    2    1    2    0    0  0.48196226676E+02 -0.92497015835E+02 -0.16281451654E+03  0.23029186378E+03  0.12508877457E+03 0.  0.
         23    2    1    2    0    0 -0.48196226676E+02  0.92497015835E+02 -0.29883336901E+03  0.32981950402E+03  0.92741299302E+02 0.  0.
          5    1    3    3  502    0  0.52317728091E+02 -0.31706678973E+02 -0.15746761287E+03  0.16898514629E+03  0.41800000000E+01 0. -1.
         -5    1    3    3    0  502 -0.41215014154E+01 -0.60790336863E+02 -0.53469036645E+01  0.61306717484E+02  0.41800000000E+01 0. -1.
        -11    1    4    4    0    0 -0.95417725320E+01  0.49386117599E+02 -0.39096731533E+02  0.63707051816E+02  0.00000000000E+00 0.  1.
         11    1    4    4    0    0 -0.38654454144E+02  0.43110898237E+02 -0.25973663748E+03  0.26611245221E+03  0.00000000000E+00 0. -1.
</event>
<event>
 8    1  0.6493926E-009  0.1055172E+03  0.7561462E-02  0.1269104E+00
         -1   -1    0    0    0  501 -0.00000000000E+00  0.00000000000E+00  0.50952912586E+03  0.50952912586E+03  0.00000000000E+00 0.  1.
          1   -1    0    0  501    0  0.00000000000E+00 -0.00000000000E+00 -0.28692820052E+02  0.28692820052E+02  0.00000000000E+00 0. -1.
         25    2    1    2    0    0  0.42523208896E+02 -0.29217783814E+02  0.24637685187E+03  0.28108648354E+03  0.12508459499E+03 0.  0.
         23    2    1    2    0    0 -0.42523208896E+02  0.29217783814E+02  0.23445945393E+03  0.25713546237E+03  0.92116818683E+02 0.  0.
          5    1    3    3  502    0  0.74678917979E+02 -0.13615023328E+02  0.78052329041E+02  0.10895846970E+03  0.41800000000E+01 0.  1.
         -5    1    3    3    0  502 -0.32155709083E+02 -0.15602760486E+02  0.16832452283E+03  0.17212801384E+03  0.41800000000E+01 0.  1.
        -11    1    4    4    0    0 -0.56808760774E+02 -0.96429844020E+01  0.90047258538E+02  0.10690524411E+03  0.00000000000E+00 0. -1.
         11    1    4    4    0    0  0.14285551878E+02  0.38860768216E+02  0.14441219539E+03  0.15023021825E+03  0.00000000000E+00 0.  1.
</event>
<event>
 8    1  0.6493926E-009  0.1337363E+03  0.7561462E-02  0.1222015E+00
          1   -1    0    0  501    0  0.00000000000E+00  0.00000000000E+00  0.12325108827E+03  0.12325108827E+03  0.00000000000E+00 0. -1.
         -1   -1    0    0    0  501 -0.00000000000E+00 -0.00000000000E+00 -0.17587993871E+03  0.17587993871E+03  0.00000000000E+00 0.  1.
         25    2    1    2    0    0 -0.75157739820E+02  0.74751979496E+02 -0.27753022478E+02  0.16629616156E+03  0.12509052243E+03 0.  0.
         23    2    1    2    0    0  0.75157739820E+02 -0.74751979496E+02 -0.24875827960E+02  0.13283486542E+03  0.76090409131E+02 0.  0.
          5    1    3    3  502    0 -0.83273319542E+02  0.14415310650E+02 -0.53449914712E+02  0.10008302909E+03  0.41800000000E+01 0. -1.
         -5    1    3    3    0  502  0.81155797227E+01  0.60336668846E+02  0.25696892234E+02  0.66213132475E+02  0.41800000000E+01 0. -1.
        -11    1    4    4    0    0  0.64784228382E+02 -0.85251910985E+02 -0.38473161325E+01  0.10714329851E+03  0.00000000000E+00 0. -1.
         11    1    4    4    0    0  0.10373511438E+02  0.10499931490E+02 -0.21028511828E+02  0.25691566915E+02  0.00000000000E+00 0.  1.
</event>
<event>
 8    1  0.6493926E-009  0.1026241E+03  0.7561462E-02  0.1274873E+00
         -2   -1    0    0    0  501 -0.00000000000E+00  0.00000000000E+00  0.15673089853E+02  0.15673089853E+02  0.00000000000E+00 0.  1.
          2   -1    0    0  501    0  0.00000000000E+00 -0.00000000000E+00 -0.13242157379E+04  0.13242157379E+04  0.00000000000E+00 0. -1.
         25    2    1    2    0    0  0.52335862735E+02 -0.20318765628E+02 -0.10665275251E+04  0.10753049075E+04  0.12509111739E+03 0.  0.
         23    2    1    2    0    0 -0.52335862735E+02  0.20318765628E+02 -0.24201512292E+03  0.26458392018E+03  0.91002397370E+02 0.  0.
          5    1    3    3  502    0 -0.34961937070E+02 -0.19662709294E+01 -0.13585653197E+03  0.14035908572E+03  0.41800000000E+01 0. -1.
         -5    1    3    3    0  502  0.87297799805E+02 -0.18352494698E+02 -0.93067099312E+03  0.93494582183E+03  0.41800000000E+01 0. -1.
        -11    1    4    4    0    0 -0.28621564731E+01 -0.17921558738E+02 -0.41230211989E+01  0.18611112569E+02  0.00000000000E+00 0.  1.
         11    1    4    4    0    0 -0.49473706262E+02  0.38240324366E+02 -0.23789210173E+03  0.24597280761E+03  0.00000000000E+00 0. -1.
</event>
<event>
 8    1  0.6493926E-009  0.1355723E+03  0.7561462E-02  0.1219414E+00
          2   -1    0    0  501    0  0.00000000000E+00  0.00000000000E+00  0.12900766473E+04  0.12900766473E+04  0.00000000000E+00 0. -1.
         -2   -1    0    0    0  501 -0.00000000000E+00 -0.00000000000E+00 -0.28743590333E+02  0.28743590333E+02  0.00000000000E+00 0.  1.
         25    2    1    2    0    0 -0.53883546179E+02 -0.11308749108E+03  0.98468731114E+03  0.10004745187E+04  0.12509174490E+03 0.  0.
         23    2    1    2    0    0  0.53883546179E+02  0.11308749108E+03  0.27664574586E+03  0.31834571898E+03  0.95492988752E+02 0.  0.
          5    1    3    3  502    0 -0.28054170700E+02 -0.58234733648E+02  0.85282184406E+03  0.85527825344E+03  0.41800000000E+01 0.  1.
         -5    1    3    3    0  502 -0.25829375479E+02 -0.54852757430E+02  0.13186546708E+03  0.14519626525E+03  0.41800000000E+01 0.  1.
        -11    1    4    4    0    0  0.22158763390E+02  0.11166162623E+03  0.15310766867E+03  0.19079121514E+03  0.00000000000E+00 0.  1.
         11    1    4    4    0    0  0.31724782789E+02  0.14258648453E+01  0.12353807720E+03  0.12755450385E+03  0.00000000000E+00 0. -1.
</event>
<event>
 8    1  0.6493926E-009  0.9532192E+02  0.7561462E-02  0.1290453E+00
         -2   -1    0    0    0  501 -0.00000000000E+00  0.00000000000E+00  0.32128299269E+02  0.32128299269E+02  0.00000000000E+00 0.  1.
          2   -1    0    0  501    0  0.00000000000E+00 -0.00000000000E+00 -0.41196288510E+03  0.41196288510E+03  0.00000000000E+00 0. -1.
         25    2    1    2    0    0  0.22287040218E+02 -0.23118365634E+02 -0.26386958224E+03  0.29378012943E+03  0.12509371296E+03 0.  0.
         23    2    1    2    0    0 -0.22287040218E+02  0.23118365634E+02 -0.11596500358E+03  0.15031105493E+03  0.90079743496E+02 0.  0.
          5    1    3    3  502    0  0.32228398879E+02  0.42959648194E+02 -0.67796723211E+02  0.86591391867E+02  0.41800000000E+01 0.  1.
         -5    1    3    3    0  502 -0.99413586613E+01 -0.66078013829E+02 -0.19607285903E+03  0.20718873756E+03  0.41800000000E+01 0.  1.
        -11    1    4    4    0    0  0.47130290290E+01 -0.19120774996E+02  0.41754799605E+01  0.20130854725E+02  0.00000000000E+00 0.  1.
         11    1    4    4    0    0 -0.27000069247E+02  0.42239140630E+02 -0.12014048354E+03  0.13018020021E+03  0.00000000000E+00 0. -1.
</event>
<event>
 8    1  0.6493926E-009  0.1868569E+03  0.7561462E-02  0.1161327E+00
         -3   -1    0    0    0  501 -0.00000000000E+00  0.00000000000E+00  0.17650421186E+03  0.17650421186E+03  0.00000000000E+00 0.  1.
          3   -1    0    0  501    0  0.00000000000E+00 -0.00000000000E+00 -0.24398604852E+03  0.24398604852E+03  0.00000000000E+00 0. -1.
         25    2    1    2    0    0 -0.16315771060E+03 -0.88059495974E+01  0.32739030511E+02  0.20836901195E+03  0.12509123768E+03 0.  0.
         23    2    1    2    0    0  0.16315771060E+03  0.88059495974E+01 -0.10022086717E+03  0.21212124843E+03  0.90847226396E+02 0.  0.
          5    1    3    3  502    0 -0.51925591530E+02 -0.56099819060E+02 -0.15591823775E+02  0.78128318316E+02  0.41800000000E+01 0.  1.
         -5    1    3    3    0  502 -0.11123211907E+03  0.47293869463E+02  0.48330854286E+02  0.13024069363E+03  0.41800000000E+01 0.  1.
        -11    1    4    4    0    0  0.68908580309E+02 -0.28874520849E+02 -0.82831640767E+01  0.75171412129E+02  0.00000000000E+00 0.  1.
         11    1    4    4    0    0  0.94249130291E+02  0.37680470446E+02 -0.91937703089E+02  0.13694983630E+03  0.00000000000E+00 0. -1.
</event>
<event>
 8    1  0.6493926E-009  0.1251043E+03  0.7561462E-02  0.1234906E+00
         -2   -1    0    0    0  501 -0.00000000000E+00  0.00000000000E+00  0.14267809907E+02  0.14267809907E+02  0.00000000000E+00 0.  1.
          2   -1    0    0  501    0  0.00000000000E+00 -0.00000000000E+00 -0.12508854207E+04  0.12508854207E+04  0.00000000000E+00 0. -1.
         25    2    1    2    0    0 -0.17856483994E+02 -0.61585154612E+02 -0.80048006247E+03  0.81272823925E+03  0.12508906890E+03 0.  0.
         23    2    1    2    0    0  0.17856483994E+02  0.61585154612E+02 -0.43613754830E+03  0.45242499134E+03  0.10178814501E+03 0.  0.
          5    1    3    3  502    0  0.62795692381E+01  0.34334649828E+02 -0.11863242396E+03  0.12373126357E+03  0.41800000000E+01 0.  1.
         -5    1    3    3    0  502 -0.24136053232E+02 -0.95919804440E+02 -0.68184763851E+03  0.68899697568E+03  0.41800000000E+01 0.  1.
        -11    1    4    4    0    0  0.12765980851E+02 -0.25661713767E+02 -0.63382145822E+02  0.69561413366E+02  0.00000000000E+00 0.  1.
         11    1    4    4    0    0  0.50905031435E+01  0.87246868379E+02 -0.37275540248E+03  0.38286357798E+03  0.00000000000E+00 0. -1.
</event>
<event>
 8    1  0.6493926E-009  0.1299987E+03  0.7561462E-02  0.1227458E+00
          1   -1    0    0  501    0  0.00000000000E+00  0.00000000000E+00  0.56069492401E+03  0.56069492401E+03  0.00000000000E+00 0. -1.
         -1   -1    0    0    0  501 -0.00000000000E+00 -0.00000000000E+00 -0.31959746625E+02  0.31959746625E+02  0.00000000000E+00 0.  1.
         25    2    1    2    0    0 -0.72442742019E+02 -0.13755249437E+02  0.36178232208E+03  0.38983492816E+03  0.12509062670E+03 0.  0.
         23    2    1    2    0    0  0.72442742019E+02  0.13755249437E+02  0.16695285531E+03  0.20281974247E+03  0.88461484748E+02 0.  0.
          5    1    3    3  502    0 -0.10298693295E+03  0.13516522054E+02  0.26531056276E+03  0.28494941979E+03  0.41800000000E+01 0. -1.
         -5    1    3    3    0  502  0.30544190934E+02 -0.27271771491E+02  0.96471759322E+02  0.10488550837E+03  0.41800000000E+01 0. -1.
        -11    1    4    4    0    0  0.40812364786E+02 -0.36993907928E+02  0.72999400178E+02  0.91450045214E+02  0.00000000000E+00 0.  1.
         11    1    4    4    0    0  0.31630377232E+02  0.50749157365E+02  0.93953455128E+02  0.11136969726E+03  0.00000000000E+00 0. -1.
</event>
<event>
 8    1  0.6493926E-009  0.2055356E+03  0.7561462E-02  0.1145151E+00
         -1   -1    0    0    0  501 -0.00000000000E+00  0.00000000000E+00  0.54715161674E+02  0.54715161674E+02  0.00000000000E+00 0.  1.
          1   -1    0    0  501    0  0.00000000000E+00 -0.00000000000E+00 -0.89608615524E+03  0.89608615524E+03  0.00000000000E+00 0. -1.
         25    2    1    2    0    0 -0.18771519358E+03  0.37454313499E+02 -0.48119380062E+03  0.53276205052E+03  0.12509240272E+03 0.  0.
         23    2    1    2    0    0  0.18771519358E+03 -0.37454313499E+02 -0.36017719294E+03  0.41803926639E+03  0.91593659312E+02 0.  0.
          5    1    3    3  502    0 -0.19014084694E+03  0.38635294169E+02 -0.48751182816E+03  0.52472038518E+03  0.41800000000E+01 0. -1.
         -5    1    3    3    0  502  0.24256533546E+01 -0.11809806694E+01  0.63180275362E+01  0.80416653428E+01  0.41800000000E+01 0. -1.
        -11    1    4    4    0    0  0.16494317838E+03 -0.64111980993E+02 -0.29409046809E+03  0.34322849768E+03  0.00000000000E+00 0.  1.
         11    1    4    4    0    0  0.22772015202E+02  0.26657667493E+02 -0.66086724859E+02  0.74810768711E+02  0.00000000000E+00 0. -1.
</event>
<event>
 8    1  0.6493926E-009  0.9909587E+02  0.7561462E-02  0.1282209E+00
         -4   -1    0    0    0  501 -0.00000000000E+00  0.00000000000E+00  0.12178402619E+03  0.12178402619E+03  0.00000000000E+00 0.  1.
          4   -1    0    0  501    0  0.00000000000E+00 -0.00000000000E+00 -0.14218261177E+03  0.14218261177E+03  0.00000000000E+00 0. -1.
         25    2    1    2    0    0 -0.35395022965E+02 -0.58471217818E+02 -0.38058579647E+02  0.14753842210E+03  0.12508972599E+03 0.  0.
         23    2    1    2    0    0  0.35395022965E+02  0.58471217818E+02  0.17659994068E+02  0.11642821587E+03  0.92584896694E+02 0.  0.
          5    1    3    3  502    0 -0.28248319837E+02  0.29420743842E+02  0.16010522482E+02  0.44015417435E+02  0.41800000000E+01 0.  1.
         -5    1    3    3    0  502 -0.71467031282E+01 -0.87891961659E+02 -0.54069102129E+02  0.10352300467E+03  0.41800000000E+01 0.  1.
        -11    1    4    4    0    0  0.32213764928E+02  0.46812563549E+02  0.53841486694E+02  0.78281852599E+02  0.00000000000E+00 0. -1.
         11    1    4    4    0    0  0.31812580366E+01  0.11658654269E+02 -0.36181492625E+02  0.38146363269E+02  0.00000000000E+00 0.  1.
</event>
<event>
 8    1  0.6493926E-009  0.1061158E+03  0.7561462E-02  0.1267937E+00
          4   -1    0    0  501    0  0.00000000000E+00  0.00000000000E+00  0.50024099982E+03  0.50024099982E+03  0.00000000000E+00 0. -1.
         -4   -1    0    0    0  501 -0.00000000000E+00 -0.00000000000E+00 -0.75645731167E+02  0.75645731167E+02  0.00000000000E+00 0.  1.
         25    2    1    2    0    0  0.44842569845E+02 -0.95689279473E+02  0.40211318631E+03  0.43417967579E+03  0.12509868899E+03 0.  0.
         23    2    1    2    0    0 -0.44842569845E+02  0.95689279473E+02  0.22482082348E+02  0.14170705520E+03  0.91695971509E+02 0.  0.
          5    1    3    3  502    0  0.20590489135E+02 -0.32554858188E+02  0.15595029768E+02  0.41766785703E+02  0.41800000000E+01 0. -1.
         -5    1    3    3    0  502  0.24252080709E+02 -0.63134421285E+02  0.38651815654E+03  0.39241289009E+03  0.41800000000E+01 0. -1.
        -11    1    4    4    0    0 -0.18065065192E+02  0.42301756487E+02  0.56591200289E+02  0.72927012364E+02  0.00000000000E+00 0. -1.
         11    1    4    4    0    0 -0.26777504653E+02  0.53387522987E+02 -0.34109117941E+02  0.68780042838E+02  0.00000000000E+00 0.  1.
</event>
<event>
 8    1  0.6493926E-009  0.1594139E+03  0.7561462E-02  0.1189360E+00
          2   -1    0    0  501    0  0.00000000000E+00  0.00000000000E+00  0.53268202074E+03  0.53268202074E+03  0.00000000000E+00 0. -1.
         -2   -1    0    0    0  501 -0.00000000000E+00 -0.00000000000E+00 -0.52489233267E+02  0.52489233267E+02  0.00000000000E+00 0.  1.
         25    2    1    2    0    0  0.77564637123E+01  0.12113184164E+03  0.31711430785E+03  0.36185972685E+03  0.12509153401E+03 0.  0.
         23    2    1    2    0    0 -0.77564637123E+01 -0.12113184164E+03  0.16307847962E+03  0.22331152716E+03  0.92414078245E+02 0.  0.
          5    1    3    3  502    0  0.41914171989E+02  0.13161183542E+03  0.24558371016E+03  0.28179301647E+03  0.41800000000E+01 0.  1.
         -5    1    3    3    0  502 -0.34157708276E+02 -0.10479993776E+02  0.71530597693E+02  0.80066710377E+02  0.41800000000E+01 0.  1.
        -11    1    4    4    0    0 -0.12292280346E+02  0.85068498700E+01  0.19421506948E-01  0.14948813599E+02  0.00000000000E+00 0.  1.
         11    1    4    4    0    0  0.45358166335E+01 -0.12963869151E+03  0.16305905811E+03  0.20836271356E+03  0.00000000000E+00 0. -1.
</event>
<event>
 8    1  0.6493926E-009  0.1193486E+03  0.7561462E-02  0.1244176E+00
          2   -1    0    0  501    0  0.00000000000E+00  0.00000000000E+00  0.12135274464E+03  0.12135274464E+03  0.00000000000E+00 0. -1.
         -2   -1    0    0    0  501 -0.00000000000E+00 -0.00000000000E+00 -0.15764330871E+03  0.15764330871E+03  0.00000000000E+00 0.  1.
         25    2    1    2    0    0 -0.25294591386E+02 -0.85588166969E+02 -0.26568647539E+02  0.15595764126E+03  0.12510692289E+03 0.  0.
         23    2    1    2    0    0  0.25294591386E+02  0.85588166969E+02 -0.97219165239E+01  0.12303841209E+03  0.84135512781E+02 0.  0.
          5    1    3    3  502    0 -0.49562698470E+02 -0.26718335392E+02 -0.61271855605E+02  0.83318924712E+02  0.41800000000E+01 0.  1.
         -5    1    3    3    0  502  0.24268107084E+02 -0.58869831576E+02  0.34703208067E+02  0.72638716546E+02  0.41800000000E+01 0.  1.
        -11    1    4    4    0    0 -0.28079791438E+02  0.35138908616E+02 -0.19351462766E+02  0.48966281226E+02  0.00000000000E+00 0.  1.
         11    1    4    4    0    0  0.53374382824E+02  0.50449258353E+02  0.96295462419E+01  0.74072130866E+02  0.00000000000E+00 0. -1.
</event>
<event>
 8    1  0.6493926E-009  0.2069466E+03  0.7561462E-02  0.1144007E+00
         -2   -1    0    0    0  501 -0.00000000000E+00  0.00000000000E+00  0.51433728537E+02  0.51433728537E+02  0.00000000000E+00 0. -1.
          2   -1    0    0  501    0  0.00000000000E+00 -0.00000000000E+00 -0.12430569199E+04  0.12430569199E+04  0.00000000000E+00 0.  1.
         25    2    1    2    0    0  0.11837888691E+03  0.14906493510E+03 -0.29515894724E+03  0.37282666405E+03  0.12508797524E+03 0.  0.
         23    2    1    2    0    0 -0.11837888691E+03 -0.14906493510E+03 -0.89646424417E+03  0.92166398443E+03  0.97889955462E+02 0.  0.
          5    1    3    3  502    0  0.11754532666E+03  0.10144977251E+03 -0.13536271018E+03  0.20603275436E+03  0.41800000000E+01 0.  1.
         -5    1    3    3    0  502  0.83356025212E+00  0.47615162588E+02 -0.15979623706E+03  0.16679390969E+03  0.41800000000E+01 0.  1.
        -11    1    4    4    0    0 -0.87859853601E+02 -0.15638541345E+03 -0.81150071574E+03  0.83108914267E+03  0.00000000000E+00 0.  1.
         11    1    4    4    0    0 -0.30519033310E+02  0.73204783444E+01 -0.84963528431E+02  0.90574841765E+02  0.00000000000E+00 0. -1.
</event>
<event>
 8    1  0.6493926E-009  0.8180596E+02  0.7561462E-02  0.1324003E+00
          2   -1    0    0  501    0  0.00000000000E+00  0.00000000000E+00  0.58847684498E+02  0.58847684498E+02  0.00000000000E+00 0. -1.
         -2   -1    0    0    0  501 -0.00000000000E+00 -0.00000000000E+00 -0.20500493154E+03  0.20500493154E+03  0.00000000000E+00 0.  1.
         25    2    1    2    0    0  0.10141041986E+02  0.11672364821E+02 -0.10008527302E+03  0.16094584740E+03  0.12508964420E+03 0.  0.
         23    2    1    2    0    0 -0.10141041986E+02 -0.11672364821E+02 -0.46071974016E+02  0.10290676863E+03  0.90708827617E+02 0.  0.
          5    1    3    3  502    0 -0.41322245320E+02 -0.16226238800E+02 -0.91296004182E+02  0.10160340331E+03  0.41800000000E+01 0. -1.
         -5    1    3    3    0  502  0.51463287306E+02  0.27898603621E+02 -0.87892688400E+01  0.59342444094E+02  0.41800000000E+01 0. -1.
        -11    1    4    4    0    0  0.11014836831E+02  0.19655552487E+02  0.17781305924E+02  0.28702651695E+02  0.00000000000E+00 0. -1.
         11    1    4    4    0    0 -0.21155878817E+02 -0.31327917308E+02 -0.63853279940E+02  0.74204116937E+02  0.00000000000E+00 0.  1.
</event>
<event>
 8    1  0.6493926E-009  0.1595885E+03  0.7561462E-02  0.1189162E+00
         -2   -1    0    0    0  501 -0.00000000000E+00  0.00000000000E+00  0.13291492859E+03  0.13291492859E+03  0.00000000000E+00 0.  1.
          2   -1    0    0  501    0  0.00000000000E+00 -0.00000000000E+00 -0.24382547825E+03  0.24382547825E+03  0.00000000000E+00 0. -1.
         25    2    1    2    0    0  0.11599653051E+03 -0.69559211749E+02 -0.10792336687E+03  0.21352035246E+03  0.12509919571E+03 0.  0.
         23    2    1    2    0    0 -0.11599653051E+03  0.69559211749E+02 -0.29871827963E+01  0.16322005438E+03  0.91313656484E+02 0.  0.
          5    1    3    3  502    0  0.12167078612E+03 -0.96920511463E+02 -0.96088174195E+02  0.18288732968E+03  0.41800000000E+01 0.  1.
         -5    1    3    3    0  502 -0.56742556088E+01  0.27361299715E+02 -0.11835192676E+02  0.30633022777E+02  0.41800000000E+01 0.  1.
        -11    1    4    4    0    0 -0.57050372724E+02  0.36505265305E+02  0.44127317582E+02  0.80836870176E+02  0.00000000000E+00 0.  1.
         11    1    4    4    0    0 -0.58946157790E+02  0.33053946444E+02 -0.47114500378E+02  0.82383184204E+02  0.00000000000E+00 0. -1.
</event>
<event>
 8    1  0.6493926E-009  0.9074850E+02  0.7561462E-02  0.1301049E+00
         -2   -1    0    0    0  501 -0.00000000000E+00  0.00000000000E+00  0.12042184563E+02  0.12042184563E+02  0.00000000000E+00 0. -1.
          2   -1    0    0  501    0  0.00000000000E+00 -0.00000000000E+00 -0.11551381689E+04  0.11551381689E+04  0.00000000000E+00 0.  1.
         25    2    1    2    0    0  0.35118896573E+02 -0.31226861946E+02 -0.68235614330E+03  0.69531863440E+03  0.12509853414E+03 0.  0.
         23    2    1    2    0    0 -0.35118896573E+02  0.31226861946E+02 -0.46073984106E+03  0.47186171909E+03  0.90353898606E+02 0.  0.
          5    1    3    3  502    0  0.19220813238E+02  0.21290981309E+02 -0.34203753337E+02  0.44834302593E+02  0.41800000000E+01 0. -1.
         -5    1    3    3    0  502  0.15898083335E+02 -0.52517843255E+02 -0.64815238996E+03  0.65048433180E+03  0.41800000000E+01 0. -1.
        -11    1    4    4    0    0  0.26638805955E+02  0.22966833651E+02 -0.10576488078E+03  0.11145990955E+03  0.00000000000E+00 0. -1.
         11    1    4    4    0    0 -0.61757702528E+02  0.82600282948E+01 -0.35497496028E+03  0.36040180953E+03  0.00000000000E+00 0.  1.
</event>
<event>
 8    1  0.6493926E-009  0.1222286E+03  0.7561462E-02  0.1239465E+00
          3   -1    0    0  501    0  0.00000000000E+00  0.00000000000E+00  0.29347109260E+02  0.29347109260E+02  0.00000000000E+00 0. -1.
         -3   -1    0    0    0  501 -0.00000000000E+00 -0.00000000000E+00 -0.73900657597E+03  0.73900657597E+03  0.00000000000E+00 0.  1.
         25    2    1    2    0    0 -0.75682146474E+02  0.51133875533E+02 -0.50157575940E+03  0.52494713498E+03  0.12509513013E+03 0.  0.
         23    2    1    2    0    0  0.75682146474E+02 -0.51133875533E+02 -0.20808370730E+03  0.24340655024E+03  0.87209282388E+02 0.  0.
          5    1    3    3  502    0 -0.57048188005E+02  0.91591488424E+02 -0.31182491130E+03  0.32999355177E+03  0.41800000000E+01 0. -1.
         -5    1    3    3    0  502 -0.18633958470E+02 -0.40457612891E+02 -0.18975084811E+03  0.19495358321E+03  0.41800000000E+01 0. -1.
        -11    1    4    4    0    0  0.43286387028E+02 -0.34273866067E+02 -0.19795064039E+03  0.20550636298E+03  0.00000000000E+00 0.  1.
         11    1    4    4    0    0  0.32395759446E+02 -0.16860009466E+02 -0.10133066917E+02  0.37900187261E+02  0.00000000000E+00 0. -1.
</event>
<event>
 8    1  0.6493926E-009  0.1057640E+03  0.7561462E-02  0.1268622E+00
         -1   -1    0    0    0  501 -0.00000000000E+00  0.00000000000E+00  0.23712957833E+02  0.23712957833E+02  0.00000000000E+00 0.  1.
          1   -1    0    0  501    0  0.00000000000E+00 -0.00000000000E+00 -0.48171785229E+03  0.48171785229E+03  0.00000000000E+00 0. -1.
         25    2    1    2    0    0  0.13450129576E+02  0.22526033245E+02 -0.29471213291E+03  0.32123285456E+03  0.12508787872E+03 0.  0.
         23    2    1    2    0    0 -0.13450129576E+02 -0.22526033245E+02 -0.16329276155E+03  0.18419795557E+03  0.81092741366E+02 0.  0.
          5    1    3    3  502    0  0.68254531337E+02  0.44688514688E+01 -0.13566984023E+03  0.15199483422E+03  0.41800000000E+01 0. -1.
         -5    1    3    3    0  502 -0.54804401761E+02  0.18057181776E+02 -0.15904229268E+03  0.16923802033E+03  0.41800000000E+01 0. -1.
        -11    1    4    4    0    0 -0.26558758163E+02  0.24617935664E+02 -0.73548100165E+02  0.81980079467E+02  0.00000000000E+00 0. -1.
         11    1    4    4    0    0  0.13108628587E+02 -0.47143968909E+02 -0.89744661383E+02  0.10221787610E+03  0.00000000000E+00 0.  1.
</event>
<event>
 8    1  0.6493926E-009  0.9944775E+02  0.7561462E-02  0.1281462E+00
         -2   -1    0    0    0  501 -0.00000000000E+00  0.00000000000E+00  0.70364083428E+02  0.70364083428E+02  0.00000000000E+00 0.  1.
          2   -1    0    0  501    0  0.00000000000E+00 -0.00000000000E+00 -0.21609357688E+03  0.21609357688E+03  0.00000000000E+00 0. -1.
         25    2    1    2    0    0  0.19451541032E+02 -0.51845407275E+02 -0.57858835362E+02  0.14856214110E+03  0.12512696046E+03 0.  0.
         23    2    1    2    0    0 -0.19451541032E+02  0.51845407275E+02 -0.87870658095E+02  0.13789551922E+03  0.90706190319E+02 0.  0.
          5    1    3    3  502    0 -0.59910551226E+01 -0.90192180350E+02 -0.41410988140E+02  0.99513137206E+02  0.41800000000E+01 0.  1.
         -5    1    3    3    0  502  0.25442596155E+02  0.38346773075E+02 -0.16447847222E+02  0.49049003890E+02  0.41800000000E+01 0.  1.
        -11    1    4    4    0    0 -0.24211730889E+02  0.24509797167E+02  0.10236121808E+02  0.35940454359E+02  0.00000000000E+00 0.  1.
         11    1    4    4    0    0  0.47601898574E+01  0.27335610107E+02 -0.98106779903E+02  0.10195506486E+03  0.00000000000E+00 0. -1.
</event>
<event>
 8    1  0.6493926E-009  0.9764245E+02  0.7561462E-02  0.1285333E+00
         -2   -1    0    0    0  501 -0.00000000000E+00  0.00000000000E+00  0.69440745391E+02  0.69440745391E+02  0.00000000000E+00 0.  1.
          2   -1    0    0  501    0  0.00000000000E+00 -0.00000000000E+00 -0.29240122078E+03  0.29240122078E+03  0.00000000000E+00 0. -1.
         25    2    1    2    0    0  0.39502502096E+02 -0.38305046602E+02 -0.28919099496E+02  0.13968937649E+03  0.12509629619E+03 0.  0.
         23    2    1    2    0    0 -0.39502502096E+02  0.38305046602E+02 -0.19404137589E+03  0.22215258968E+03  0.93123537716E+02 0.  0.
          5    1    3    3  502    0  0.62576179667E+02 -0.14100622128E+02  0.30675904089E+02  0.71225622480E+02  0.41800000000E+01 0.  1.
         -5    1    3    3    0  502 -0.23073677571E+02 -0.24204424474E+02 -0.59595003584E+02  0.68463754009E+02  0.41800000000E+01 0.  1.
        -11    1    4    4    0    0 -0.64341675630E+02  0.24225680002E+02 -0.84418634314E+02  0.10887258890E+03  0.00000000000E+00 0. -1.
         11    1    4    4    0    0  0.24839173534E+02  0.14079366600E+02 -0.10962274158E+03  0.11328000078E+03  0.00000000000E+00 0.  1.
</event>
<event>
 8    1  0.6493926E-009  0.1004508E+03  0.7561462E-02  0.1279351E+00
          2   -1    0    0  501    0  0.00000000000E+00  0.00000000000E+00  0.77060675945E+03  0.77060675945E+03  0.00000000000E+00 0. -1.
         -2   -1    0    0    0  501 -0.00000000000E+00 -0.00000000000E+00 -0.16326621637E+02  0.16326621637E+02  0.00000000000E+00 0.  1.
         25    2    1    2    0    0  0.10535286911E+02 -0.22029498961E+02  0.46517626612E+03  0.48232091010E+03  0.12509280823E+03 0.  0.
         23    2    1    2    0    0 -0.10535286911E+02  0.22029498961E+02  0.28910387170E+03  0.30461247098E+03  0.92797724941E+02 0.  0.
          5    1    3    3  502    0 -0.52711960976E+02 -0.30411962015E+02  0.27501581115E+03  0.28169949777E+03  0.41800000000E+01 0. -1.
         -5    1    3    3    0  502  0.63247247887E+02  0.83824630536E+01  0.19016045497E+03  0.20062141233E+03  0.41800000000E+01 0. -1.
        -11    1    4    4    0    0 -0.18370946294E+02 -0.23464923417E+02  0.33347047276E+02  0.44722699614E+02  0.00000000000E+00 0.  1.
         11    1    4    4    0    0  0.78356593831E+01  0.45494422378E+02  0.25575682442E+03  0.25988977137E+03  0.00000000000E+00 0. -1.
</event>
<event>
 8    1  0.6493926E-009  0.9535993E+02  0.7561462E-02  0.1290367E+00
         -1   -1    0    0    0  501 -0.00000000000E+00  0.00000000000E+00  0.43745503466E+02  0.43745503466E+02  0.00000000000E+00 0.  1.
          1   -1    0    0  501    0  0.00000000000E+00 -0.00000000000E+00 -0.50963877883E+03  0.50963877883E+03  0.00000000000E+00 0. -1.
         25    2    1    2    0    0  0.22412236795E+02  0.14589021033E+02 -0.43104220444E+03  0.44962458184E+03  0.12509889967E+03 0.  0.
         23    2    1    2    0    0 -0.22412236795E+02 -0.14589021033E+02 -0.34851070929E+02  0.10375970046E+03  0.94001757435E+02 0.  0.
          5    1    3    3  502    0 -0.47490649925E+02 -0.77048668647E+01 -0.10763424043E+03  0.11797172931E+03  0.41800000000E+01 0. -1.
         -5    1    3    3    0  502  0.69902886720E+02  0.22293887897E+02 -0.32340796401E+03  0.33165285253E+03  0.41800000000E+01 0. -1.
        -11    1    4    4    0    0 -0.44302709620E+02 -0.15739329239E+02 -0.56123519229E+02  0.73214110493E+02  0.00000000000E+00 0. -1.
         11    1    4    4    0    0  0.21890472825E+02  0.11503082068E+01  0.21272448300E+02  0.30545589962E+02  0.00000000000E+00 0.  1.
</event>
<event>
 8    1  0.6493926E-009  0.1298860E+03  0.7561462E-02  0.1227625E+00
          1   -1    0    0  501    0  0.00000000000E+00  0.00000000000E+00  0.28470257209E+03  0.28470257209E+03  0.00000000000E+00 0. -1.
         -1   -1    0    0    0  501 -0.00000000000E+00 -0.00000000000E+00 -0.70798552536E+02  0.70798552536E+02  0.00000000000E+00 0.  1.
         25    2    1    2    0    0 -0.75316207370E+02 -0.14089094116E+02  0.54231593513E+02  0.15639580424E+03  0.12509016022E+03 0.  0.
         23    2    1    2    0    0  0.75316207370E+02  0.14089094116E+02  0.15967242604E+03  0.19910532039E+03  0.90975883082E+02 0.  0.
          5    1    3    3  502    0 -0.38010151227E+02 -0.66554440178E+02  0.50286401092E+02  0.91763062495E+02  0.41800000000E+01 0.  1.
         -5    1    3    3    0  502 -0.37306056143E+02  0.52465346062E+02  0.39451924212E+01  0.64632741746E+02  0.41800000000E+01 0.  1.
        -11    1    4    4    0    0 -0.18973394286E+02  0.15034089120E+02  0.26041829401E+02  0.35555455347E+02  0.00000000000E+00 0.  1.
         11    1    4    4    0    0  0.94289601656E+02 -0.94499500406E+00  0.13363059664E+03  0.16354986504E+03  0.00000000000E+00 0. -1.
</event>
<event>
 8    1  0.6493926E-009  0.1519227E+03  0.7561462E-02  0.1198130E+00
          2   -1    0    0  501    0  0.00000000000E+00  0.00000000000E+00  0.24118753374E+04  0.24118753374E+04  0.00000000000E+00 0. -1.
         -2   -1    0    0    0  501 -0.00000000000E+00 -0.00000000000E+00 -0.19227179997E+02  0.19227179997E+02  0.00000000000E+00 0.  1.
         25    2    1    2    0    0  0.14237457679E+03  0.44726368221E+02  0.18698783338E+04  0.18799901815E+04  0.12508849211E+03 0.  0.
         23    2    1    2    0    0 -0.14237457679E+03 -0.44726368221E+02  0.52276982358E+03  0.55111233596E+03  0.90363434376E+02 0.  0.
          5    1    3    3  502    0  0.83498857126E+02  0.58441385007E+01  0.41401976840E+03  0.42241691978E+03  0.41800000000E+01 0. -1.
         -5    1    3    3    0  502  0.58875719667E+02  0.38882229721E+02  0.14558585654E+04  0.14575732617E+04  0.41800000000E+01 0. -1.
        -11    1    4    4    0    0 -0.78422039057E+02 -0.27796188899E+02  0.14152740091E+03  0.16417262115E+03  0.00000000000E+00 0.  1.
         11    1    4    4    0    0 -0.63952537735E+02 -0.16930179323E+02  0.38124242267E+03  0.38693971481E+03  0.00000000000E+00 0. -1.
</event>
<event>
 8    1  0.6493926E-009  0.1784865E+03  0.7561462E-02  0.1169276E+00
         -1   -1    0    0    0  501 -0.00000000000E+00  0.00000000000E+00  0.17776635585E+03  0.17776635585E+03  0.00000000000E+00 0.  1.
          1   -1    0    0  501    0  0.00000000000E+00 -0.00000000000E+00 -0.20021188212E+03  0.20021188212E+03  0.00000000000E+00 0. -1.
         25    2    1    2    0    0 -0.81932967233E+02  0.13392422485E+03  0.18250014399E+02  0.20156692357E+03  0.12508977788E+03 0.  0.
         23    2    1    2    0    0  0.81932967233E+02 -0.13392422485E+03 -0.40695540671E+02  0.17641131441E+03  0.69398239871E+02 0.  0.
          5    1    3    3  502    0 -0.41758759097E+01  0.11541003469E+03 -0.11599926401E+02  0.11614191638E+03  0.41800000000E+01 0.  1.
         -5    1    3    3    0  502 -0.77757091324E+02  0.18514190163E+02  0.29849940800E+02  0.85425007195E+02  0.41800000000E+01 0.  1.
        -11    1    4    4    0    0  0.74643414305E+02 -0.90366216188E+02 -0.55698088025E+02  0.12976890743E+03  0.00000000000E+00 0. -1.
         11    1    4    4    0    0  0.72895529287E+01 -0.43558008667E+02  0.15002547354E+02  0.46642406971E+02  0.00000000000E+00 0.  1.
</event>
<event>
 8    1  0.6493926E-009  0.7968249E+02  0.7561462E-02  0.1329955E+00
          2   -1    0    0  501    0  0.00000000000E+00  0.00000000000E+00  0.45974096710E+02  0.45974096710E+02  0.00000000000E+00 0. -1.
         -2   -1    0    0    0  501 -0.00000000000E+00 -0.00000000000E+00 -0.30305401093E+03  0.30305401093E+03  0.00000000000E+00 0.  1.
         25    2    1    2    0    0  0.54954392162E+01  0.29194921103E+02 -0.91642564667E+02  0.15787890906E+03  0.12507936279E+03 0.  0.
         23    2    1    2    0    0 -0.54954392162E+01 -0.29194921103E+02 -0.16543734955E+03  0.19114919858E+03  0.91027227917E+02 0.  0.
          5    1    3    3  502    0  0.12445198343E+02  0.54770159723E+02  0.59783881184E+01  0.56638033885E+02  0.41800000000E+01 0. -1.
         -5    1    3    3    0  502 -0.69497591266E+01 -0.25575238620E+02 -0.97620952786E+02  0.10124087517E+03  0.41800000000E+01 0. -1.
        -11    1    4    4    0    0 -0.37849100968E+02 -0.12895646143E+02 -0.14311677286E+03  0.14859765411E+03  0.00000000000E+00 0.  1.
         11    1    4    4    0    0  0.32353661752E+02 -0.16299274960E+02 -0.22320576687E+02  0.42551544468E+02  0.00000000000E+00 0. -1.
</event>
<event>
 8    1  0.6493926E-009  0.1747765E+03  0.7561462E-02  0.1172956E+00
          2   -1    0    0  501    0  0.00000000000E+00  0.00000000000E+00  0.78015748378E+02  0.78015748378E+02  0.00000000000E+00 0. -1.
         -2   -1    0    0    0  501 -0.00000000000E+00 -0.00000000000E+00 -0.58823689591E+03  0.58823689591E+03  0.00000000000E+00 0.  1.
         25    2    1    2    0    0 -0.13251821623E+03 -0.71940414157E+02 -0.10112124508E+03  0.22047480266E+03  0.12508849499E+03 0.  0.
         23    2    1    2    0    0  0.13251821623E+03  0.71940414157E+02 -0.40909990245E+03  0.44577784163E+03  0.92836701159E+02 0.  0.
          5    1    3    3  502    0 -0.67719502145E+02 -0.82378831301E+02 -0.87469306908E+01  0.10708026902E+03  0.41800000000E+01 0. -1.
         -5    1    3    3    0  502 -0.64798714084E+02  0.10438417144E+02 -0.92374314393E+02  0.11339453364E+03  0.41800000000E+01 0. -1.
        -11    1    4    4    0    0  0.37238743765E+02 -0.22007877920E+02 -0.10203411351E+03  0.11082432516E+03  0.00000000000E+00 0. -1.
         11    1    4    4    0    0  0.95279472464E+02  0.93948292077E+02 -0.30706578894E+03  0.33495351647E+03  0.00000000000E+00 0.  1.
</event>
<event>
 8    1  0.6493926E-009  0.7872503E+02  0.7561462E-02  0.1332709E+00
          1   -1    0    0  501    0  0.00000000000E+00  0.00000000000E+00  0.17959339290E+03  0.17959339290E+03  0.00000000000E+00 0. -1.
         -1   -1    0    0    0  501 -0.00000000000E+00 -0.00000000000E+00 -0.70737322448E+02  0.70737322448E+02  0.00000000000E+00 0.  1.
         25    2    1    2    0    0  0.44752755491E+01  0.11343255288E+02  0.98617140752E+02  0.15975884551E+03  0.12509536657E+03 0.  0.
         23    2    1    2    0    0 -0.44752755491E+01 -0.11343255288E+02  0.10238929699E+02  0.90571869834E+02  0.89161260602E+02 0.  0.
          5    1    3    3  502    0  0.54200325045E+02 -0.28903574686E+02  0.47183505389E+02  0.77568340484E+02  0.41800000000E+01 0.  1.
         -5    1    3    3    0  502 -0.49725049495E+02  0.40246829974E+02  0.51433635362E+02  0.82190505029E+02  0.41800000000E+01 0.  1.
        -11    1    4    4    0    0  0.14499591200E+01 -0.20672054001E+02  0.47437511243E+02  0.51766337237E+02  0.00000000000E+00 0. -1.
         11    1    4    4    0    0 -0.59252346691E+01  0.93287987125E+01 -0.37198581544E+02  0.38805532597E+02  0.00000000000E+00 0.  1.
</event>
<event>
 8    1  0.6493926E-009  0.1009457E+03  0.7561462E-02  0.1278320E+00
          2   -1    0    0  501    0  0.00000000000E+00  0.00000000000E+00  0.79046144520E+03  0.79046144520E+03  0.00000000000E+00 0. -1.
         -2   -1    0    0    0  501 -0.00000000000E+00 -0.00000000000E+00 -0.22734679386E+02  0.22734679386E+02  0.00000000000E+00 0.  1.
         25    2    1    2    0    0  0.73987341852E+02  0.32121071288E+01  0.44543443100E+03  0.46855430874E+03  0.12508742356E+03 0.  0.
         23    2    1    2    0    0 -0.73987341852E+02 -0.32121071288E+01  0.32229233482E+03  0.34464181585E+03  0.97062803188E+02 0.  0.
          5    1    3    3  502    0  0.72445412878E+02 -0.10292637252E+02  0.10627765325E+03  0.12909952831E+03  0.41800000000E+01 0.  1.
         -5    1    3    3    0  502  0.15419289741E+01  0.13504744381E+02  0.33915677775E+03  0.33945478043E+03  0.41800000000E+01 0.  1.
        -11    1    4    4    0    0 -0.30800281054E+02  0.41850316308E+02  0.88174219306E+02  0.10234646666E+03  0.00000000000E+00 0. -1.
         11    1    4    4    0    0 -0.43187060798E+02 -0.45062423437E+02  0.23411811551E+03  0.24229534919E+03  0.00000000000E+00 0.  1.
</event>
<event>
 8    1  0.6493926E-009  0.1098649E+03  0.7561462E-02  0.1260820E+00
          2   -1    0    0  501    0  0.00000000000E+00  0.00000000000E+00  0.25936191309E+03  0.25936191309E+03  0.00000000000E+00 0. -1.
         -2   -1    0    0    0  501 -0.00000000000E+00 -0.00000000000E+00 -0.63244024618E+02  0.63244024618E+02  0.00000000000E+00 0.  1.
         25    2    1    2    0    0 -0.25005896633E+01  0.43027465216E+02  0.18184253439E+03  0.22488292354E+03  0.12509199125E+03 0.  0.
         23    2    1    2    0    0  0.25005896633E+01 -0.43027465216E+02  0.14275354081E+02  0.97723014168E+02  0.86535461242E+02 0.  0.
          5    1    3    3  502    0  0.52022107082E+02 -0.11307212512E+02  0.56577929626E+02  0.77799017994E+02  0.41800000000E+01 0. -1.
         -5    1    3    3    0  502 -0.54522696745E+02  0.54334677728E+02  0.12526460477E+03  0.14708390555E+03  0.41800000000E+01 0. -1.
        -11    1    4    4    0    0 -0.37442290521E+02 -0.27191738937E+02  0.26140553940E+02  0.53147383248E+02  0.00000000000E+00 0.  1.
         11    1    4    4    0    0  0.39942880184E+02 -0.15835726280E+02 -0.11865199859E+02  0.44575630920E+02  0.00000000000E+00 0. -1.
</event>
<event>
 8    1  0.6493926E-009  0.1114777E+03  0.7561462E-02  0.1257858E+00
          1   -1    0    0  501    0  0.00000000000E+00  0.00000000000E+00  0.22825007779E+04  0.22825007779E+04  0.00000000000E+00 0. -1.
         -1   -1    0    0    0  501 -0.00000000000E+00 -0.00000000000E+00 -0.10075037308E+02  0.10075037308E+02  0.00000000000E+00 0.  1.
         25    2    1    2    0    0  0.54582016901E+02  0.12512984530E+02  0.19842699509E+04  0.19889976216E+04  0.12509408263E+03 0.  0.
         23    2    1    2    0    0 -0.54582016901E+02 -0.12512984530E+02  0.28815578971E+03  0.30357819358E+03  0.77396312087E+02 0.  0.
          5    1    3    3  502    0 -0.35873678305E+01 -0.48375996459E+02  0.97374179682E+03  0.97495828912E+03  0.41800000000E+01 0.  1.
         -5    1    3    3    0  502  0.58169384731E+02  0.60888980988E+02  0.10105281541E+04  0.10140393325E+04  0.41800000000E+01 0.  1.
        -11    1    4    4    0    0 -0.42867326972E+02  0.25703298771E+02  0.10747856018E+03  0.11853230863E+03  0.00000000000E+00 0.  1.
         11    1    4    4    0    0 -0.11714689928E+02 -0.38216283300E+02  0.18067722953E+03  0.18504588496E+03  0.00000000000E+00 0. -1.
</event>
<event>
 8    1  0.6493926E-009  0.1186424E+03  0.7561462E-02  0.1245354E+00
          2   -1    0    0  501    0  0.00000000000E+00  0.00000000000E+00  0.31311809299E+03  0.31311809299E+03  0.00000000000E+00 0. -1.
         -2   -1    0    0    0  501 -0.00000000000E+00 -0.00000000000E+00 -0.80511801285E+02  0.80511801285E+02  0.00000000000E+00 0.  1.
         25    2    1    2    0    0 -0.97089612820E+02  0.40713556874E+02  0.18292771294E+03  0.24534285950E+03  0.12508630586E+03 0.  0.
         23    2    1    2    0    0  0.97089612820E+02 -0.40713556874E+02  0.49678578774E+02  0.14828703478E+03  0.91853670939E+02 0.  0.
          5    1    3    3  502    0 -0.10307032796E+03  0.46940345547E+02  0.19761122360E+03  0.22780376783E+03  0.41800000000E+01 0. -1.
         -5    1    3    3    0  502  0.59807151362E+01 -0.62267886730E+01 -0.14683510669E+02  0.17539091661E+02  0.41800000000E+01 0. -1.
        -11    1    4    4    0    0  0.65446120505E+02 -0.48872976707E+02  0.71859829967E+02  0.10879153324E+03  0.00000000000E+00 0.  1.
         11    1    4    4    0    0  0.31643492315E+02  0.81594198331E+01 -0.22181251192E+02  0.39495501546E+02  0.00000000000E+00 0. -1.
</event>
<event>
 8    1  0.6493926E-009  0.1118072E+03  0.7561462E-02  0.1257259E+00
          4   -1    0    0  501    0  0.00000000000E+00  0.00000000000E+00  0.91871602655E+03  0.91871602655E+03  0.00000000000E+00 0. -1.
         -4   -1    0    0    0  501 -0.00000000000E+00 -0.00000000000E+00 -0.15004861948E+02  0.15004861948E+02  0.00000000000E+00 0.  1.
         25    2    1    2    0    0  0.32646684244E+02  0.31230580954E+02  0.54033291914E+03  0.55645869353E+03  0.12508180891E+03 0.  0.
         23    2    1    2    0    0 -0.32646684244E+02 -0.31230580954E+02  0.36337824546E+03  0.37726219496E+03  0.90784686473E+02 0.  0.
          5    1    3    3  502    0 -0.59258583230E+01  0.68224172478E+02  0.40717425870E+03  0.41291403810E+03  0.41800000000E+01 0. -1.
         -5    1    3    3    0  502  0.38572542567E+02 -0.36993591523E+02  0.13315866044E+03  0.14354465543E+03  0.41800000000E+01 0. -1.
        -11    1    4    4    0    0  0.18708341665E+01 -0.57805151080E+02  0.20497976133E+03  0.21298271777E+03  0.00000000000E+00 0. -1.
         11    1    4    4    0    0 -0.34517518410E+02  0.26574570126E+02  0.15839848413E+03  0.16427947720E+03  0.00000000000E+00 0.  1.
</event>
<event>
 8    1  0.6493926E-009  0.9811546E+02  0.7561462E-02  0.1284310E+00
          1   -1    0    0  501    0  0.00000000000E+00  0.00000000000E+00  0.10359761697E+04  0.10359761697E+04  0.00000000000E+00 0. -1.
         -1   -1    0    0    0  501 -0.00000000000E+00 -0.00000000000E+00 -0.14552528826E+02  0.14552528826E+02  0.00000000000E+00 0.  1.
         25    2    1    2    0    0 -0.29994069760E+02 -0.99875235160E+01  0.77602827004E+03  0.78668092030E+03  0.12509036581E+03 0.  0.
         23    2    1    2    0    0  0.29994069760E+02  0.99875235160E+01  0.24539537085E+03  0.26384777824E+03  0.91637149678E+02 0.  0.
          5    1    3    3  502    0 -0.78249539632E+01 -0.63381288154E+02  0.53335986142E+03  0.53718584472E+03  0.41800000000E+01 0.  1.
         -5    1    3    3    0  502 -0.22169115797E+02  0.53393764638E+02  0.24266840861E+03  0.24949507558E+03  0.41800000000E+01 0.  1.
        -11    1    4    4    0    0  0.86942723586E+01 -0.28763427717E+02  0.25083592637E+02  0.39142199292E+02  0.00000000000E+00 0.  1.
         11    1    4    4    0    0  0.21299797402E+02  0.38750951233E+02  0.22031177822E+03  0.22470557895E+03  0.00000000000E+00 0. -1.
</event>
<event>
 8    1  0.6493926E-009  0.9014980E+02  0.7561462E-02  0.1302489E+00
          2   -1    0    0  501    0  0.00000000000E+00  0.00000000000E+00  0.50251201351E+03  0.50251201351E+03  0.00000000000E+00 0. -1.
         -2   -1    0    0    0  501 -0.00000000000E+00 -0.00000000000E+00 -0.24688168982E+02  0.24688168982E+02  0.00000000000E+00 0.  1.
         25    2    1    2    0    0 -0.42473040497E+01  0.30275896627E+02  0.28935644217E+03  0.31670490845E+03  0.12506070087E+03 0.  0.
         23    2    1    2    0    0  0.42473040497E+01 -0.30275896627E+02  0.18846740235E+03  0.21049527404E+03  0.88620703762E+02 0.  0.
          5    1    3    3  502    0  0.34800097109E+02 -0.72670781013E+01  0.24200152778E+03  0.24463456222E+03  0.41800000000E+01 0. -1.
         -5    1    3    3    0  502 -0.39047401159E+02  0.37542974729E+02  0.47354914386E+02  0.72070346226E+02  0.41800000000E+01 0. -1.
        -11    1    4    4    0    0 -0.53921077830E+01  0.29316318694E+02  0.91886753219E+02  0.96600707996E+02  0.00000000000E+00 0. -1.
         11    1    4    4    0    0  0.96394118327E+01 -0.59592215321E+02  0.96580649134E+02  0.11389456604E+03  0.00000000000E+00 0.  1.
</event>
<event>
 8    1  0.6493926E-009  0.1473943E+03  0.7561462E-02  0.1203712E+00
         -1   -1    0    0    0  501 -0.00000000000E+00  0.00000000000E+00  0.45304276591E+03  0.45304276591E+03  0.00000000000E+00 0.  1.
          1   -1    0    0  501    0  0.00000000000E+00 -0.00000000000E+00 -0.56673313398E+02  0.56673313398E+02  0.00000000000E+00 0. -1.
         25    2    1    2    0    0  0.10205682234E+03 -0.49719605602E+02  0.16083323145E+03  0.23324316033E+03  0.12508960522E+03 0.  0.
         23    2    1    2    0    0 -0.10205682234E+03  0.49719605602E+02  0.23553622106E+03  0.27647291898E+03  0.89846142538E+02 0.  0.
          5    1    3    3  502    0  0.76448516751E+02  0.24705542472E+02  0.42289134923E+02  0.90887748761E+02  0.41800000000E+01 0.  1.
         -5    1    3    3    0  502  0.25608305590E+02 -0.74425148075E+02  0.11854409652E+03  0.14235541157E+03  0.41800000000E+01 0.  1.
        -11    1    4    4    0    0 -0.10290500691E+03  0.18823684475E+02  0.13203132877E+03  0.16845190210E+03  0.00000000000E+00 0.  1.
         11    1    4    4    0    0  0.84818456694E+00  0.30895921128E+02  0.10350489229E+03  0.10802101688E+03  0.00000000000E+00 0. -1.
</event>
<event>
 8    1  0.6493926E-009  0.1090081E+03  0.7561462E-02  0.1262418E+00
         -1   -1    0    0    0  501 -0.00000000000E+00  0.00000000000E+00  0.18101446761E+02  0.18101446761E+02  0.00000000000E+00 0.  1.
          1   -1    0    0  501    0  0.00000000000E+00 -0.00000000000E+00 -0.67266217545E+03  0.67266217545E+03  0.00000000000E+00 0. -1.
         25    2    1    2    0    0  0.11529791895E+02  0.17553686171E+02 -0.41355465612E+03  0.43256816732E+03  0.12508676103E+03 0.  0.
         23    2    1    2    0    0 -0.11529791895E+02 -0.17553686171E+02 -0.24100607257E+03  0.25819545488E+03  0.90221382773E+02 0.  0.
          5    1    3    3  502    0  0.61634896349E+02 -0.17880848264E+02 -0.23859995005E+03  0.24711534503E+03  0.41800000000E+01 0. -1.
         -5    1    3    3    0  502 -0.50105104455E+02  0.35434534436E+02 -0.17495470607E+03  0.18545282230E+03  0.41800000000E+01 0. -1.
        -11    1    4    4    0    0 -0.25587691162E+02 -0.50367627614E+02 -0.15968185664E+03  0.16938100008E+03  0.00000000000E+00 0. -1.
         11    1    4    4    0    0  0.14057899267E+02  0.32813941443E+02 -0.81324215929E+02  0.88814454800E+02  0.00000000000E+00 0.  1.
</event>
<event>
 8    1  0.6493926E-009  0.1260505E+03  0.7561462E-02  0.1233437E+00
         -1   -1    0    0    0  501 -0.00000000000E+00  0.00000000000E+00  0.58029071378E+03  0.58029071378E+03  0.00000000000E+00 0.  1.
          1   -1    0    0  501    0  0.00000000000E+00 -0.00000000000E+00 -0.29523080252E+02  0.29523080252E+02  0.00000000000E+00 0. -1.
         25    2    1    2    0    0  0.11481433832E+02  0.69405310216E+02  0.34495976852E+03  0.37362396162E+03  0.12509477361E+03 0.  0.
         23    2    1    2    0    0 -0.11481433832E+02 -0.69405310216E+02  0.20580786500E+03  0.23618983241E+03  0.92086042538E+02 0.  0.
          5    1    3    3  502    0 -0.22350777671E+02  0.96947385417E+02  0.24632489256E+03  0.26569113251E+03  0.41800000000E+01 0. -1.
         -5    1    3    3    0  502  0.33832211503E+02 -0.27542075201E+02  0.98634875966E+02  0.10793282910E+03  0.41800000000E+01 0. -1.
        -11    1    4    4    0    0  0.18004572191E+02  0.12319621856E+02  0.82582960715E+02  0.85415941738E+02  0.00000000000E+00 0.  1.
         11    1    4    4    0    0 -0.29486006024E+02 -0.81724932072E+02  0.12322490429E+03  0.15077389068E+03  0.00000000000E+00 0. -1.
</event>
<event>
 8    1  0.6493926E-009  0.1268660E+03  0.7561462E-02  0.1232182E+00
         -1   -1    0    0    0  501 -0.00000000000E+00  0.00000000000E+00  0.10517083781E+03  0.10517083781E+03  0.00000000000E+00 0.  1.
          1   -1    0    0  501    0  0.00000000000E+00 -0.00000000000E+00 -0.22246714374E+03  0.22246714374E+03  0.00000000000E+00 0. -1.
         25    2    1    2    0    0  0.98418170365E+02 -0.36813957772E+02 -0.41962598975E+02  0.16867067962E+03  0.12509010635E+03 0.  0.
         23    2    1    2    0    0 -0.98418170365E+02  0.36813957772E+02 -0.75333706958E+02  0.15896730192E+03  0.92488009668E+02 0.  0.
          5    1    3    3  502    0 -0.17688852620E+02 -0.62767751857E+01  0.24686406450E+02  0.31291923513E+02  0.41800000000E+01 0. -1.
         -5    1    3    3    0  502  0.11610702298E+03 -0.30537182587E+02 -0.66649005425E+02  0.13737875611E+03  0.41800000000E+01 0. -1.
        -11    1    4    4    0    0 -0.26013069426E+02  0.32792905436E+02  0.13788191168E+02  0.44070042473E+02  0.00000000000E+00 0.  1.
         11    1    4    4    0    0 -0.72405100939E+02  0.40210523362E+01 -0.89121898127E+02  0.11489725945E+03  0.00000000000E+00 0. -1.
</event>
<event>
 8    1  0.6493926E-009  0.1044551E+03  0.7561462E-02  0.1271197E+00
         -1   -1    0    0    0  501 -0.00000000000E+00  0.00000000000E+00  0.31016395674E+02  0.31016395674E+02  0.00000000000E+00 0.  1.
          1   -1    0    0  501    0  0.00000000000E+00 -0.00000000000E+00 -0.55545340843E+03  0.55545340843E+03  0.00000000000E+00 0. -1.
         25    2    1    2    0    0 -0.62063041590E+02  0.22275212383E+02 -0.36586652181E+03  0.39224612314E+03  0.12510277024E+03 0.  0.
         23    2    1    2    0    0  0.62063041590E+02 -0.22275212383E+02 -0.15857049095E+03  0.19422368096E+03  0.90720622950E+02 0.  0.
          5    1    3    3  502    0  0.15733235469E+02 -0.38940119135E+02 -0.11712146089E+03  0.12449408250E+03  0.41800000000E+01 0. -1.
         -5    1    3    3    0  502 -0.77796277058E+02  0.61215331519E+02 -0.24874506091E+03  0.26775204064E+03  0.41800000000E+01 0. -1.
        -11    1    4    4    0    0  0.11757723265E+02 -0.10932645693E+02  0.93390520409E+01  0.18573763519E+02  0.00000000000E+00 0.  1.
         11    1    4    4    0    0  0.50305318324E+02 -0.11342566691E+02 -0.16790954299E+03  0.17564991744E+03  0.00000000000E+00 0. -1.
</event>
<event>
 8    1  0.6493926E-009  0.1098157E+03  0.7561462E-02  0.1260912E+00
          3   -1    0    0  501    0  0.00000000000E+00  0.00000000000E+00  0.28439379106E+03  0.28439379106E+03  0.00000000000E+00 0. -1.
         -3   -1    0    0    0  501 -0.00000000000E+00 -0.00000000000E+00 -0.47744575925E+02  0.47744575925E+02  0.00000000000E+00 0.  1.
         25    2    1    2    0    0 -0.44092066361E+01  0.42395532771E+02  0.12362080961E+03  0.18095903289E+03  0.12508894722E+03 0.  0.
         23    2    1    2    0    0  0.44092066361E+01 -0.42395532771E+02  0.11302840553E+03  0.15117933409E+03  0.90900760711E+02 0.  0.
          5    1    3    3  502    0  0.10057201901E+02  0.82769185147E+02  0.55138927567E+02  0.10004828361E+03  0.41800000000E+01 0. -1.
         -5    1    3    3    0  502 -0.14466408537E+02 -0.40373652375E+02  0.68481882039E+02  0.80910749284E+02  0.41800000000E+01 0. -1.
        -11    1    4    4    0    0  0.22151393688E+02  0.18979474719E+02  0.11779776681E+02  0.31458986659E+02  0.00000000000E+00 0.  1.
         11    1    4    4    0    0 -0.17742187052E+02 -0.61375007490E+02  0.10124862885E+03  0.11972034743E+03  0.00000000000E+00 0. -1.
</event>
<event>
 8    1  0.6493926E-009  0.1449788E+03  0.7561462E-02  0.1206782E+00
         -1   -1    0    0    0  501 -0.00000000000E+00  0.00000000000E+00  0.72556451704E+03  0.72556451704E+03  0.00000000000E+00 0.  1.
          1   -1    0    0  501    0  0.00000000000E+00 -0.00000000000E+00 -0.47502198702E+02  0.47502198702E+02  0.00000000000E+00 0. -1.
         25    2    1    2    0    0 -0.11619935862E+03  0.41233241996E+02  0.53802105163E+03  0.56596518906E+03  0.12508985587E+03 0.  0.
         23    2    1    2    0    0  0.11619935862E+03 -0.41233241996E+02  0.14004126671E+03  0.20710152668E+03  0.89872213632E+02 0.  0.
          5    1    3    3  502    0 -0.84614004320E+02 -0.78763943974E+01  0.46327939293E+03  0.47102742556E+03  0.41800000000E+01 0.  1.
         -5    1    3    3    0  502 -0.31585354302E+02  0.49109636393E+02  0.74741658697E+02  0.94937763498E+02  0.41800000000E+01 0.  1.
        -11    1    4    4    0    0  0.30795334322E+02  0.23856937677E+02  0.13703962765E+02  0.41295334928E+02  0.00000000000E+00 0. -1.
         11    1    4    4    0    0  0.85404024300E+02 -0.65090179673E+02  0.12633730394E+03  0.16580619175E+03  0.00000000000E+00 0.  1.
</event>
<event>
 8    1  0.6493926E-009  0.1436798E+03  0.7561462E-02  0.1208462E+00
         -1   -1    0    0    0  501 -0.00000000000E+00  0.00000000000E+00  0.99404980470E+02  0.99404980470E+02  0.00000000000E+00 0.  1.
          1   -1    0    0  501    0  0.00000000000E+00 -0.00000000000E+00 -0.28725344460E+03  0.28725344460E+03  0.00000000000E+00 0. -1.
         25    2    1    2    0    0  0.11610166249E+03 -0.18296712865E+02 -0.16200529989E+03  0.23602544300E+03  0.12509167365E+03 0.  0.
         23    2    1    2    0    0 -0.11610166249E+03  0.18296712865E+02 -0.25843164236E+02  0.15063298206E+03  0.90598346643E+02 0.  0.
          5    1    3    3  502    0  0.12440056155E+03 -0.53514107249E+01 -0.17544450452E+03  0.21517988725E+03  0.41800000000E+01 0.  1.
         -5    1    3    3    0  502 -0.82988990677E+01 -0.12945302140E+02  0.13439204632E+02  0.20845555747E+02  0.41800000000E+01 0.  1.
        -11    1    4    4    0    0 -0.26275740137E+02  0.45881509087E+02 -0.19849687699E+02  0.56475990453E+02  0.00000000000E+00 0.  1.
         11    1    4    4    0    0 -0.89825922349E+02 -0.27584796222E+02 -0.59934765362E+01  0.94156991612E+02  0.00000000000E+00 0. -1.
</event>
<event>
 7    1  0.6493926E-009  0.1187473E+03  0.7561462E-02  0.1245178E+00
         -1   -1    0    0    0  501 -0.00000000000E+00  0.00000000000E+00  0.13146453532E+02  0.13146453532E+02  0.00000000000E+00 0.  1.
          1   -1    0    0  501    0  0.00000000000E+00 -0.00000000000E+00 -0.14736202662E+04  0.14736202662E+04  0.00000000000E+00 0. -1.
         23    2    1    2    0    0 -0.23589956076E+02 -0.51932569069E+02 -0.30922907596E+03  0.32734922339E+03  0.91002279523E+02 0.  0.
          5    1    1    2  502    0 -0.15476535372E+02 -0.33720103136E+02 -0.49976453132E+03  0.50115728836E+03  0.41800000000E+01 0. -1.
         -5    1    1    2    0  502  0.39066491448E+02  0.85652672205E+02 -0.65148020542E+03  0.65826020802E+03  0.41800000000E+01 0. -1.
        -11    1    3    3    0    0  0.10447782290E+02 -0.67635991771E+02 -0.17265879903E+03  0.18572787733E+03  0.00000000000E+00 0.  1.
         11    1    3    3    0    0 -0.34037738366E+02  0.15703422702E+02 -0.13657027693E+03  0.14162134606E+03  0.00000000000E+00 0. -1.
</event>
<event>
 7    1  0.1400135E-008  0.7687008E+02  0.7561462E-02  0.1338176E+00
         -1   -1    0    0    0  501 -0.00000000000E+00  0.00000000000E+00  0.27179706470E+02  0.27179706470E+02  0.00000000000E+00 0.  1.
          1   -1    0    0  501    0  0.00000000000E+00 -0.00000000000E+00 -0.30270403142E+03  0.30270403142E+03  0.00000000000E+00 0. -1.
         25    2    1    2    0    0 -0.34667637539E+02  0.48240289559E+01 -0.19760039619E+03  0.23646917233E+03  0.12508651621E+03 0.  0.
          5    1    3    3  502    0 -0.59691812890E+02  0.31731448068E+02 -0.18562573353E+03  0.19759651483E+03  0.41800000000E+01 0. -1.
         -5    1    3    3    0  502  0.25024175351E+02 -0.26907419112E+02 -0.11974662661E+02  0.38872657500E+02  0.41800000000E+01 0. -1.
        -11    1    1    2    0    0  0.48970809306E+01  0.13300398627E+02 -0.37220474628E+02  0.39827700621E+02  0.00000000000E+00 0. -1.
         11    1    1    2    0    0  0.29770556609E+02 -0.18124427583E+02 -0.40703454127E+02  0.53586864938E+02  0.00000000000E+00 0.  1.
</event>
<event>
 8    1  0.6493926E-009  0.9187034E+02  0.7561462E-02  0.1298385E+00
          1   -1    0    0  501    0  0.00000000000E+00  0.00000000000E+00  0.48577458260E+03  0.48577458260E+03  0.00000000000E+00 0. -1.
         -1   -1    0    0    0  501 -0.00000000000E+00 -0.00000000000E+00 -0.28561959728E+02  0.28561959728E+02  0.00000000000E+00 0.  1.
         25    2    1    2    0    0  0.31742013098E+02 -0.12046855234E+02  0.32925574594E+03  0.35384998667E+03  0.12509110566E+03 0.  0.
         23    2    1    2    0    0 -0.31742013098E+02  0.12046855234E+02  0.12795687694E+03  0.16048655566E+03  0.90720946186E+02 0.  0.
          5    1    3    3  502    0  0.61899388855E+02  0.10926725099E+01  0.74548113208E+02  0.96992895908E+02  0.41800000000E+01 0. -1.
         -5    1    3    3    0  502 -0.30157375757E+02 -0.13139527744E+02  0.25470763273E+03  0.25685709076E+03  0.41800000000E+01 0. -1.
        -11    1    4    4    0    0 -0.33741381534E+01 -0.34151571820E+02  0.20098590343E+02  0.39770189839E+02  0.00000000000E+00 0.  1.
         11    1    4    4    0    0 -0.28367874945E+02  0.46198427054E+02  0.10785828659E+03  0.12071636582E+03  0.00000000000E+00 0. -1.
</event>
<event>
 8    1  0.6493926E-009  0.1202072E+03  0.7561462E-02  0.1242756E+00
         -2   -1    0    0    0  501 -0.00000000000E+00  0.00000000000E+00  0.23693168687E+02  0.23693168687E+02  0.00000000000E+00 0.  1.
          2   -1    0    0  501    0  0.00000000000E+00 -0.00000000000E+00 -0.92891530506E+03  0.92891530506E+03  0.00000000000E+00 0. -1.
         25    2    1    2    0    0 -0.78958441492E+02  0.16443207598E+02 -0.68849092302E+03  0.70439631817E+03  0.12509839091E+03 0.  0.
         23    2    1    2    0    0  0.78958441492E+02 -0.16443207598E+02 -0.21673121335E+03  0.24821215558E+03  0.90177828635E+02 0.  0.
          5    1    3    3  502    0 -0.57217227391E+02 -0.35960955127E+02 -0.17303541775E+03  0.18581100506E+03  0.41800000000E+01 0.  1.
         -5    1    3    3    0  502 -0.21741214101E+02  0.52404162725E+02 -0.51545550527E+03  0.51858531311E+03  0.41800000000E+01 0.  1.
        -11    1    4    4    0    0  0.51055963682E+02 -0.50484656980E+02 -0.97270672586E+02  0.12090076825E+03  0.00000000000E+00 0.  1.
         11    1    4    4    0    0  0.27902477811E+02  0.34041449382E+02 -0.11946054076E+03  0.12731138733E+03  0.00000000000E+00 0. -1.
</event>
<event>
 8    1  0.6493926E-009  0.1056435E+03  0.7561462E-02  0.1268857E+00
          1   -1    0    0  501    0  0.00000000000E+00  0.00000000000E+00  0.45997717170E+02  0.45997717170E+02  0.00000000000E+00 0. -1.
         -1   -1    0    0    0  501 -0.00000000000E+00 -0.00000000000E+00 -0.26610060355E+03  0.26610060355E+03  0.00000000000E+00 0.  1.
         25    2    1    2    0    0 -0.16044959419E+02  0.31111279160E+02 -0.11973751066E+03  0.17666391325E+03  0.12509082450E+03 0.  0.
         23    2    1    2    0    0  0.16044959419E+02 -0.31111279160E+02 -0.10036537572E+03  0.13543440746E+03  0.83928050538E+02 0.  0.
          5    1    3    3  502    0  0.48692517284E+02 -0.49813609939E+00 -0.18324647248E+02  0.52196498693E+02  0.41800000000E+01 0.  1.
         -5    1    3    3    0  502 -0.64737476703E+02  0.31609415259E+02 -0.10141286341E+03  0.12446741456E+03  0.41800000000E+01 0.  1.
        -11    1    4    4    0    0  0.41040256007E+02  0.99035955618E+01 -0.38713023653E+02  0.57280729906E+02  0.00000000000E+00 0.  1.
         11    1    4    4    0    0 -0.24995296588E+02 -0.41014874722E+02 -0.61652352068E+02  0.78153677556E+02  0.00000000000E+00 0. -1.
</event>
<event>
 7    1  0.6493926E-009  0.8465641E+02  0.7561462E-02  0.1316334E+00
         -1   -1    0    0    0  501 -0.00000000000E+00  0.00000000000E+00  0.68564574808E+02  0.68564574808E+02  0.00000000000E+00 0.  1.
          1   -1    0    0  501    0  0.00000000000E+00 -0.00000000000E+00 -0.24062323765E+03  0.24062323765E+03  0.00000000000E+00 0. -1.
         23    2    1    2    0    0  0.34380216759E+01  0.68548018784E+02 -0.71861203384E+02  0.13495410772E+03  0.91312254204E+02 0.  0.
          5    1    1    2  502    0 -0.41477186369E+01 -0.68562025809E+02 -0.12841954883E+03  0.14569491369E+03  0.41800000000E+01 0. -1.
         -5    1    1    2    0  502  0.70969696106E+00  0.14007025152E-01  0.28222089370E+02  0.28538791046E+02  0.41800000000E+01 0. -1.
        -11    1    3    3    0    0 -0.27605015510E+02  0.88797488600E+01 -0.60021746331E+02  0.66659559358E+02  0.00000000000E+00 0. -1.
         11    1    3    3    0    0  0.31043037186E+02  0.59668269924E+02 -0.11839457053E+02  0.68294548367E+02  0.00000000000E+00 0.  1.
</event>
<event>
 8    1  0.6493926E-009  0.1880535E+03  0.7561462E-02  0.1160229E+00
         -1   -1    0    0    0  501 -0.00000000000E+00  0.00000000000E+00  0.21356936036E+03  0.21356936036E+03  0.00000000000E+00 0.  1.
          1   -1    0    0  501    0  0.00000000000E+00 -0.00000000000E+00 -0.18324286206E+03  0.18324286206E+03  0.00000000000E+00 0. -1.
         25    2    1    2    0    0 -0.12610682929E+03  0.10184010644E+03  0.56729813877E+01  0.20482141851E+03  0.12508113803E+03 0.  0.
         23    2    1    2    0    0  0.12610682929E+03 -0.10184010644E+03  0.24653516916E+02  0.19199080391E+03  0.99891607334E+02 0.  0.
          5    1    3    3  502    0  0.17982054697E+02  0.19791079043E+02  0.26227228209E+02  0.37687942373E+02  0.41800000000E+01 0. -1.
         -5    1    3    3    0  502 -0.14408888398E+03  0.82049027397E+02 -0.20554246821E+02  0.16713347614E+03  0.41800000000E+01 0. -1.
        -11    1    4    4    0    0  0.60549497289E+02  0.17626079164E+01  0.33226253124E+02  0.69089306736E+02  0.00000000000E+00 0.  1.
         11    1    4    4    0    0  0.65557331998E+02 -0.10360271436E+03 -0.85727362079E+01  0.12290149717E+03  0.00000000000E+00 0. -1.
</event>
<event>
 8    1  0.6493926E-009  0.1094496E+03  0.7561462E-02  0.1261592E+00
         -2   -1    0    0    0  501 -0.00000000000E+00  0.00000000000E+00  0.35671938361E+02  0.35671938361E+02  0.00000000000E+00 0.  1.
          2   -1    0    0  501    0  0.00000000000E+00 -0.00000000000E+00 -0.39351683642E+03  0.39351683642E+03  0.00000000000E+00 0. -1.
         25    2    1    2    0    0  0.21111274815E+02 -0.36848188096E+02 -0.16653352604E+03  0.21257129433E+03  0.12509862104E+03 0.  0.
         23    2    1    2    0    0 -0.21111274815E+02  0.36848188096E+02 -0.19131137202E+03  0.21661748045E+03  0.92301770754E+02 0.  0.
          5    1    3    3  502    0  0.66861698265E+02 -0.22979552937E+02 -0.50437454142E+02  0.86948005891E+02  0.41800000000E+01 0.  1.
         -5    1    3    3    0  502 -0.45750423450E+02 -0.13868635159E+02 -0.11609607190E+03  0.12562328844E+03  0.41800000000E+01 0.  1.
        -11    1    4    4    0    0 -0.43383054407E+02 -0.13166709250E+02 -0.10548565519E+03  0.11481583120E+03  0.00000000000E+00 0.  1.
         11    1    4    4    0    0  0.22271779592E+02  0.50014897346E+02 -0.85825716827E+02  0.10180164926E+03  0.00000000000E+00 0. -1.
</event>
<event>
 8    1  0.6493926E-009  0.1698431E+03  0.7561462E-02  0.1178012E+00
         -2   -1    0    0    0  501 -0.00000000000E+00  0.00000000000E+00  0.49164483226E+02  0.49164483226E+02  0.00000000000E+00 0.  1.
          2   -1    0    0  501    0  0.00000000000E+00 -0.00000000000E+00 -0.73340878539E+03  0.73340878539E+03  0.00000000000E+00 0. -1.
         25    2    1    2    0    0  0.14680097138E+03 -0.16503335378E+02 -0.25983234570E+03  0.32401118662E+03  0.12509003120E+03 0.  0.
         23    2    1    2    0    0 -0.14680097138E+03  0.16503335378E+02 -0.42441195647E+03  0.45856208200E+03  0.91273155839E+02 0.  0.
          5    1    3    3  502    0  0.15904709191E+03 -0.25601855844E+02 -0.26245209581E+03  0.30797728400E+03  0.41800000000E+01 0. -1.
         -5    1    3    3    0  502 -0.12246120524E+02  0.90985204668E+01  0.26197501083E+01  0.16033902619E+02  0.41800000000E+01 0. -1.
        -11    1    4    4    0    0 -0.11996624014E+03 -0.15489522966E+02 -0.23166276168E+03  0.26134165234E+03  0.00000000000E+00 0.  1.
         11    1    4    4    0    0 -0.26834731239E+02  0.31992858344E+02 -0.19274919478E+03  0.19722042966E+03  0.00000000000E+00 0. -1.
</event>
<event>
 8    1  0.6493926E-009  0.2018940E+03  0.7561462E-02  0.1148151E+00
         -1   -1    0    0    0  501 -0.00000000000E+00  0.00000000000E+00  0.34345217644E+03  0.34345217644E+03  0.00000000000E+00 0.  1.
          1   -1    0    0  501    0  0.00000000000E+00 -0.00000000000E+00 -0.14659239445E+03  0.14659239445E+03  0.00000000000E+00 0. -1.
         25    2    1    2    0    0  0.16497210461E+03  0.10197476310E+03  0.13086155624E+03  0.26530610909E+03  0.12509171440E+03 0.  0.
         23    2    1    2    0    0 -0.16497210461E+03 -0.10197476310E+03  0.65998225759E+02  0.22473846180E+03  0.92395686035E+02 0.  0.
          5    1    3    3  502    0  0.62871387810E+02  0.21117364318E+02  0.11661693529E+03  0.13422271222E+03  0.41800000000E+01 0. -1.
         -5    1    3    3    0  502  0.10210071680E+03  0.80857398780E+02  0.14244620953E+02  0.13108339687E+03  0.41800000000E+01 0. -1.
        -11    1    4    4    0    0 -0.96994453333E+02 -0.99572813941E+02  0.15182213052E+02  0.13983264585E+03  0.00000000000E+00 0. -1.
         11    1    4    4    0    0 -0.67977651281E+02 -0.24019491573E+01  0.50816012707E+02  0.84905815942E+02  0.00000000000E+00 0.  1.
</event>
<event>
 8    1  0.6493926E-009  0.1369998E+03  0.7561462E-02  0.1217424E+00
         -2   -1    0    0    0  501 -0.00000000000E+00  0.00000000000E+00  0.58460165229E+03  0.58460165229E+03  0.00000000000E+00 0.  1.
          2   -1    0    0  501    0  0.00000000000E+00 -0.00000000000E+00 -0.51614936200E+02  0.51614936200E+02  0.00000000000E+00 0. -1.
         25    2    1    2    0    0  0.99248885904E+02  0.68561542763E+02  0.16850169132E+03  0.24205816550E+03  0.12509320129E+03 0.  0.
         23    2    1    2    0    0 -0.99248885904E+02 -0.68561542763E+02  0.36448502477E+03  0.39415842298E+03  0.89221648886E+02 0.  0.
          5    1    3    3  502    0  0.32821816295E+02  0.57252191317E+02  0.63695286827E+01  0.66431380620E+02  0.41800000000E+01 0.  1.
         -5    1    3    3    0  502  0.66427069609E+02  0.11309351446E+02  0.16213216264E+03  0.17562678488E+03  0.41800000000E+01 0.  1.
        -11    1    4    4    0    0 -0.79280734081E+02 -0.11754412221E+02  0.13587917341E+03  0.15775535100E+03  0.00000000000E+00 0. -1.
         11    1    4    4    0    0 -0.19968151823E+02 -0.56807130543E+02  0.22860585136E+03  0.23640307198E+03  0.00000000000E+00 0.  1.
</event>
<event>
 8    1  0.6493926E-009  0.7530582E+02  0.7561462E-02  0.1342927E+00
          2   -1    0    0  501    0  0.00000000000E+00  0.00000000000E+00  0.53928765173E+02  0.53928765173E+02  0.00000000000E+00 0.  1.
         -2   -1    0    0    0  501 -0.00000000000E+00 -0.00000000000E+00 -0.26567699531E+03  0.26567699531E+03  0.00000000000E+00 0. -1.
         25    2    1    2    0    0  0.33036321351E+02  0.25234647794E+02 -0.15940462900E+03  0.20684716955E+03  0.12509088627E+03 0.  0.
         23    2    1    2    0    0 -0.33036321351E+02 -0.25234647794E+02 -0.52343601142E+02  0.11275859093E+03  0.90810028473E+02 0.  0.
          5    1    3    3  502    0  0.41833854130E+01 -0.19308172593E+02  0.14575674071E+02  0.24904395536E+02  0.41800000000E+01 0.  1.
         -5    1    3    3    0  502  0.28852935938E+02  0.44542820387E+02 -0.17398030307E+03  0.18194277401E+03  0.41800000000E+01 0.  1.
        -11    1    4    4    0    0  0.56001166390E+01 -0.36507987275E+02  0.10260069101E+02  0.38333581351E+02  0.00000000000E+00 0.  1.
         11    1    4    4    0    0 -0.38636437990E+02  0.11273339481E+02 -0.62603670243E+02  0.74425009584E+02  0.00000000000E+00 0. -1.
</event>
<event>
 8    1  0.6493926E-009  0.7468950E+02  0.7561462E-02  0.1344835E+00
          2   -1    0    0  501    0  0.00000000000E+00  0.00000000000E+00  0.22870952920E+03  0.22870952920E+03  0.00000000000E+00 0.  1.
         -2   -1    0    0    0  501 -0.00000000000E+00 -0.00000000000E+00 -0.74245895392E+02  0.74245895392E+02  0.00000000000E+00 0. -1.
         25    2    1    2    0    0 -0.59477196661E+02  0.37657580539E+02  0.10490329422E+03  0.17778754140E+03  0.12509227971E+03 0.  0.
         23    2    1    2    0    0  0.59477196661E+02 -0.37657580539E+02  0.49560339594E+02  0.12516788320E+03  0.90857808847E+02 0.  0.
          5    1    3    3  502    0 -0.35611966490E+02  0.21496116514E+02  0.13172154619E+03  0.13819671962E+03  0.41800000000E+01 0. -1.
         -5    1    3    3    0  502 -0.23865230171E+02  0.16161464025E+02 -0.26818251972E+02  0.39590821782E+02  0.41800000000E+01 0. -1.
        -11    1    4    4    0    0  0.29387418732E+02  0.10683394394E+01  0.66958557081E+02  0.73131457631E+02  0.00000000000E+00 0.  1.
         11    1    4    4    0    0  0.30089777930E+02 -0.38725919978E+02 -0.17398217486E+02  0.52036425566E+02  0.00000000000E+00 0. -1.
</event>
<event>
 8    1  0.6493926E-009  0.9711035E+02  0.7561462E-02  0.1286493E+00
         -2   -1    0    0    0  501 -0.00000000000E+00  0.00000000000E+00  0.77459485912E+02  0.77459485912E+02  0.00000000000E+00 0.  1.
          2   -1    0    0  501    0  0.00000000000E+00 -0.00000000000E+00 -0.20712444229E+03  0.20712444229E+03  0.00000000000E+00 0. -1.
         25    2    1    2    0    0  0.51230486945E+02 -0.12612375329E+02 -0.11415166963E+03  0.17737424027E+03  0.12508949847E+03 0.  0.
         23    2    1    2    0    0 -0.51230486945E+02  0.12612375329E+02 -0.15513286748E+02  0.10720968793E+03  0.92030540129E+02 0.  0.
          5    1    3    3  502    0  0.38143567373E+02 -0.52331482861E+02 -0.10774678129E+02  0.65780558824E+02  0.41800000000E+01 0.  1.
         -5    1    3    3    0  502  0.13086919572E+02  0.39719107532E+02 -0.10337699150E+03  0.11159368144E+03  0.41800000000E+01 0.  1.
        -11    1    4    4    0    0 -0.30660950574E+01 -0.25622312181E+02  0.23068645993E+02  0.34613093597E+02  0.00000000000E+00 0.  1.
         11    1    4    4    0    0 -0.48164391888E+02  0.38234687510E+02 -0.38581932741E+02  0.72596594334E+02  0.00000000000E+00 0. -1.
</event>
<event>
 7    1  0.6493926E-009  0.9246909E+02  0.7561462E-02  0.1296980E+00
          1   -1    0    0  501    0  0.00000000000E+00  0.00000000000E+00  0.50757678730E+02  0.50757678730E+02  0.00000000000E+00 0. -1.
         -1   -1    0    0    0  501 -0.00000000000E+00 -0.00000000000E+00 -0.26768561255E+03  0.26768561255E+03  0.00000000000E+00 0.  1.
         25    2    1    2    0    0  0.30433193346E+02  0.17242752831E+02 -0.21973551984E+03  0.25525364554E+03  0.12508890077E+03 0.  0.
          5    1    3    3  502    0 -0.26366879532E+02 -0.36286929129E+02 -0.12235849710E+03  0.13038798938E+03  0.41800000000E+01 0. -1.
         -5    1    3    3    0  502  0.56800072878E+02  0.53529681959E+02 -0.97377022748E+02  0.12486565616E+03  0.41800000000E+01 0. -1.
        -11    1    1    2    0    0 -0.22530731041E+02  0.15951610530E+02 -0.53178723189E+01  0.28113475163E+02  0.00000000000E+00 0.  1.
         11    1    1    2    0    0 -0.79024623049E+01 -0.33194363361E+02  0.81254583410E+01  0.35076170582E+02  0.00000000000E+00 0. -1.
</event>
<event>
 8    1  0.6493926E-009  0.1463852E+03  0.7561462E-02  0.1204987E+00
         -2   -1    0    0    0  501 -0.00000000000E+00  0.00000000000E+00  0.94393994529E+02  0.94393994529E+02  0.00000000000E+00 0.  1.
          2   -1    0    0  501    0  0.00000000000E+00 -0.00000000000E+00 -0.34673693003E+03  0.34673693003E+03  0.00000000000E+00 0. -1.
         25    2    1    2    0    0  0.83132480191E+02 -0.10989324240E+03 -0.82582199654E+02  0.20360063326E+03  0.12508342887E+03 0.  0.
         23    2    1    2    0    0 -0.83132480191E+02  0.10989324240E+03 -0.16976073585E+03  0.23753029130E+03  0.92813780555E+02 0.  0.
          5    1    3    3  502    0  0.17102893744E+02 -0.31713779707E+02 -0.93800970951E+02  0.10057021104E+03  0.41800000000E+01 0. -1.
         -5    1    3    3    0  502  0.66029586447E+02 -0.78179462693E+02  0.11218771297E+02  0.10303042222E+03  0.41800000000E+01 0. -1.
        -11    1    4    4    0    0 -0.59829905530E+02  0.22971612955E+02 -0.11648586416E+03  0.13295213103E+03  0.00000000000E+00 0. -1.
         11    1    4    4    0    0 -0.23302574660E+02  0.86921629445E+02 -0.53274871692E+02  0.10457816027E+03  0.00000000000E+00 0.  1.
</event>
<event>
 8    1  0.6493926E-009  0.1206874E+03  0.7561462E-02  0.1241967E+00
          2   -1    0    0  501    0  0.00000000000E+00  0.00000000000E+00  0.20772424408E+04  0.20772424408E+04  0.00000000000E+00 0. -1.
         -2   -1    0    0    0  501 -0.00000000000E+00 -0.00000000000E+00 -0.96888904517E+01  0.96888904517E+01  0.00000000000E+00 0.  1.
         25    2    1    2    0    0  0.53597788230E+02 -0.48257590779E+02  0.15329937276E+04  0.15397787856E+04  0.12508965481E+03 0.  0.
         23    2    1    2    0    0 -0.53597788230E+02  0.48257590779E+02  0.53455982276E+03  0.54715254567E+03  0.91761572293E+02 0.  0.
          5    1    3    3  502    0  0.84049499720E+02 -0.52418055817E+02  0.79864649259E+03  0.80477677868E+03  0.41800000000E+01 0.  1.
         -5    1    3    3    0  502 -0.30451711490E+02  0.41604650386E+01  0.73434723504E+03  0.73500200695E+03  0.41800000000E+01 0.  1.
        -11    1    4    4    0    0 -0.45240324149E+02 -0.14803932272E+02  0.15014334732E+03  0.15750831116E+03  0.00000000000E+00 0.  1.
         11    1    4    4    0    0 -0.83574640812E+01  0.63061523051E+02  0.38441647544E+03  0.38964423451E+03  0.00000000000E+00 0. -1.
</event>
<event>
 8    1  0.6493926E-009  0.9316486E+02  0.7561462E-02  0.1295364E+00
          2   -1    0    0  501    0  0.00000000000E+00  0.00000000000E+00  0.93959330238E+02  0.93959330238E+02  0.00000000000E+00 0. -1.
         -2   -1    0    0    0  501 -0.00000000000E+00 -0.00000000000E+00 -0.13028723583E+03  0.13028723583E+03  0.00000000000E+00 0.  1.
         25    2    1    2    0    0 -0.33842573671E+01 -0.22992546852E+02 -0.17500972348E+02  0.12842612286E+03  0.12508746776E+03 0.  0.
         23    2    1    2    0    0  0.33842573671E+01  0.22992546852E+02 -0.18826933249E+02  0.95820443217E+02  0.91032925440E+02 0.  0.
          5    1    3    3  502    0  0.22762168340E+02 -0.56597783111E+02 -0.46433051114E+02  0.76778421425E+02  0.41800000000E+01 0.  1.
         -5    1    3    3    0  502 -0.26146425707E+02  0.33605236259E+02  0.28932078766E+02  0.51647701431E+02  0.41800000000E+01 0.  1.
        -11    1    4    4    0    0  0.35417044243E+02 -0.96061510601E+01 -0.31533377896E+02  0.48383872133E+02  0.00000000000E+00 0.  1.
         11    1    4    4    0    0 -0.32032786876E+02  0.32598697912E+02  0.12706444647E+02  0.47436571084E+02  0.00000000000E+00 0. -1.
</event>
<event>
 8    1  0.6493926E-009  0.1578440E+03  0.7561462E-02  0.1191153E+00
         -3   -1    0    0    0  501 -0.00000000000E+00  0.00000000000E+00  0.22124455712E+03  0.22124455712E+03  0.00000000000E+00 0.  1.
          3   -1    0    0  501    0  0.00000000000E+00 -0.00000000000E+00 -0.11666581007E+03  0.11666581007E+03  0.00000000000E+00 0. -1.
         25    2    1    2    0    0  0.11607896306E+03 -0.13068891183E+02  0.45087656516E+02  0.17699022340E+03  0.12509005088E+03 0.  0.
         23    2    1    2    0    0 -0.11607896306E+03  0.13068891183E+02  0.59491090534E+02  0.16092014378E+03  0.93332637601E+02 0.  0.
          5    1    3    3  502    0  0.72034872139E+01  0.46226095435E+02  0.92587497278E+01  0.47874199458E+02  0.41800000000E+01 0.  1.
         -5    1    3    3    0  502  0.10887547584E+03 -0.59294986618E+02  0.35828906788E+02  0.12911602395E+03  0.41800000000E+01 0.  1.
        -11    1    4    4    0    0 -0.13813168258E+02  0.37128179761E+02 -0.11229869503E+01  0.39630372814E+02  0.00000000000E+00 0. -1.
         11    1    4    4    0    0 -0.10226579480E+03 -0.24059288578E+02  0.60614077484E+02  0.12128977097E+03  0.00000000000E+00 0.  1.
</event>
<event>
 8    1  0.6493926E-009  0.2106838E+03  0.7561462E-02  0.1141026E+00
         -1   -1    0    0    0  501 -0.00000000000E+00  0.00000000000E+00  0.19912066586E+03  0.19912066586E+03  0.00000000000E+00 0.  1.
          1   -1    0    0  501    0  0.00000000000E+00 -0.00000000000E+00 -0.28940804884E+03  0.28940804884E+03  0.00000000000E+00 0. -1.
         25    2    1    2    0    0  0.17446256256E+03  0.73580352129E+02  0.59794330489E+02  0.23469343407E+03  0.12511751310E+03 0.  0.
         23    2    1    2    0    0 -0.17446256256E+03 -0.73580352129E+02 -0.15008171347E+03  0.25383528063E+03  0.77824000280E+02 0.  0.
          5    1    3    3  502    0  0.84803431417E+02 -0.26290158457E+02  0.44935948918E+02  0.99596718404E+02  0.41800000000E+01 0. -1.
         -5    1    3    3    0  502  0.89659131140E+02  0.99870510586E+02  0.14858381571E+02  0.13509671567E+03  0.41800000000E+01 0. -1.
        -11    1    4    4    0    0 -0.95462373101E+02 -0.71341891013E+02 -0.12041666509E+03  0.16941931213E+03  0.00000000000E+00 0. -1.
         11    1    4    4    0    0 -0.79000189455E+02 -0.22384611164E+01 -0.29665048386E+02  0.84415968500E+02  0.00000000000E+00 0.  1.
</event>
<event>
 8    1  0.6493926E-009  0.1095089E+03  0.7561462E-02  0.1261482E+00
         -2   -1    0    0    0  501 -0.00000000000E+00  0.00000000000E+00  0.29955873076E+02  0.29955873076E+02  0.00000000000E+00 0.  1.
          2   -1    0    0  501    0  0.00000000000E+00 -0.00000000000E+00 -0.42772350245E+03  0.42772350245E+03  0.00000000000E+00 0. -1.
         25    2    1    2    0    0  0.74279325146E+01 -0.30263660683E+02 -0.17951397149E+03  0.22102048843E+03  0.12511485527E+03 0.  0.
         23    2    1    2    0    0 -0.74279325146E+01  0.30263660683E+02 -0.21825365789E+03  0.23665888709E+03  0.86033169875E+02 0.  0.
          5    1    3    3  502    0 -0.40333277312E+02  0.31053508052E+02 -0.68906735452E+02  0.85771231842E+02  0.41800000000E+01 0. -1.
         -5    1    3    3    0  502  0.47761209826E+02 -0.61317168735E+02 -0.11060723603E+03  0.13524925659E+03  0.41800000000E+01 0. -1.
        -11    1    4    4    0    0  0.26915804445E+02 -0.16887627139E+02 -0.97632613945E+02  0.10267316974E+03  0.00000000000E+00 0. -1.
         11    1    4    4    0    0 -0.34343736960E+02  0.47151287822E+02 -0.12062104395E+03  0.13398571735E+03  0.00000000000E+00 0.  1.
</event>
<event>
 8    1  0.6493926E-009  0.1723537E+03  0.7561462E-02  0.1175415E+00
         -1   -1    0    0    0  501 -0.00000000000E+00  0.00000000000E+00  0.57471926222E+03  0.57471926222E+03  0.00000000000E+00 0. -1.
          1   -1    0    0  501    0  0.00000000000E+00 -0.00000000000E+00 -0.10783944815E+03  0.10783944815E+03  0.00000000000E+00 0.  1.
         25    2    1    2    0    0  0.48659833520E+02 -0.14661087553E+03  0.46355605684E+03  0.50437430314E+03  0.12508673637E+03 0.  0.
         23    2    1    2    0    0 -0.48659833520E+02  0.14661087553E+03  0.33237572326E+01  0.17818440723E+03  0.88747435999E+02 0.  0.
          5    1    3    3  502    0 -0.34825027219E+02 -0.26875627547E+02  0.18099246117E+03  0.18630841440E+03  0.41800000000E+01 0. -1.
         -5    1    3    3    0  502  0.83484860739E+02 -0.11973524798E+03  0.28256359567E+03  0.31806588874E+03  0.41800000000E+01 0. -1.
        -11    1    4    4    0    0 -0.22586561904E+02  0.71817296878E+02 -0.42724676869E+02  0.86563704421E+02  0.00000000000E+00 0.  1.
         11    1    4    4    0    0 -0.26073271617E+02  0.74793578649E+02  0.46048434101E+02  0.91620702808E+02  0.00000000000E+00 0. -1.
</event>
<event>
 8    1  0.6493926E-009  0.1256969E+03  0.7561462E-02  0.1233984E+00
          1   -1    0    0  501    0  0.00000000000E+00  0.00000000000E+00  0.13967171590E+03  0.13967171590E+03  0.00000000000E+00 0. -1.
         -1   -1    0    0    0  501 -0.00000000000E+00 -0.00000000000E+00 -0.13888832547E+03  0.13888832547E+03  0.00000000000E+00 0.  1.
         25    2    1    2    0    0  0.64192037787E+02  0.50830456414E+02  0.17854321954E+02  0.15057875011E+03  0.12510327797E+03 0.  0.
         23    2    1    2    0    0 -0.64192037787E+02 -0.50830456414E+02 -0.17070931524E+02  0.12798129127E+03  0.96868163999E+02 0.  0.
          5    1    3    3  502    0 -0.86430042793E+01  0.61764686339E+02  0.39201823412E+02  0.73782337726E+02  0.41800000000E+01 0.  1.
         -5    1    3    3    0  502  0.72835042066E+02 -0.10934229924E+02 -0.21347501458E+02  0.76796412386E+02  0.41800000000E+01 0.  1.
        -11    1    4    4    0    0 -0.43698832190E+02  0.14976247848E+02 -0.33578031530E+02  0.57108319322E+02  0.00000000000E+00 0.  1.
         11    1    4    4    0    0 -0.20493205597E+02 -0.65806704263E+02  0.16507100006E+02  0.70872971944E+02  0.00000000000E+00 0. -1.
</event>
<event>
 8    1  0.6493926E-009  0.1616601E+03  0.7561462E-02  0.1186835E+00
         -2   -1    0    0    0  501 -0.00000000000E+00  0.00000000000E+00  0.35221261324E+02  0.35221261324E+02  0.00000000000E+00 0.  1.
          2   -1    0    0  501    0  0.00000000000E+00 -0.00000000000E+00 -0.98181365269E+03  0.98181365269E+03  0.00000000000E+00 0. -1.
         25    2    1    2    0    0 -0.12787747275E+03  0.56410152191E+02 -0.65113336440E+03  0.67761055163E+03  0.12508656257E+03 0.  0.
         23    2    1    2    0    0  0.12787747275E+03 -0.56410152191E+02 -0.29545902696E+03  0.33942436238E+03  0.91532004550E+02 0.  0.
          5    1    3    3  502    0 -0.11203556154E+03  0.72866052922E+02 -0.33607845498E+03  0.36170102159E+03  0.41800000000E+01 0.  1.
         -5    1    3    3    0  502 -0.15841911216E+02 -0.16455900731E+02 -0.31505490942E+03  0.31590953004E+03  0.41800000000E+01 0.  1.
        -11    1    4    4    0    0  0.90775436984E+02  0.89651421611E+01 -0.17713801871E+03  0.19924465214E+03  0.00000000000E+00 0. -1.
         11    1    4    4    0    0  0.37102035768E+02 -0.65375294352E+02 -0.11832100825E+03  0.14017971024E+03  0.00000000000E+00 0.  1.
</event>
<event>
 8    1  0.6493926E-009  0.1721291E+03  0.7561462E-02  0.1175646E+00
          2   -1    0    0  501    0  0.00000000000E+00  0.00000000000E+00  0.62230105528E+03  0.62230105528E+03  0.00000000000E+00 0. -1.
         -2   -1    0    0    0  501 -0.00000000000E+00 -0.00000000000E+00 -0.57981054946E+02  0.57981054946E+02  0.00000000000E+00 0.  1.
         25    2    1    2    0    0 -0.10298134023E+03  0.11080771026E+03  0.38158369400E+03  0.42911222779E+03  0.12509070077E+03 0.  0.
         23    2    1    2    0    0  0.10298134023E+03 -0.11080771026E+03  0.18273630634E+03  0.25116988244E+03  0.82524221326E+02 0.  0.
          5    1    3    3  502    0 -0.63635276594E+02  0.11744782142E+03  0.35900663786E+03  0.38307528975E+03  0.41800000000E+01 0.  1.
         -5    1    3    3    0  502 -0.39346063637E+02 -0.66401111681E+01  0.22577056138E+02  0.46036938038E+02  0.41800000000E+01 0.  1.
        -11    1    4    4    0    0  0.88049525886E+02 -0.12296439058E+03  0.17233086546E+03  0.22928342188E+03  0.00000000000E+00 0. -1.
         11    1    4    4    0    0  0.14931814345E+02  0.12156680324E+02  0.10405440879E+02  0.21886460564E+02  0.00000000000E+00 0.  1.
</event>
<event>
 8    1  0.6493926E-009  0.1736991E+03  0.7561462E-02  0.1174044E+00
         -3   -1    0    0    0  501 -0.00000000000E+00  0.00000000000E+00  0.14850388363E+03  0.14850388363E+03  0.00000000000E+00 0.  1.
          3   -1    0    0  501    0  0.00000000000E+00 -0.00000000000E+00 -0.22179619950E+03  0.22179619950E+03  0.00000000000E+00 0. -1.
         25    2    1    2    0    0  0.13737944883E+03  0.34169168212E+02  0.85654691724E+01  0.18910852544E+03  0.12509205457E+03 0.  0.
         23    2    1    2    0    0 -0.13737944883E+03 -0.34169168212E+02 -0.81857785041E+02  0.18119155769E+03  0.78032291971E+02 0.  0.
          5    1    3    3  502    0  0.15520524765E+03  0.65704500412E+01  0.23956668275E+01  0.15541895422E+03  0.41800000000E+01 0.  1.
         -5    1    3    3    0  502 -0.17825798819E+02  0.27598718170E+02  0.61698023449E+01  0.33689571223E+02  0.41800000000E+01 0.  1.
        -11    1    4    4    0    0 -0.64944995245E+02 -0.53236241552E+02 -0.59857337567E+02  0.10312541240E+03  0.00000000000E+00 0. -1.
         11    1    4    4    0    0 -0.72434453583E+02  0.19067073341E+02 -0.22000447475E+02  0.78066145292E+02  0.00000000000E+00 0.  1.
</event>
<event>
 8    1  0.6493926E-009  0.9246848E+02  0.7561462E-02  0.1296982E+00
         -4   -1    0    0    0  501 -0.00000000000E+00  0.00000000000E+00  0.10398385925E+03  0.10398385925E+03  0.00000000000E+00 0.  1.
          4   -1    0    0  501    0  0.00000000000E+00 -0.00000000000E+00 -0.15553650177E+03  0.15553650177E+03  0.00000000000E+00 0. -1.
         25    2    1    2    0    0 -0.17076577686E+02 -0.50157387154E+02 -0.70493054017E+02  0.15304982328E+03  0.12509038631E+03 0.  0.
         23    2    1    2    0    0  0.17076577686E+02  0.50157387154E+02  0.18940411494E+02  0.10647053774E+03  0.90387295725E+02 0.  0.
          5    1    3    3  502    0 -0.48431529062E+02 -0.26675214567E+02 -0.92557595823E+02  0.10789606584E+03  0.41800000000E+01 0. -1.
         -5    1    3    3    0  502  0.31354951377E+02 -0.23482172587E+02  0.22064541806E+02  0.45153757433E+02  0.41800000000E+01 0. -1.
        -11    1    4    4    0    0  0.13948832768E+02  0.69302754627E+02 -0.10239828722E+02  0.71430356479E+02  0.00000000000E+00 0.  1.
         11    1    4    4    0    0  0.31277449174E+01 -0.19145367473E+02  0.29180240217E+02  0.35040181265E+02  0.00000000000E+00 0. -1.
</event>
<event>
 8    1  0.6493926E-009  0.1609173E+03  0.7561462E-02  0.1187665E+00
          1   -1    0    0  501    0  0.00000000000E+00  0.00000000000E+00  0.27253793037E+03  0.27253793037E+03  0.00000000000E+00 0. -1.
         -1   -1    0    0    0  501 -0.00000000000E+00 -0.00000000000E+00 -0.13334567279E+03  0.13334567279E+03  0.00000000000E+00 0.  1.
         25    2    1    2    0    0  0.87799468762E+02 -0.10049844503E+03 -0.16715256655E+02  0.18367509406E+03  0.12509378964E+03 0.  0.
         23    2    1    2    0    0 -0.87799468762E+02  0.10049844503E+03  0.15590751423E+03  0.22220850909E+03  0.85210236179E+02 0.  0.
          5    1    3    3  502    0  0.10463350619E+03 -0.31400825247E+02  0.42706944927E+01  0.10940700926E+03  0.41800000000E+01 0.  1.
         -5    1    3    3    0  502 -0.16834037423E+02 -0.69097619782E+02 -0.20985951148E+02  0.74268084808E+02  0.41800000000E+01 0.  1.
        -11    1    4    4    0    0 -0.66007102680E+02  0.99564523746E+02  0.81351271662E+02  0.14452702652E+03  0.00000000000E+00 0.  1.
         11    1    4    4    0    0 -0.21792366082E+02  0.93392128292E+00  0.74556242570E+02  0.77681482572E+02  0.00000000000E+00 0. -1.
</event>
<event>
 8    1  0.6493926E-009  0.8875216E+02  0.7561462E-02  0.1305902E+00
          1   -1    0    0  501    0  0.00000000000E+00  0.00000000000E+00  0.12221710153E+04  0.12221710153E+04  0.00000000000E+00 0. -1.
         -1   -1    0    0    0  501 -0.00000000000E+00 -0.00000000000E+00 -0.10958900021E+02  0.10958900021E+02  0.00000000000E+00 0.  1.
         25    2    1    2    0    0 -0.81924440880E+01 -0.40031329216E+02  0.80679569266E+03  0.81745728329E+03  0.12508995505E+03 0.  0.
         23    2    1    2    0    0  0.81924440880E+01  0.40031329216E+02  0.40441642265E+03  0.41567263206E+03  0.86956717252E+02 0.  0.
          5    1    3    3  502    0 -0.20276549702E+02  0.21697270754E+02  0.61159715340E+03  0.61233198551E+03  0.41800000000E+01 0.  1.
         -5    1    3    3    0  502  0.12084105614E+02 -0.61728599971E+02  0.19519853926E+03  0.20512529778E+03  0.41800000000E+01 0.  1.
        -11    1    4    4    0    0 -0.12212676978E+01  0.61250141456E+02  0.36353207462E+03  0.36865789101E+03  0.00000000000E+00 0. -1.
         11    1    4    4    0    0  0.94137117858E+01 -0.21218812240E+02  0.40884348022E+02  0.47014741046E+02  0.00000000000E+00 0.  1.
</event>
<event>
 8    1  0.6493926E-009  0.3136748E+03  0.7561462E-02  0.1078598E+00
         -1   -1    0    0    0  501 -0.00000000000E+00  0.00000000000E+00  0.99156512016E+02  0.99156512016E+02  0.00000000000E+00 0. -1.
          1   -1    0    0  501    0  0.00000000000E+00 -0.00000000000E+00 -0.10479052837E+04  0.10479052837E+04  0.00000000000E+00 0.  1.
         25    2    1    2    0    0 -0.20419205313E+03  0.21943833740E+03 -0.40088438578E+03  0.51594927165E+03  0.12509109348E+03 0.  0.
         23    2    1    2    0    0  0.20419205313E+03 -0.21943833740E+03 -0.54786438593E+03  0.63111252410E+03  0.91104633352E+02 0.  0.
          5    1    3    3  502    0 -0.10776157683E+03  0.19807517867E+03 -0.26653297798E+03  0.34914701001E+03  0.41800000000E+01 0. -1.
         -5    1    3    3    0  502 -0.96430476296E+02  0.21363158727E+02 -0.13435140780E+03  0.16680226163E+03  0.41800000000E+01 0. -1.
        -11    1    4    4    0    0  0.88029660632E+02 -0.12691383137E+03 -0.35928298192E+03  0.39107621104E+03  0.00000000000E+00 0.  1.
         11    1    4    4    0    0  0.11616239250E+03 -0.92524506033E+02 -0.18858140401E+03  0.24003631306E+03  0.00000000000E+00 0. -1.
</event>
<event>
 8    1  0.6493926E-009  0.1309866E+03  0.7561462E-02  0.1225999E+00
         -1   -1    0    0    0  501 -0.00000000000E+00  0.00000000000E+00  0.78378779155E+03  0.78378779155E+03  0.00000000000E+00 0.  1.
          1   -1    0    0  501    0  0.00000000000E+00 -0.00000000000E+00 -0.37969049206E+02  0.37969049206E+02  0.00000000000E+00 0. -1.
         25    2    1    2    0    0  0.95787913788E+02 -0.80058136411E+01  0.63224500014E+03  0.65162951797E+03  0.12509145059E+03 0.  0.
         23    2    1    2    0    0 -0.95787913788E+02  0.80058136411E+01  0.11357374221E+03  0.17012732279E+03  0.82491778744E+02 0.  0.
          5    1    3    3  502    0 -0.15898502770E+02 -0.26208678201E+02  0.52569857755E+02  0.60997701168E+02  0.41800000000E+01 0. -1.
         -5    1    3    3    0  502  0.11168641656E+03  0.18202864560E+02  0.57967514239E+03  0.59063181680E+03  0.41800000000E+01 0. -1.
        -11    1    4    4    0    0 -0.66669961484E+02  0.37383188444E+02  0.41364421557E+02  0.86910309591E+02  0.00000000000E+00 0. -1.
         11    1    4    4    0    0 -0.29117952304E+02 -0.29377374803E+02  0.72209320650E+02  0.83217013197E+02  0.00000000000E+00 0.  1.
</event>
<event>
 8    1  0.6493926E-009  0.1453575E+03  0.7561462E-02  0.1206297E+00
          1   -1    0    0  501    0  0.00000000000E+00  0.00000000000E+00  0.30466607780E+02  0.30466607780E+02  0.00000000000E+00 0. -1.
         -1   -1    0    0    0  501 -0.00000000000E+00 -0.00000000000E+00 -0.76572852914E+03  0.76572852914E+03  0.00000000000E+00 0.  1.
         25    2    1    2    0    0 -0.92076498765E+02  0.52986027352E+02 -0.43882074540E+03  0.46850501125E+03  0.12509076007E+03 0.  0.
         23    2    1    2    0    0  0.92076498765E+02 -0.52986027352E+02 -0.29644117596E+03  0.32769012567E+03  0.90652341047E+02 0.  0.
          5    1    3    3  502    0  0.38191253633E+01 -0.28323334998E+02 -0.34120097083E+02  0.44704031685E+02  0.41800000000E+01 0. -1.
         -5    1    3    3    0  502 -0.95895624129E+02  0.81309362350E+02 -0.40470064831E+03  0.42380097956E+03  0.41800000000E+01 0. -1.
        -11    1    4    4    0    0  0.12995747984E+02 -0.55413722348E+02 -0.16185819075E+03  0.17157401902E+03  0.00000000000E+00 0. -1.
         11    1    4    4    0    0  0.79080750781E+02  0.24276949955E+01 -0.13458298521E+03  0.15611610665E+03  0.00000000000E+00 0.  1.
</event>
<event>
 8    1  0.6493926E-009  0.1275884E+03  0.7561462E-02  0.1231079E+00
         -2   -1    0    0    0  501 -0.00000000000E+00  0.00000000000E+00  0.48315836138E+02  0.48315836138E+02  0.00000000000E+00 0.  1.
          2   -1    0    0  501    0  0.00000000000E+00 -0.00000000000E+00 -0.42053021383E+03  0.42053021383E+03  0.00000000000E+00 0. -1.
         25    2    1    2    0    0  0.34633616698E+02 -0.71147777546E+02 -0.28284721673E+03  0.31922781754E+03  0.12506941203E+03 0.  0.
         23    2    1    2    0    0 -0.34633616698E+02  0.71147777546E+02 -0.89367160960E+02  0.14961823243E+03  0.90208826401E+02 0.  0.
          5    1    3    3  502    0  0.38088072043E+02 -0.10379217131E+03 -0.18097207779E+03  0.21211289776E+03  0.41800000000E+01 0.  1.
         -5    1    3    3    0  502 -0.34544553450E+01  0.32644393761E+02 -0.10187513894E+03  0.10711491978E+03  0.41800000000E+01 0.  1.
        -11    1    4    4    0    0 -0.18065317462E+02  0.86796116344E+02 -0.44281168500E+02  0.99099663930E+02  0.00000000000E+00 0.  1.
         11    1    4    4    0    0 -0.16568299236E+02 -0.15648338797E+02 -0.45085992460E+02  0.50518568495E+02  0.00000000000E+00 0. -1.
</event>
<event>
 8    1  0.6493926E-009  0.1490067E+03  0.7561462E-02  0.1201699E+00
          2   -1    0    0  501    0  0.00000000000E+00  0.00000000000E+00  0.10503796817E+03  0.10503796817E+03  0.00000000000E+00 0. -1.
         -2   -1    0    0    0  501 -0.00000000000E+00 -0.00000000000E+00 -0.26846705415E+03  0.26846705415E+03  0.00000000000E+00 0.  1.
         25    2    1    2    0    0 -0.10220137178E+03 -0.54998728679E+02 -0.27293630814E+02  0.17280621983E+03  0.12508823598E+03 0.  0.
         23    2    1    2    0    0  0.10220137178E+03  0.54998728679E+02 -0.13613545517E+03  0.20069880249E+03  0.90978935001E+02 0.  0.
          5    1    3    3  502    0  0.66609947081E+00  0.30052535462E+02  0.13440067659E+02  0.33191962805E+02  0.41800000000E+01 0. -1.
         -5    1    3    3    0  502 -0.10286747126E+03 -0.85051264141E+02 -0.40733698473E+02  0.13961425703E+03  0.41800000000E+01 0. -1.
        -11    1    4    4    0    0  0.51277831280E+02 -0.92879153991E+01 -0.14668035506E+02  0.54137164858E+02  0.00000000000E+00 0. -1.
         11    1    4    4    0    0  0.50923540505E+02  0.64286644078E+02 -0.12146741966E+03  0.14656163763E+03  0.00000000000E+00 0.  1.
</event>
<event>
 8    1  0.6493926E-009  0.7306377E+02  0.7561462E-02  0.1349974E+00
         -1   -1    0    0    0  501 -0.00000000000E+00  0.00000000000E+00  0.98661280615E+03  0.98661280615E+03  0.00000000000E+00 0.  1.
          1   -1    0    0  501    0  0.00000000000E+00 -0.00000000000E+00 -0.15659716642E+02  0.15659716642E+02  0.00000000000E+00 0. -1.
         25    2    1    2    0    0  0.74403921777E+00 -0.28928792755E+02  0.75741665457E+03  0.76822205909E+03  0.12509082624E+03 0.  0.
         23    2    1    2    0    0 -0.74403921777E+00  0.28928792755E+02  0.21353643494E+03  0.23405046371E+03  0.91347588194E+02 0.  0.
          5    1    3    3  502    0  0.22992513445E+02 -0.49613197916E+02  0.70761427425E+03  0.70973625990E+03  0.41800000000E+01 0.  1.
         -5    1    3    3    0  502 -0.22248474227E+02  0.20684405161E+02  0.49802380313E+02  0.58485799192E+02  0.41800000000E+01 0.  1.
        -11    1    4    4    0    0  0.86041420912E+01  0.42931420806E+02  0.21273593603E+03  0.21719511190E+03  0.00000000000E+00 0.  1.
         11    1    4    4    0    0 -0.93481813090E+01 -0.14002628051E+02  0.80049891281E+00  0.16855351810E+02  0.00000000000E+00 0. -1.
</event>
<event>
 8    1  0.6493926E-009  0.2159434E+03  0.7561462E-02  0.1136944E+00
         -1   -1    0    0    0  501 -0.00000000000E+00  0.00000000000E+00  0.35330891841E+02  0.35330891841E+02  0.00000000000E+00 0.  1.
          1   -1    0    0  501    0  0.00000000000E+00 -0.00000000000E+00 -0.14128709332E+04  0.14128709332E+04  0.00000000000E+00 0. -1.
         25    2    1    2    0    0 -0.84511772903E+02 -0.16779082321E+03 -0.54250741562E+03  0.58758645442E+03  0.12509014872E+03 0.  0.
         23    2    1    2    0    0  0.84511772903E+02  0.16779082321E+03 -0.83503262571E+03  0.86061537059E+03  0.89907341067E+02 0.  0.
          5    1    3    3  502    0 -0.10200989700E+03 -0.67189884202E+02 -0.32640983872E+03  0.34854175480E+03  0.41800000000E+01 0.  1.
         -5    1    3    3    0  502  0.17498124102E+02 -0.10060093901E+03 -0.21609757690E+03  0.23904469962E+03  0.41800000000E+01 0.  1.
        -11    1    4    4    0    0  0.10025084405E+03  0.11589091415E+03 -0.64852538180E+03  0.66638285284E+03  0.00000000000E+00 0. -1.
         11    1    4    4    0    0 -0.15739071148E+02  0.51899909056E+02 -0.18650724391E+03  0.19423251775E+03  0.00000000000E+00 0.  1.
</event>
<event>
 8    1  0.6493926E-009  0.9550919E+02  0.7561462E-02  0.1290033E+00
          2   -1    0    0  501    0  0.00000000000E+00  0.00000000000E+00  0.13545018397E+02  0.13545018397E+02  0.00000000000E+00 0. -1.
         -2   -1    0    0    0  501 -0.00000000000E+00 -0.00000000000E+00 -0.10729563101E+04  0.10729563101E+04  0.00000000000E+00 0.  1.
         25    2    1    2    0    0  0.45534585889E+02  0.22389381393E+02 -0.54069262498E+03  0.55728843751E+03  0.12508878831E+03 0.  0.
         23    2    1    2    0    0 -0.45534585889E+02 -0.22389381393E+02 -0.51871866671E+03  0.52921289098E+03  0.91774429295E+02 0.  0.
          5    1    3    3  502    0  0.62056781747E+02  0.28077944615E+02 -0.53364181017E+03  0.53798742466E+03  0.41800000000E+01 0.  1.
         -5    1    3    3    0  502 -0.16522195858E+02 -0.56885632216E+01 -0.70508148190E+01  0.19301012852E+02  0.41800000000E+01 0.  1.
        -11    1    4    4    0    0 -0.73316014429E+02 -0.23546584670E+02 -0.37321789105E+03  0.38107909130E+03  0.00000000000E+00 0. -1.
         11    1    4    4    0    0  0.27781428541E+02  0.11572032774E+01 -0.14550077566E+03  0.14813379968E+03  0.00000000000E+00 0.  1.
</event>
<event>
 8    1  0.6493926E-009  0.2190208E+03  0.7561462E-02  0.1134615E+00
          2   -1    0    0  501    0  0.00000000000E+00  0.00000000000E+00  0.28916752883E+03  0.28916752883E+03  0.00000000000E+00 0. -1.
         -2   -1    0    0    0  501 -0.00000000000E+00 -0.00000000000E+00 -0.23532445565E+03  0.23532445565E+03  0.00000000000E+00 0.  1.
         25    2    1    2    0    0  0.11838696676E+03  0.17453717971E+03  0.13411983475E+03  0.27948923236E+03  0.12508956764E+03 0.  0.
         23    2    1    2    0    0 -0.11838696676E+03 -0.17453717971E+03 -0.80276761570E+02  0.24500275212E+03  0.95411158154E+02 0.  0.
          5    1    3    3  502    0  0.34218403325E+02  0.70027481911E+02  0.12181070744E+03  0.14467227860E+03  0.41800000000E+01 0.  1.
         -5    1    3    3    0  502  0.84168563431E+02  0.10450969780E+03  0.12309127310E+02  0.13481695376E+03  0.41800000000E+01 0.  1.
        -11    1    4    4    0    0 -0.93955393252E+01 -0.82638691953E+02 -0.56305141489E+02  0.10043753544E+03  0.00000000000E+00 0.  1.
         11    1    4    4    0    0 -0.10899142743E+03 -0.91898487762E+02 -0.23971620081E+02  0.14456521669E+03  0.00000000000E+00 0. -1.
</event>
<event>
 8    1  0.6493926E-009  0.8496828E+02  0.7561462E-02  0.1315516E+00
          4   -1    0    0  501    0  0.00000000000E+00  0.00000000000E+00  0.12756433202E+03  0.12756433202E+03  0.00000000000E+00 0.  1.
         -4   -1    0    0    0  501 -0.00000000000E+00 -0.00000000000E+00 -0.10401917351E+03  0.10401917351E+03  0.00000000000E+00 0. -1.
         25    2    1    2    0    0  0.40088850480E+02 -0.33285980540E+01  0.24397686486E+02  0.13364513873E+03  0.12509028940E+03 0.  0.
         23    2    1    2    0    0 -0.40088850480E+02  0.33285980540E+01 -0.85252797547E+00  0.97938366802E+02  0.89291664729E+02 0.  0.
          5    1    3    3  502    0  0.47726964209E+02 -0.41169516818E+02  0.55350744059E+02  0.83987912794E+02  0.41800000000E+01 0. -1.
         -5    1    3    3    0  502 -0.76381137290E+01  0.37840918764E+02 -0.30953057573E+02  0.49657225933E+02  0.41800000000E+01 0. -1.
        -11    1    4    4    0    0 -0.40335645471E+02 -0.19713208208E+02  0.33888813637E+02  0.56249680560E+02  0.00000000000E+00 0.  1.
         11    1    4    4    0    0  0.24679499114E+00  0.23041806262E+02 -0.34741341612E+02  0.41688686242E+02  0.00000000000E+00 0. -1.
</event>
<event>
 7    1  0.6493926E-009  0.1797609E+03  0.7561462E-02  0.1168035E+00
         -2   -1    0    0    0  501 -0.00000000000E+00  0.00000000000E+00  0.11345701401E+03  0.11345701401E+03  0.00000000000E+00 0.  1.
          2   -1    0    0  501    0  0.00000000000E+00 -0.00000000000E+00 -0.36871607129E+03  0.36871607129E+03  0.00000000000E+00 0. -1.
         23    2    1    2    0    0  0.14612469912E+03 -0.80814548188E+02 -0.17574789819E+03  0.25893053355E+03  0.90963061699E+02 0.  0.
          5    1    1    2  502    0 -0.97970763149E+02  0.68221549028E+02 -0.11192503524E+03  0.16369830817E+03  0.41800000000E+01 0.  1.
         -5    1    1    2    0  502 -0.48153935968E+02  0.12592999160E+02  0.32413876155E+02  0.59544243587E+02  0.41800000000E+01 0.  1.
        -11    1    3    3    0    0  0.54699898056E+02 -0.82134675106E+02 -0.88733345647E+02  0.13270942066E+03  0.00000000000E+00 0.  1.
         11    1    3    3    0    0  0.91424801061E+02  0.13201269186E+01 -0.87014552542E+02  0.12622111289E+03  0.00000000000E+00 0. -1.
</event>
<event>
 8    1  0.6493926E-009  0.1860797E+03  0.7561462E-02  0.1162045E+00
         -2   -1    0    0    0  501 -0.00000000000E+00  0.00000000000E+00  0.28819846410E+02  0.28819846410E+02  0.00000000000E+00 0.  1.
          2   -1    0    0  501    0  0.00000000000E+00 -0.00000000000E+00 -0.13878986672E+04  0.13878986672E+04  0.00000000000E+00 0. -1.
         25    2    1    2    0    0  0.13642588042E+03  0.95886322495E+02 -0.63724203486E+03  0.67047080591E+03  0.12508989923E+03 0.  0.
         23    2    1    2    0    0 -0.13642588042E+03 -0.95886322495E+02 -0.72183678596E+03  0.74624770774E+03  0.89616338063E+02 0.  0.
          5    1    3    3  502    0  0.13108282581E+03  0.56322857442E+02 -0.31611314654E+03  0.34684285391E+03  0.41800000000E+01 0. -1.
         -5    1    3    3    0  502  0.53430546093E+01  0.39563465053E+02 -0.32112888832E+03  0.32362795200E+03  0.41800000000E+01 0. -1.
        -11    1    4    4    0    0 -0.14719946807E+03 -0.99780223172E+02 -0.68073055613E+03  0.70357506094E+03  0.00000000000E+00 0.  1.
         11    1    4    4    0    0  0.10773587649E+02  0.38939006775E+01 -0.41106229837E+02  0.42672646798E+02  0.00000000000E+00 0. -1.
</event>
<event>
 8    1  0.6493926E-009  0.1117167E+03  0.7561462E-02  0.1257423E+00
         -1   -1    0    0    0  501 -0.00000000000E+00  0.00000000000E+00  0.21982489059E+02  0.21982489059E+02  0.00000000000E+00 0.  1.
          1   -1    0    0  501    0  0.00000000000E+00 -0.00000000000E+00 -0.81189126315E+03  0.81189126315E+03  0.00000000000E+00 0. -1.
         25    2    1    2    0    0 -0.62956210562E+01 -0.50542446350E+02 -0.60576041954E+03  0.62063541331E+03  0.12509379138E+03 0.  0.
         23    2    1    2    0    0  0.62956210562E+01  0.50542446350E+02 -0.18414835454E+03  0.21323833889E+03  0.94687902956E+02 0.  0.
          5    1    3    3  502    0 -0.36045754161E+02  0.29541187767E+02 -0.15818503314E+03  0.16496046581E+03  0.41800000000E+01 0.  1.
         -5    1    3    3    0  502  0.29750133105E+02 -0.80083634117E+02 -0.44757538640E+03  0.45567494751E+03  0.41800000000E+01 0.  1.
        -11    1    4    4    0    0  0.10907944215E+02 -0.18734317654E+02 -0.66995534363E+01  0.22690128276E+02  0.00000000000E+00 0.  1.
         11    1    4    4    0    0 -0.46123231592E+01  0.69276764004E+02 -0.17744880111E+03  0.19054821062E+03  0.00000000000E+00 0. -1.
</event>
<event>
 8    1  0.6493926E-009  0.8791863E+02  0.7561462E-02  0.1307972E+00
          2   -1    0    0  501    0  0.00000000000E+00  0.00000000000E+00  0.25898694359E+03  0.25898694359E+03  0.00000000000E+00 0. -1.
         -2   -1    0    0    0  501 -0.00000000000E+00 -0.00000000000E+00 -0.51703599703E+02  0.51703599703E+02  0.00000000000E+00 0.  1.
         25    2    1    2    0    0  0.17329196117E+02 -0.11936245920E+02  0.15646353576E+03  0.20142304192E+03  0.12509048241E+03 0.  0.
         23    2    1    2    0    0 -0.17329196117E+02  0.11936245920E+02  0.50819808125E+02  0.10926750137E+03  0.94413764635E+02 0.  0.
          5    1    3    3  502    0  0.60915898049E+02 -0.12043158009E+02  0.14244452820E+03  0.15544677643E+03  0.41800000000E+01 0.  1.
         -5    1    3    3    0  502 -0.43586701931E+02  0.10691208868E+00  0.14019007561E+02  0.45976265490E+02  0.41800000000E+01 0.  1.
        -11    1    4    4    0    0 -0.38320313827E+02  0.24374488054E+02  0.66306133799E+02  0.80368311535E+02  0.00000000000E+00 0. -1.
         11    1    4    4    0    0  0.20991117710E+02 -0.12438242134E+02 -0.15486325674E+02  0.28899189832E+02  0.00000000000E+00 0.  1.
</event>
<event>
 8    1  0.6493926E-009  0.1179277E+03  0.7561462E-02  0.1246555E+00
         -1   -1    0    0    0  501 -0.00000000000E+00  0.00000000000E+00  0.21724826565E+03  0.21724826565E+03  0.00000000000E+00 0.  1.
          1   -1    0    0  501    0  0.00000000000E+00 -0.00000000000E+00 -0.71060501033E+02  0.71060501033E+02  0.00000000000E+00 0. -1.
         25    2    1    2    0    0 -0.40693082111E+02 -0.30119996458E+02  0.45625581896E+02  0.14245089565E+03  0.12508965917E+03 0.  0.
         23    2    1    2    0    0  0.40693082111E+02  0.30119996458E+02  0.10056218272E+03  0.14585787103E+03  0.92728770235E+02 0.  0.
          5    1    3    3  502    0 -0.39191338329E+02 -0.75422174660E+02  0.12183312901E+02  0.85967266699E+02  0.41800000000E+01 0. -1.
         -5    1    3    3    0  502 -0.15017437820E+01  0.45302178201E+02  0.33442268995E+02  0.56483628953E+02  0.41800000000E+01 0. -1.
        -11    1    4    4    0    0  0.55364565801E+02  0.53916804733E+02  0.79359864556E+02  0.11077113830E+03  0.00000000000E+00 0. -1.
         11    1    4    4    0    0 -0.14671483690E+02 -0.23796808274E+02  0.21202318162E+02  0.35086732723E+02  0.00000000000E+00 0.  1.
</event>
<event>
 8    1  0.6493926E-009  0.1373966E+03  0.7561462E-02  0.1216876E+00
          1   -1    0    0  501    0  0.00000000000E+00  0.00000000000E+00  0.53449642190E+02  0.53449642190E+02  0.00000000000E+00 0. -1.
         -1   -1    0    0    0  501 -0.00000000000E+00 -0.00000000000E+00 -0.37961497781E+03  0.37961497781E+03  0.00000000000E+00 0.  1.
         25    2    1    2    0    0  0.61646091131E+02  0.66471239581E+02 -0.19097430953E+03  0.24563776465E+03  0.12509219911E+03 0.  0.
         23    2    1    2    0    0 -0.61646091131E+02 -0.66471239581E+02 -0.13519102608E+03  0.18742685534E+03  0.92916878592E+02 0.  0.
          5    1    3    3  502    0  0.42897736634E+02  0.10335582991E+03 -0.12682986034E+03  0.16919198934E+03  0.41800000000E+01 0. -1.
         -5    1    3    3    0  502  0.18748354498E+02 -0.36884590330E+02 -0.64144449194E+02  0.76445775309E+02  0.41800000000E+01 0. -1.
        -11    1    4    4    0    0 -0.75501482954E+02 -0.28325871742E+02 -0.55181264712E+02  0.97712849275E+02  0.00000000000E+00 0.  1.
         11    1    4    4    0    0  0.13855391823E+02 -0.38145367838E+02 -0.80009761373E+02  0.89714006069E+02  0.00000000000E+00 0. -1.
</event>
<event>
 8    1  0.6493926E-009  0.2537893E+03  0.7561462E-02  0.1110933E+00
          2   -1    0    0  501    0  0.00000000000E+00  0.00000000000E+00  0.16338805811E+04  0.16338805811E+04  0.00000000000E+00 0. -1.
         -2   -1    0    0    0  501 -0.00000000000E+00 -0.00000000000E+00 -0.42090471851E+02  0.42090471851E+02  0.00000000000E+00 0.  1.
         25    2    1    2    0    0 -0.23807533519E+03 -0.16542518860E+02  0.81083635346E+03  0.85443449399E+03  0.12509673163E+03 0.  0.
         23    2    1    2    0    0  0.23807533519E+03  0.16542518860E+02  0.78095375581E+03  0.82153655899E+03  0.89888980858E+02 0.  0.
          5    1    3    3  502    0 -0.65492540949E+02  0.42379629010E+02  0.15319265916E+03  0.17196153377E+03  0.41800000000E+01 0. -1.
         -5    1    3    3    0  502 -0.17258279424E+03 -0.58922147871E+02  0.65764369430E+03  0.68247296022E+03  0.41800000000E+01 0. -1.
        -11    1    4    4    0    0  0.21646339310E+03  0.34187215642E+02  0.74156082563E+03  0.77326426555E+03  0.00000000000E+00 0.  1.
         11    1    4    4    0    0  0.21611942096E+02 -0.17644696782E+02  0.39392930184E+02  0.48272293442E+02  0.00000000000E+00 0. -1.
</event>
<event>
 8    1  0.6493926E-009  0.1930011E+03  0.7561462E-02  0.1155782E+00
         -1   -1    0    0    0  501 -0.00000000000E+00  0.00000000000E+00  0.11072782715E+03  0.11072782715E+03  0.00000000000E+00 0.  1.
          1   -1    0    0  501    0  0.00000000000E+00 -0.00000000000E+00 -0.42168352932E+03  0.42168352932E+03  0.00000000000E+00 0. -1.
         25    2    1    2    0    0 -0.16405211746E+03 -0.66804711821E+02 -0.21841406600E+03  0.30777897196E+03  0.12508886678E+03 0.  0.
         23    2    1    2    0    0  0.16405211746E+03  0.66804711821E+02 -0.92541636172E+02  0.22463238450E+03  0.10256601279E+03 0.  0.
          5    1    3    3  502    0 -0.96441669542E+02 -0.78797679853E+01 -0.19058480890E+03  0.21378289958E+03  0.41800000000E+01 0.  1.
         -5    1    3    3    0  502 -0.67610447916E+02 -0.58924943835E+02 -0.27829257099E+02  0.93996072386E+02  0.41800000000E+01 0.  1.
        -11    1    4    4    0    0  0.62762623851E+00  0.32342358795E+02 -0.35772440478E+02  0.48229550950E+02  0.00000000000E+00 0. -1.
         11    1    4    4    0    0  0.16342449122E+03  0.34462353025E+02 -0.56769195694E+02  0.17640283355E+03  0.00000000000E+00 0.  1.
</event>
<event>
 8    1  0.6493926E-009  0.1312521E+03  0.7561462E-02  0.1225610E+00
         -4   -1    0    0    0  501 -0.00000000000E+00  0.00000000000E+00  0.19957568998E+04  0.19957568998E+04  0.00000000000E+00 0.  1.
          4   -1    0    0  501    0  0.00000000000E+00 -0.00000000000E+00 -0.12772792217E+02  0.12772792217E+02  0.00000000000E+00 0. -1.
         25    2    1    2    0    0 -0.24722014044E+02 -0.10561561377E+03  0.13438646484E+04  0.13540256733E+04  0.12508994660E+03 0.  0.
         23    2    1    2    0    0  0.24722014044E+02  0.10561561377E+03  0.63911945914E+03  0.65450401872E+03  0.90199731868E+02 0.  0.
          5    1    3    3  502    0 -0.18500382807E+02 -0.37455865973E+01  0.82369061378E+03  0.82391746748E+03  0.41800000000E+01 0. -1.
         -5    1    3    3    0  502 -0.62216312375E+01 -0.10187002718E+03  0.52017403463E+03  0.53010820578E+03  0.41800000000E+01 0. -1.
        -11    1    4    4    0    0 -0.29241835421E+02  0.71330317460E+02  0.34084003570E+03  0.34944960876E+03  0.00000000000E+00 0.  1.
         11    1    4    4    0    0  0.53963849466E+02  0.34285296315E+02  0.29827942344E+03  0.30505440996E+03  0.00000000000E+00 0. -1.
</event>
<event>
 8    1  0.6493926E-009  0.1052165E+03  0.7561462E-02  0.1269694E+00
         -1   -1    0    0    0  501 -0.00000000000E+00  0.00000000000E+00  0.33829476741E+02  0.33829476741E+02  0.00000000000E+00 0.  1.
          1   -1    0    0  501    0  0.00000000000E+00 -0.00000000000E+00 -0.69878184771E+03  0.69878184771E+03  0.00000000000E+00 0. -1.
         25    2    1    2    0    0 -0.68904841876E+02  0.27622200415E+01 -0.53965288286E+03  0.55823705451E+03  0.12509143837E+03 0.  0.
         23    2    1    2    0    0  0.68904841876E+02 -0.27622200415E+01 -0.12529948811E+03  0.17437426994E+03  0.99754284136E+02 0.  0.
          5    1    3    3  502    0 -0.58474751820E+02  0.25541820136E+02 -0.10567604199E+03  0.12351752680E+03  0.41800000000E+01 0.  1.
         -5    1    3    3    0  502 -0.10430090056E+02 -0.22779600095E+02 -0.43397684087E+03  0.43471952771E+03  0.41800000000E+01 0.  1.
        -11    1    4    4    0    0  0.59232080046E+02  0.43712661317E+02 -0.71450558334E+02  0.10258858783E+03  0.00000000000E+00 0. -1.
         11    1    4    4    0    0  0.96727618302E+01 -0.46474881359E+02 -0.53848929774E+02  0.71785682114E+02  0.00000000000E+00 0.  1.
</event>
<event>
 8    1  0.6493926E-009  0.7624537E+02  0.7561462E-02  0.1340057E+00
         -1   -1    0    0    0  501 -0.00000000000E+00  0.00000000000E+00  0.28900777133E+02  0.28900777133E+02  0.00000000000E+00 0.  1.
          1   -1    0    0  501    0  0.00000000000E+00 -0.00000000000E+00 -0.58502813615E+03  0.58502813615E+03  0.00000000000E+00 0. -1.
         25    2    1    2    0    0  0.18718358304E+02  0.26083766697E+02 -0.15691755631E+03  0.20322725748E+03  0.12508980327E+03 0.  0.
         23    2    1    2    0    0 -0.18718358304E+02 -0.26083766697E+02 -0.39920980271E+03  0.41070165581E+03  0.90976061033E+02 0.  0.
          5    1    3    3  502    0 -0.12800686202E+02  0.22656772626E+02 -0.16748593240E+03  0.16954703438E+03  0.41800000000E+01 0.  1.
         -5    1    3    3    0  502  0.31519044506E+02  0.34269940704E+01  0.10568376093E+02  0.33680223102E+02  0.41800000000E+01 0.  1.
        -11    1    4    4    0    0 -0.33868737234E+02 -0.53216011706E+02 -0.30645341125E+03  0.31287813687E+03  0.00000000000E+00 0.  1.
         11    1    4    4    0    0  0.15150378930E+02  0.27132245009E+02 -0.92756391459E+02  0.97823518938E+02  0.00000000000E+00 0. -1.
</event>
<event>
 8    1  0.6493926E-009  0.1457885E+03  0.7561462E-02  0.1205746E+00
          1   -1    0    0  501    0  0.00000000000E+00  0.00000000000E+00  0.60534249311E+03  0.60534249311E+03  0.00000000000E+00 0. -1.
         -1   -1    0    0    0  501 -0.00000000000E+00 -0.00000000000E+00 -0.59623511365E+02  0.59623511365E+02  0.00000000000E+00 0.  1.
         25    2    1    2    0    0 -0.48690446711E+02 -0.10847987757E+03  0.46336849402E+03  0.49446553313E+03  0.12508860365E+03 0.  0.
         23    2    1    2    0    0  0.48690446711E+02  0.10847987757E+03  0.82350487721E+02  0.17050047134E+03  0.90278261291E+02 0.  0.
          5    1    3    3  502    0 -0.46931689118E+02  0.14477773174E+02  0.14491899399E+03  0.15307245532E+03  0.41800000000E+01 0. -1.
         -5    1    3    3    0  502 -0.17587575930E+01 -0.12295765074E+03  0.31844950003E+03  0.34139307781E+03  0.41800000000E+01 0. -1.
        -11    1    4    4    0    0  0.33248864124E+01  0.14654858054E+02 -0.19607713716E+02  0.24703889803E+02  0.00000000000E+00 0.  1.
         11    1    4    4    0    0  0.45365560299E+02  0.93825019514E+02  0.10195820144E+03  0.14579658154E+03  0.00000000000E+00 0. -1.
</event>
<event>
 8    1  0.6493926E-009  0.1038444E+03  0.7561462E-02  0.1272413E+00
         -1   -1    0    0    0  501 -0.00000000000E+00  0.00000000000E+00  0.44112850009E+02  0.44112850009E+02  0.00000000000E+00 0.  1.
          1   -1    0    0  501    0  0.00000000000E+00 -0.00000000000E+00 -0.27441598325E+03  0.27441598325E+03  0.00000000000E+00 0. -1.
         25    2    1    2    0    0  0.13927972482E+02 -0.15345360702E+02 -0.16543636317E+03  0.20844646280E+03  0.12510503220E+03 0.  0.
         23    2    1    2    0    0 -0.13927972482E+02  0.15345360702E+02 -0.64866770073E+02  0.11008237046E+03  0.86492554100E+02 0.  0.
          5    1    3    3  502    0 -0.97638875037E+01  0.52988871414E+02 -0.63405417289E+02  0.83311903918E+02  0.41800000000E+01 0. -1.
         -5    1    3    3    0  502  0.23691859986E+02 -0.68334232116E+02 -0.10203094588E+03  0.12513455888E+03  0.41800000000E+01 0. -1.
        -11    1    4    4    0    0 -0.61947364238E+01 -0.32321859988E+02 -0.49432107845E+02  0.59385273246E+02  0.00000000000E+00 0. -1.
         11    1    4    4    0    0 -0.77332360582E+01  0.47667220690E+02 -0.15434662227E+02  0.50697097218E+02  0.00000000000E+00 0.  1.
</event>
<event>
 8    1  0.6493926E-009  0.7261378E+02  0.7561462E-02  0.1351424E+00
          1   -1    0    0  501    0  0.00000000000E+00  0.00000000000E+00  0.73839756093E+03  0.73839756093E+03  0.00000000000E+00 0. -1.
         -1   -1    0    0    0  501 -0.00000000000E+00 -0.00000000000E+00 -0.19239556383E+02  0.19239556383E+02  0.00000000000E+00 0.  1.
         25    2    1    2    0    0 -0.79560772466E+01  0.28545563723E+02  0.54671292886E+03  0.56162432863E+03  0.12509481026E+03 0.  0.
         23    2    1    2    0    0  0.79560772466E+01 -0.28545563723E+02  0.17244507568E+03  0.19601278867E+03  0.88349085025E+02 0.  0.
          5    1    3    3  502    0  0.79434042820E+01 -0.15108236691E+02  0.47943585524E+03  0.47975782243E+03  0.41800000000E+01 0. -1.
         -5    1    3    3    0  502 -0.15899481529E+02  0.43653800415E+02  0.67277073622E+02  0.81866506207E+02  0.41800000000E+01 0. -1.
        -11    1    4    4    0    0 -0.33910094416E+02 -0.13997202409E+02  0.31800609693E+02  0.48549922301E+02  0.00000000000E+00 0.  1.
         11    1    4    4    0    0  0.41866171663E+02 -0.14548361314E+02  0.14064446599E+03  0.14746286637E+03  0.00000000000E+00 0. -1.
</event>
<event>
 8    1  0.6493926E-009  0.1286983E+03  0.7561462E-02  0.1229400E+00
          2   -1    0    0  501    0  0.00000000000E+00  0.00000000000E+00  0.39663609847E+03  0.39663609847E+03  0.00000000000E+00 0. -1.
         -2   -1    0    0    0  501 -0.00000000000E+00 -0.00000000000E+00 -0.49199633013E+02  0.49199633013E+02  0.00000000000E+00 0.  1.
         25    2    1    2    0    0  0.24583051548E+02  0.81215398594E+02  0.21148922436E+03  0.25995642341E+03  0.12509749263E+03 0.  0.
         23    2    1    2    0    0 -0.24583051548E+02 -0.81215398594E+02  0.13594724110E+03  0.18587930807E+03  0.94176416444E+02 0.  0.
          5    1    3    3  502    0  0.63928757208E+02  0.39326146984E+02  0.17820766015E+03  0.19341373884E+03  0.41800000000E+01 0.  1.
         -5    1    3    3    0  502 -0.39345705660E+02  0.41889251609E+02  0.33281564208E+02  0.66542684575E+02  0.41800000000E+01 0.  1.
        -11    1    4    4    0    0  0.34952619679E+02 -0.30888640097E+02  0.68036565926E+02  0.82491017769E+02  0.00000000000E+00 0. -1.
         11    1    4    4    0    0 -0.59535671227E+02 -0.50326758496E+02  0.67910675170E+02  0.10338829030E+03  0.00000000000E+00 0.  1.
</event>
<event>
 8    1  0.6493926E-009  0.2413647E+03  0.7561462E-02  0.1118887E+00
         -1   -1    0    0    0  501 -0.00000000000E+00  0.00000000000E+00  0.56927534431E+03  0.56927534431E+03  0.00000000000E+00 0.  1.
          1   -1    0    0  501    0  0.00000000000E+00 -0.00000000000E+00 -0.22111584651E+03  0.22111584651E+03  0.00000000000E+00 0. -1.
         25    2    1    2    0    0  0.22970175957E+03  0.58848476065E+02 -0.90901070041E+02  0.28308568672E+03  0.12509380485E+03 0.  0.
         23    2    1    2    0    0 -0.22970175957E+03 -0.58848476065E+02  0.43906056784E+03  0.50730550409E+03  0.91425657027E+02 0.  0.
          5    1    3    3  502    0  0.30040663409E+02 -0.12221965207E+02  0.25305689374E+02  0.41348134254E+02  0.41800000000E+01 0. -1.
         -5    1    3    3    0  502  0.19966109616E+03  0.71070441272E+02 -0.11620675941E+03  0.24173755247E+03  0.41800000000E+01 0. -1.
        -11    1    4    4    0    0 -0.13668569565E+03 -0.45651201989E+02  0.17307134410E+03  0.22521257023E+03  0.00000000000E+00 0. -1.
         11    1    4    4    0    0 -0.93016063914E+02 -0.13197274075E+02  0.26598922374E+03  0.28209293386E+03  0.00000000000E+00 0.  1.
</event>
<event>
 8    1  0.6493926E-009  0.1090206E+03  0.7561462E-02  0.1262394E+00
          1   -1    0    0  501    0  0.00000000000E+00  0.00000000000E+00  0.19131318136E+03  0.19131318136E+03  0.00000000000E+00 0. -1.
         -1   -1    0    0    0  501 -0.00000000000E+00 -0.00000000000E+00 -0.91074019332E+02  0.91074019332E+02  0.00000000000E+00 0.  1.
         25    2    1    2    0    0  0.20891035884E+02 -0.71013255903E+02  0.59745233788E+02  0.15715450582E+03  0.12509487537E+03 0.  0.
         23    2    1    2    0    0 -0.20891035884E+02  0.71013255903E+02  0.40493928235E+02  0.12523269487E+03  0.92542702286E+02 0.  0.
          5    1    3    3  502    0  0.40013195194E+02 -0.12162309294E+02  0.81278413672E+02  0.91502079135E+02  0.41800000000E+01 0. -1.
         -5    1    3    3    0  502 -0.19122159310E+02 -0.58850946608E+02 -0.21533179884E+02  0.65652426682E+02  0.41800000000E+01 0. -1.
        -11    1    4    4    0    0  0.29652592288E+02  0.38007360961E+01  0.26560898911E+02  0.39990038450E+02  0.00000000000E+00 0. -1.
         11    1    4    4    0    0 -0.50543628172E+02  0.67212519806E+02  0.13933029325E+02  0.85242656421E+02  0.00000000000E+00 0.  1.
</event>
<event>
 8    1  0.6493926E-009  0.1692217E+03  0.7561462E-02  0.1178662E+00
          1   -1    0    0  501    0  0.00000000000E+00  0.00000000000E+00  0.29735858047E+02  0.29735858047E+02  0.00000000000E+00 0. -1.
         -1   -1    0    0    0  501 -0.00000000000E+00 -0.00000000000E+00 -0.15543128314E+04  0.15543128314E+04  0.00000000000E+00 0.  1.
         25    2    1    2    0    0 -0.13224350760E+03 -0.18244278089E+02 -0.12802985035E+04  0.12933031198E+04  0.12508997829E+03 0.  0.
         23    2    1    2    0    0  0.13224350760E+03  0.18244278089E+02 -0.24427846986E+03  0.29074556964E+03  0.83903614002E+02 0.  0.
          5    1    3    3  502    0 -0.88694592119E+02 -0.71453282344E+02 -0.77856310254E+03  0.78686102920E+03  0.41800000000E+01 0.  1.
         -5    1    3    3    0  502 -0.43548915483E+02  0.53209004255E+02 -0.50173540098E+03  0.50644209064E+03  0.41800000000E+01 0.  1.
        -11    1    4    4    0    0  0.20410125091E+01 -0.19826400451E+02 -0.17666524935E+02  0.26633775365E+02  0.00000000000E+00 0. -1.
         11    1    4    4    0    0  0.13020249509E+03  0.38070678540E+02 -0.22661194493E+03  0.26411179428E+03  0.00000000000E+00 0.  1.
</event>
<event>
 8    1  0.6493926E-009  0.1108854E+03  0.7561462E-02  0.1258939E+00
          2   -1    0    0  501    0  0.00000000000E+00  0.00000000000E+00  0.34370375565E+03  0.34370375565E+03  0.00000000000E+00 0.  1.
         -2   -1    0    0    0  501 -0.00000000000E+00 -0.00000000000E+00 -0.40216021966E+02  0.40216021966E+02  0.00000000000E+00 0. -1.
         25    2    1    2    0    0 -0.28663596252E+02 -0.12814352998E+02  0.12236917936E+03  0.17779207669E+03  0.12509994837E+03 0.  0.
         23    2    1    2    0    0  0.28663596252E+02  0.12814352998E+02  0.18111855433E+03  0.20612770093E+03  0.93267834632E+02 0.  0.
          5    1    3    3  502    0 -0.25618713261E+02  0.54987588665E+02  0.62393155862E+02  0.87122509576E+02  0.41800000000E+01 0. -1.
         -5    1    3    3    0  502 -0.30448829909E+01 -0.67801941663E+02  0.59976023500E+02  0.90669567113E+02  0.41800000000E+01 0. -1.
        -11    1    4    4    0    0 -0.14290250157E+02  0.39766364012E+02  0.49527558758E+02  0.65104178306E+02  0.00000000000E+00 0. -1.
         11    1    4    4    0    0  0.42953846409E+02 -0.26952011014E+02  0.13159099557E+03  0.14102352263E+03  0.00000000000E+00 0.  1.
</event>
<event>
 8    1  0.6493926E-009  0.8705606E+02  0.7561462E-02  0.1310142E+00
         -1   -1    0    0    0  501 -0.00000000000E+00  0.00000000000E+00  0.33108947301E+02  0.33108947301E+02  0.00000000000E+00 0.  1.
          1   -1    0    0  501    0  0.00000000000E+00 -0.00000000000E+00 -0.39742594484E+03  0.39742594484E+03  0.00000000000E+00 0. -1.
         25    2    1    2    0    0 -0.28189680903E+02 -0.18134456074E+02 -0.24167168060E+03  0.27418174496E+03  0.12508761512E+03 0.  0.
         23    2    1    2    0    0  0.28189680903E+02  0.18134456074E+02 -0.12264531694E+03  0.15635314718E+03  0.90999539892E+02 0.  0.
          5    1    3    3  502    0 -0.16075965250E+02  0.28381223160E+02 -0.57582820463E+01  0.33385037051E+02  0.41800000000E+01 0.  1.
         -5    1    3    3    0  502 -0.12113715653E+02 -0.46515679234E+02 -0.23591339855E+03  0.24079670790E+03  0.41800000000E+01 0.  1.
        -11    1    4    4    0    0 -0.15031988572E+02 -0.26739374570E+02 -0.63146418139E+02  0.70202741802E+02  0.00000000000E+00 0. -1.
         11    1    4    4    0    0  0.43221669475E+02  0.44873830644E+02 -0.59498898802E+02  0.86150405382E+02  0.00000000000E+00 0.  1.
</event>
<event>
 8    1  0.6493926E-009  0.9794762E+02  0.7561462E-02  0.1284672E+00
         -1   -1    0    0    0  501 -0.00000000000E+00  0.00000000000E+00  0.27552120120E+02  0.27552120120E+02  0.00000000000E+00 0.  1.
          1   -1    0    0  501    0  0.00000000000E+00 -0.00000000000E+00 -0.57749250062E+03  0.57749250062E+03  0.00000000000E+00 0. -1.
         25    2    1    2    0    0 -0.31037915757E+02  0.54138910606E+02 -0.34929989945E+03  0.37623849107E+03  0.12510239227E+03 0.  0.
         23    2    1    2    0    0  0.31037915757E+02 -0.54138910606E+02 -0.20064048105E+03  0.22880612967E+03  0.90560855133E+02 0.  0.
          5    1    3    3  502    0 -0.63164156913E-01 -0.13060847388E+02  0.47514264851E+01  0.14513379270E+02  0.41800000000E+01 0. -1.
         -5    1    3    3    0  502 -0.30974751600E+02  0.67199757993E+02 -0.35405132593E+03  0.36172511180E+03  0.41800000000E+01 0. -1.
        -11    1    4    4    0    0  0.49166376432E+02 -0.68932640115E+02 -0.17287394207E+03  0.19249530200E+03  0.00000000000E+00 0.  1.
         11    1    4    4    0    0 -0.18128460676E+02  0.14793729510E+02 -0.27766538985E+02  0.36310827676E+02  0.00000000000E+00 0. -1.
</event>
<event>
 8    1  0.6493926E-009  0.1881082E+03  0.7561462E-02  0.1160179E+00
          2   -1    0    0  501    0  0.00000000000E+00  0.00000000000E+00  0.17018683023E+03  0.17018683023E+03  0.00000000000E+00 0. -1.
         -2   -1    0    0    0  501 -0.00000000000E+00 -0.00000000000E+00 -0.23319796931E+03  0.23319796931E+03  0.00000000000E+00 0.  1.
         25    2    1    2    0    0  0.55522909935E+02  0.14326708515E+03  0.29759873896E+02  0.20035173314E+03  0.12508763193E+03 0.  0.
         23    2    1    2    0    0 -0.55522909935E+02 -0.14326708515E+03 -0.92771012977E+02  0.20303306640E+03  0.94908977392E+02 0.  0.
          5    1    3    3  502    0  0.11013191397E+02 -0.22903535915E+02  0.22491527855E+00  0.25756267762E+02  0.41800000000E+01 0.  1.
         -5    1    3    3    0  502  0.44509718538E+02  0.16617062106E+03  0.29534958618E+02  0.17459546538E+03  0.41800000000E+01 0.  1.
        -11    1    4    4    0    0  0.18283532002E+02 -0.77165840695E+02 -0.57130598209E+02  0.97738220592E+02  0.00000000000E+00 0.  1.
         11    1    4    4    0    0 -0.73806441937E+02 -0.66101244454E+02 -0.35640414768E+02  0.10529484581E+03  0.00000000000E+00 0. -1.
</event>
<event>
 8    1  0.6493926E-009  0.1340867E+03  0.7561462E-02  0.1221515E+00
         -1   -1    0    0    0  501 -0.00000000000E+00  0.00000000000E+00  0.28017401787E+03  0.28017401787E+03  0.00000000000E+00 0.  1.
          1   -1    0    0  501    0  0.00000000000E+00 -0.00000000000E+00 -0.12274942073E+03  0.12274942073E+03  0.00000000000E+00 0. -1.
         25    2    1    2    0    0 -0.10883267682E+03  0.55518506367E+02  0.17750488267E+03  0.24916322920E+03  0.12508986898E+03 0.  0.
         23    2    1    2    0    0  0.10883267682E+03 -0.55518506367E+02 -0.20080285525E+02  0.15376020940E+03  0.91170872722E+02 0.  0.
          5    1    3    3  502    0 -0.15805846573E+02 -0.20038771420E+02 -0.90421164530E+01  0.27397251976E+02  0.41800000000E+01 0. -1.
         -5    1    3    3    0  502 -0.93026830251E+02  0.75557277786E+02  0.18654699913E+03  0.22176597723E+03  0.41800000000E+01 0. -1.
        -11    1    4    4    0    0  0.79692717676E+02 -0.44222146709E+02  0.28940177429E+02  0.95624585645E+02  0.00000000000E+00 0.  1.
         11    1    4    4    0    0  0.29139959148E+02 -0.11296359657E+02 -0.49020462954E+02  0.58135623751E+02  0.00000000000E+00 0. -1.
</event>
<event>
 8    1  0.6493926E-009  0.1232093E+03  0.7561462E-02  0.1237895E+00
          1   -1    0    0  501    0  0.00000000000E+00  0.00000000000E+00  0.92661505638E+02  0.92661505638E+02  0.00000000000E+00 0. -1.
         -1   -1    0    0    0  501 -0.00000000000E+00 -0.00000000000E+00 -0.26962538584E+03  0.26962538584E+03  0.00000000000E+00 0.  1.
         25    2    1    2    0    0 -0.22502122371E+01 -0.87302162501E+02 -0.17636087469E+03  0.23318953675E+03  0.12508985130E+03 0.  0.
         23    2    1    2    0    0  0.22502122371E+01  0.87302162501E+02 -0.60300551168E+00  0.12909735472E+03  0.95073825775E+02 0.  0.
          5    1    3    3  502    0 -0.31689723488E+02 -0.84214721480E+01  0.47752248636E+01  0.33398127797E+02  0.41800000000E+01 0. -1.
         -5    1    3    3    0  502  0.29439511251E+02 -0.78880690353E+02 -0.18113609955E+03  0.19979140896E+03  0.41800000000E+01 0. -1.
        -11    1    4    4    0    0 -0.37040032578E+02  0.81271508520E+02 -0.17316627819E+01  0.89330961970E+02  0.00000000000E+00 0.  1.
         11    1    4    4    0    0  0.39290244815E+02  0.60306539807E+01  0.11286572702E+01  0.39766392749E+02  0.00000000000E+00 0. -1.
</event>
<event>
 8    1  0.6493926E-009  0.1182756E+03  0.7561462E-02  0.1245969E+00
         -2   -1    0    0    0  501 -0.00000000000E+00  0.00000000000E+00  0.12978173110E+03  0.12978173110E+03  0.00000000000E+00 0.  1.
          2   -1    0    0  501    0  0.00000000000E+00 -0.00000000000E+00 -0.14714312742E+03  0.14714312742E+03  0.00000000000E+00 0. -1.
         25    2    1    2    0    0 -0.80372057634E+02  0.12206924610E+02 -0.34809606776E+02  0.15319651106E+03  0.12509510630E+03 0.  0.
         23    2    1    2    0    0  0.80372057634E+02 -0.12206924610E+02  0.17448210454E+02  0.12372834746E+03  0.91627437270E+02 0.  0.
          5    1    3    3  502    0 -0.15875001840E+02 -0.47065986488E+02  0.15365289758E+02  0.52161166560E+02  0.41800000000E+01 0.  1.
         -5    1    3    3    0  502 -0.64497055794E+02  0.59272911098E+02 -0.50174896535E+02  0.10103534450E+03  0.41800000000E+01 0.  1.
        -11    1    4    4    0    0  0.64331018764E+02  0.16241076200E+02 -0.24356648551E+02  0.70678843086E+02  0.00000000000E+00 0. -1.
         11    1    4    4    0    0  0.16041038870E+02 -0.28448000810E+02  0.41804859004E+02  0.53049504375E+02  0.00000000000E+00 0.  1.
</event>
<event>
 8    1  0.6493926E-009  0.1125364E+03  0.7561462E-02  0.1255944E+00
          2   -1    0    0  501    0  0.00000000000E+00  0.00000000000E+00  0.38632249122E+03  0.38632249122E+03  0.00000000000E+00 0. -1.
         -2   -1    0    0    0  501 -0.00000000000E+00 -0.00000000000E+00 -0.52162909229E+02  0.52162909229E+02  0.00000000000E+00 0.  1.
         25    2    1    2    0    0 -0.16308089678E+02 -0.48223673708E+00  0.53431332160E+02  0.13699891782E+03  0.12509040685E+03 0.  0.
         23    2    1    2    0    0  0.16308089678E+02  0.48223673708E+00  0.28072824984E+03  0.30148648263E+03  0.10871781185E+03 0.  0.
          5    1    3    3  502    0  0.12265163466E+02  0.58727210748E+02  0.28655481263E+02  0.66617779334E+02  0.41800000000E+01 0. -1.
         -5    1    3    3    0  502 -0.28573253144E+02 -0.59209447485E+02  0.24775850897E+02  0.70381138484E+02  0.41800000000E+01 0. -1.
        -11    1    4    4    0    0  0.52699947838E+02  0.21630491366E+02  0.22225686432E+03  0.22944122645E+03  0.00000000000E+00 0. -1.
         11    1    4    4    0    0 -0.36391858160E+02 -0.21148254628E+02  0.58471385516E+02  0.72045256182E+02  0.00000000000E+00 0.  1.
</event>
<event>
 8    1  0.6493926E-009  0.2552751E+03  0.7561462E-02  0.1110016E+00
         -2   -1    0    0    0  501 -0.00000000000E+00  0.00000000000E+00  0.36931672743E+03  0.36931672743E+03  0.00000000000E+00 0.  1.
          2   -1    0    0  501    0  0.00000000000E+00 -0.00000000000E+00 -0.21499523598E+03  0.21499523598E+03  0.00000000000E+00 0. -1.
         25    2    1    2    0    0 -0.22789220957E+03 -0.10598804769E+03  0.17584250979E+02  0.28128664549E+03  0.12507855778E+03 0.  0.
         23    2    1    2    0    0  0.22789220957E+03  0.10598804769E+03  0.13673724047E+03  0.30302531792E+03  0.99794513537E+02 0.  0.
          5    1    3    3  502    0 -0.13556233416E+03 -0.51733105656E+02  0.70942054983E+02  0.16156642049E+03  0.41800000000E+01 0. -1.
         -5    1    3    3    0  502 -0.92329875406E+02 -0.54254942034E+02 -0.53357804003E+02  0.11972022501E+03  0.41800000000E+01 0. -1.
        -11    1    4    4    0    0  0.57859946115E+02  0.57119096394E+02  0.87376966210E+02  0.11935283307E+03  0.00000000000E+00 0. -1.
         11    1    4    4    0    0  0.17003226345E+03  0.48868951296E+02  0.49360274264E+02  0.18367248485E+03  0.00000000000E+00 0.  1.
</event>
<event>
 8    1  0.6493926E-009  0.2222043E+03  0.7561462E-02  0.1132250E+00
         -1   -1    0    0    0  501 -0.00000000000E+00  0.00000000000E+00  0.36870961779E+02  0.36870961779E+02  0.00000000000E+00 0.  1.
          1   -1    0    0  501    0  0.00000000000E+00 -0.00000000000E+00 -0.20453195985E+04  0.20453195985E+04  0.00000000000E+00 0. -1.
         25    2    1    2    0    0 -0.21463207082E+03  0.12162517070E+02 -0.15540423843E+04  0.15738208237E+04  0.12509756265E+03 0.  0.
         23    2    1    2    0    0  0.21463207082E+03 -0.12162517070E+02 -0.45440625234E+03  0.50836973653E+03  0.75762089478E+02 0.  0.
          5    1    3    3  502    0 -0.12057702274E+03 -0.21860142387E+02 -0.11888504585E+04  0.11951567133E+04  0.41800000000E+01 0.  1.
         -5    1    3    3    0  502 -0.94055048080E+02  0.34022659458E+02 -0.36519192581E+03  0.37866411040E+03  0.41800000000E+01 0.  1.
        -11    1    4    4    0    0  0.97187363194E+02 -0.32536661821E+02 -0.15205716692E+03  0.18337229873E+03  0.00000000000E+00 0. -1.
         11    1    4    4    0    0  0.11744470763E+03  0.20374144750E+02 -0.30234908542E+03  0.32499743780E+03  0.00000000000E+00 0.  1.
</event>
<event>
 8    1  0.6493926E-009  0.1130764E+03  0.7561462E-02  0.1254977E+00
         -2   -1    0    0    0  501 -0.00000000000E+00  0.00000000000E+00  0.35236347375E+02  0.35236347375E+02  0.00000000000E+00 0.  1.
          2   -1    0    0  501    0  0.00000000000E+00 -0.00000000000E+00 -0.38764143521E+03  0.38764143521E+03  0.00000000000E+00 0. -1.
         25    2    1    2    0    0  0.18392924001E+02  0.20865511660E+02 -0.23840893871E+03  0.27066816316E+03  0.12509501693E+03 0.  0.
         23    2    1    2    0    0 -0.18392924001E+02 -0.20865511660E+02 -0.11399614912E+03  0.15220961942E+03  0.96948321289E+02 0.  0.
          5    1    3    3  502    0  0.51868167536E+02 -0.35043778167E+02 -0.12255600466E+03  0.13768013607E+03  0.41800000000E+01 0.  1.
         -5    1    3    3    0  502 -0.33475243536E+02  0.55909289827E+02 -0.11585293405E+03  0.13298802708E+03  0.41800000000E+01 0.  1.
        -11    1    4    4    0    0  0.32571843158E+02 -0.32315659814E+02 -0.71094586765E+02  0.84614816097E+02  0.00000000000E+00 0.  1.
         11    1    4    4    0    0 -0.50964767159E+02  0.11450148153E+02 -0.42901562357E+02  0.67594803328E+02  0.00000000000E+00 0. -1.
</event>
<event>
 8    1  0.6493926E-009  0.3082962E+03  0.7561462E-02  0.1081165E+00
         -1   -1    0    0    0  501 -0.00000000000E+00  0.00000000000E+00  0.39598723755E+03  0.39598723755E+03  0.00000000000E+00 0.  1.
          1   -1    0    0  501    0  0.00000000000E+00 -0.00000000000E+00 -0.27668686396E+03  0.27668686396E+03  0.00000000000E+00 0. -1.
         25    2    1    2    0    0 -0.93854109346E+02  0.28341779942E+03 -0.26644274451E+02  0.32479507248E+03  0.12509068263E+03 0.  0.
         23    2    1    2    0    0  0.93854109346E+02 -0.28341779942E+03  0.14594464804E+03  0.34787902903E+03  0.10288700445E+03 0.  0.
          5    1    3    3  502    0 -0.52385859994E+01  0.54251050068E+00  0.23217084212E+02  0.24171108792E+02  0.41800000000E+01 0.  1.
         -5    1    3    3    0  502 -0.88615523346E+02  0.28287528891E+03 -0.49861358663E+02  0.30062396369E+03  0.41800000000E+01 0.  1.
        -11    1    4    4    0    0  0.11004656854E+03 -0.19852757599E+03  0.12428209348E+03  0.25878462944E+03  0.00000000000E+00 0. -1.
         11    1    4    4    0    0 -0.16192459199E+02 -0.84890223430E+02  0.21662554556E+02  0.89094399593E+02  0.00000000000E+00 0.  1.
</event>
<event>
 7    1  0.6493926E-009  0.1209907E+03  0.7561462E-02  0.1241472E+00
         -4   -1    0    0    0  501 -0.00000000000E+00  0.00000000000E+00  0.80596483201E+02  0.80596483201E+02  0.00000000000E+00 0.  1.
          4   -1    0    0  501    0  0.00000000000E+00 -0.00000000000E+00 -0.25043707699E+03  0.25043707699E+03  0.00000000000E+00 0. -1.
         23    2    1    2    0    0 -0.94092523491E+01 -0.86211620736E+02 -0.40102498175E+02  0.13112836090E+03  0.89807901057E+02 0.  0.
          5    1    1    2  502    0  0.10648704085E+02  0.10949954088E+03 -0.13640535448E+03  0.17529243419E+03  0.41800000000E+01 0.  1.
         -5    1    1    2    0  502 -0.12394517363E+01 -0.23287920147E+02  0.66672588660E+01  0.24612765106E+02  0.41800000000E+01 0.  1.
        -11    1    3    3    0    0 -0.35042850279E+02 -0.68785157848E+02 -0.56874065168E+02  0.95885653695E+02  0.00000000000E+00 0. -1.
         11    1    3    3    0    0  0.25633597930E+02 -0.17426462888E+02  0.16771566993E+02  0.35242707203E+02  0.00000000000E+00 0.  1.
</event>
<event>
 8    1  0.6493926E-009  0.9362287E+02  0.7561462E-02  0.1294308E+00
          2   -1    0    0  501    0  0.00000000000E+00  0.00000000000E+00  0.32752786813E+03  0.32752786813E+03  0.00000000000E+00 0. -1.
         -2   -1    0    0    0  501 -0.00000000000E+00 -0.00000000000E+00 -0.40696344056E+02  0.40696344056E+02  0.00000000000E+00 0.  1.
         25    2    1    2    0    0  0.29100289531E+02 -0.27210833539E+02  0.17418667776E+03  0.21811491988E+03  0.12508342517E+03 0.  0.
         23    2    1    2    0    0 -0.29100289531E+02  0.27210833539E+02  0.11264484632E+03  0.15010929231E+03  0.90866285955E+02 0.  0.
          5    1    3    3  502    0  0.41262593738E+02  0.42965157909E+02  0.73196495118E+02  0.94465897199E+02  0.41800000000E+01 0. -1.
         -5    1    3    3    0  502 -0.12162304206E+02 -0.70175991448E+02  0.10099018264E+03  0.12364902268E+03  0.41800000000E+01 0. -1.
        -11    1    4    4    0    0 -0.17512696114E+02  0.37051663292E+02  0.12434587113E+03  0.13092523036E+03  0.00000000000E+00 0. -1.
         11    1    4    4    0    0 -0.11587593417E+02 -0.98408297527E+01 -0.11701024810E+02  0.19184061953E+02  0.00000000000E+00 0.  1.
</event>
<event>
 8    1  0.6493926E-009  0.1993598E+03  0.7561462E-02  0.1150280E+00
         -1   -1    0    0    0  501 -0.00000000000E+00  0.00000000000E+00  0.21129910739E+03  0.21129910739E+03  0.00000000000E+00 0.  1.
          1   -1    0    0  501    0  0.00000000000E+00 -0.00000000000E+00 -0.22000847181E+03  0.22000847181E+03  0.00000000000E+00 0. -1.
         25    2    1    2    0    0 -0.18603838920E+03  0.24572825717E+01 -0.60871477951E+01  0.22426575856E+03  0.12506700844E+03 0.  0.
         23    2    1    2    0    0  0.18603838920E+03 -0.24572825717E+01 -0.26222166243E+01  0.20704182064E+03  0.90791623961E+02 0.  0.
          5    1    3    3  502    0 -0.14781881492E+03 -0.42123309568E+02 -0.36458085689E+02  0.15802354149E+03  0.41800000000E+01 0.  1.
         -5    1    3    3    0  502 -0.38219574281E+02  0.44580592140E+02  0.30370937894E+02  0.66242217070E+02  0.41800000000E+01 0.  1.
        -11    1    4    4    0    0  0.11697244792E+03  0.19823548236E+00  0.42551442622E+02  0.12447175639E+03  0.00000000000E+00 0.  1.
         11    1    4    4    0    0  0.69065941283E+02 -0.26555180541E+01 -0.45173659246E+02  0.82570064256E+02  0.00000000000E+00 0. -1.
</event>
<event>
 8    1  0.6493926E-009  0.1059708E+03  0.7561462E-02  0.1268219E+00
         -2   -1    0    0    0  501 -0.00000000000E+00  0.00000000000E+00  0.27150640378E+02  0.27150640378E+02  0.00000000000E+00 0.  1.
          2   -1    0    0  501    0  0.00000000000E+00 -0.00000000000E+00 -0.81899364338E+03  0.81899364338E+03  0.00000000000E+00 0. -1.
         25    2    1    2    0    0  0.36319090983E+02 -0.31928139539E+02 -0.69490913281E+03  0.70773034528E+03  0.12508019947E+03 0.  0.
         23    2    1    2    0    0 -0.36319090983E+02  0.31928139539E+02 -0.96933870187E+02  0.13841393848E+03  0.86161248314E+02 0.  0.
          5    1    3    3  502    0 -0.40071207909E+02 -0.20761589439E+02 -0.41067629510E+03  0.41316974364E+03  0.41800000000E+01 0.  1.
         -5    1    3    3    0  502  0.76390298892E+02 -0.11166550100E+02 -0.28423283771E+03  0.29456060164E+03  0.41800000000E+01 0.  1.
        -11    1    4    4    0    0  0.14244149351E+02  0.35861585761E+02 -0.13701424568E+02  0.40947260705E+02  0.00000000000E+00 0.  1.
         11    1    4    4    0    0 -0.50563240334E+02 -0.39334462215E+01 -0.83232445619E+02  0.97466677772E+02  0.00000000000E+00 0. -1.
</event>
<event>
 8    1  0.6493926E-009  0.1047844E+03  0.7561462E-02  0.1270545E+00
         -1   -1    0    0    0  501 -0.00000000000E+00  0.00000000000E+00  0.48273620536E+03  0.48273620536E+03  0.00000000000E+00 0.  1.
          1   -1    0    0  501    0  0.00000000000E+00 -0.00000000000E+00 -0.35798460877E+02  0.35798460877E+02  0.00000000000E+00 0. -1.
         25    2    1    2    0    0  0.73816938115E+02 -0.16380174119E+02  0.26310604824E+03  0.30097970392E+03  0.12508692614E+03 0.  0.
         23    2    1    2    0    0 -0.73816938115E+02  0.16380174119E+02  0.18383169624E+03  0.21755496232E+03  0.88424083998E+02 0.  0.
          5    1    3    3  502    0  0.53366707417E+02  0.44490990590E+02  0.19605833994E+03  0.20804758774E+03  0.41800000000E+01 0.  1.
         -5    1    3    3    0  502  0.20450230698E+02 -0.60871164708E+02  0.67047708300E+02  0.92932116176E+02  0.41800000000E+01 0.  1.
        -11    1    4    4    0    0 -0.15348493808E+02  0.33100978146E+01 -0.72549100946E+01  0.17296436922E+02  0.00000000000E+00 0. -1.
         11    1    4    4    0    0 -0.58468444307E+02  0.13070076304E+02  0.19108660634E+03  0.20025852540E+03  0.00000000000E+00 0.  1.
</event>
<event>
 8    1  0.6493926E-009  0.9676305E+02  0.7561462E-02  0.1287254E+00
          2   -1    0    0  501    0  0.00000000000E+00  0.00000000000E+00  0.27197857870E+03  0.27197857870E+03  0.00000000000E+00 0.  1.
         -2   -1    0    0    0  501 -0.00000000000E+00 -0.00000000000E+00 -0.64817199773E+02  0.64817199773E+02  0.00000000000E+00 0. -1.
         25    2    1    2    0    0 -0.33811469776E+02  0.19173348638E+02  0.20391689140E+03  0.24234499505E+03  0.12505264988E+03 0.  0.
         23    2    1    2    0    0  0.33811469776E+02 -0.19173348638E+02  0.32444875340E+01  0.94450783427E+02  0.86020875397E+02 0.  0.
          5    1    3    3  502    0  0.37982806149E+02  0.15852239527E+02  0.14029925481E+03  0.14627146120E+03  0.41800000000E+01 0.  1.
         -5    1    3    3    0  502 -0.71794275926E+02  0.33211091108E+01  0.63617636584E+02  0.96073533847E+02  0.41800000000E+01 0.  1.
        -11    1    4    4    0    0 -0.42122161237E+01 -0.37652633564E+02  0.26466759279E+02  0.46216370754E+02  0.00000000000E+00 0.  1.
         11    1    4    4    0    0  0.38023685900E+02  0.18479284926E+02 -0.23222271745E+02  0.48234412672E+02  0.00000000000E+00 0. -1.
</event>
<event>
 8    1  0.6493926E-009  0.1278189E+03  0.7561462E-02  0.1230728E+00
          1   -1    0    0  501    0  0.00000000000E+00  0.00000000000E+00  0.89976936585E+02  0.89976936585E+02  0.00000000000E+00 0. -1.
         -1   -1    0    0    0  501 -0.00000000000E+00 -0.00000000000E+00 -0.25228877881E+03  0.25228877881E+03  0.00000000000E+00 0.  1.
         25    2    1    2    0    0 -0.62911360603E+02 -0.65269757946E+02 -0.14674384264E+03  0.21304944245E+03  0.12505330456E+03 0.  0.
         23    2    1    2    0    0  0.62911360603E+02  0.65269757946E+02 -0.15567999584E+02  0.12921627294E+03  0.90755176090E+02 0.  0.
          5    1    3    3  502    0  0.34785173660E+02  0.14728646326E+01 -0.44216738430E+02  0.56433766436E+02  0.41800000000E+01 0. -1.
         -5    1    3    3    0  502 -0.97696534263E+02 -0.66742622578E+02 -0.10252710421E+03  0.15661567601E+03  0.41800000000E+01 0. -1.
        -11    1    4    4    0    0  0.65597131694E+02  0.40134274356E+02 -0.46035803518E+02  0.89627221702E+02  0.00000000000E+00 0.  1.
         11    1    4    4    0    0 -0.26857710909E+01  0.25135483590E+02  0.30467803934E+02  0.39589051241E+02  0.00000000000E+00 0. -1.
</event>
<event>
 8    1  0.6493926E-009  0.2225143E+03  0.7561462E-02  0.1132022E+00
         -1   -1    0    0    0  501 -0.00000000000E+00  0.00000000000E+00  0.18331635392E+04  0.18331635392E+04  0.00000000000E+00 0.  1.
          1   -1    0    0  501    0  0.00000000000E+00 -0.00000000000E+00 -0.33897138899E+02  0.33897138899E+02  0.00000000000E+00 0. -1.
         25    2    1    2    0    0 -0.87828559993E+02 -0.19877395779E+03  0.11357993496E+04  0.11631478359E+04  0.12509110032E+03 0.  0.
         23    2    1    2    0    0  0.87828559993E+02  0.19877395779E+03  0.66346705069E+03  0.70391284218E+03  0.89887817820E+02 0.  0.
          5    1    3    3  502    0 -0.70587746932E+02 -0.15922788020E+03  0.10717054525E+04  0.10857744688E+04  0.41800000000E+01 0.  1.
         -5    1    3    3    0  502 -0.17240813061E+02 -0.39546077589E+02  0.64093897126E+02  0.77373367101E+02  0.41800000000E+01 0.  1.
        -11    1    4    4    0    0  0.66208264114E+02  0.67979405761E+02  0.36853929705E+03  0.38056004429E+03  0.00000000000E+00 0.  1.
         11    1    4    4    0    0  0.21620295879E+02  0.13079455203E+03  0.29492775365E+03  0.32335279789E+03  0.00000000000E+00 0. -1.
</event>
<event>
 8    1  0.6493926E-009  0.2656920E+03  0.7561462E-02  0.1103771E+00
          1   -1    0    0  501    0  0.00000000000E+00  0.00000000000E+00  0.90378812649E+02  0.90378812649E+02  0.00000000000E+00 0. -1.
         -1   -1    0    0    0  501 -0.00000000000E+00 -0.00000000000E+00 -0.91822201109E+03  0.91822201109E+03  0.00000000000E+00 0.  1.
         25    2    1    2    0    0 -0.16156414374E+03  0.19675309763E+03 -0.55912674653E+03  0.62696494442E+03  0.12509024292E+03 0.  0.
         23    2    1    2    0    0  0.16156414374E+03 -0.19675309763E+03 -0.26871645191E+03  0.38163587933E+03  0.92858273150E+02 0.  0.
          5    1    3    3  502    0 -0.44676122639E+02  0.25122591733E+01 -0.38764377900E+02  0.59349951762E+02  0.41800000000E+01 0. -1.
         -5    1    3    3    0  502 -0.11688802110E+03  0.19424083845E+03 -0.52036236863E+03  0.56761499265E+03  0.41800000000E+01 0. -1.
        -11    1    4    4    0    0  0.10459161195E+02 -0.42518803208E+02 -0.94663566161E+02  0.10429972885E+03  0.00000000000E+00 0.  1.
         11    1    4    4    0    0  0.15110498254E+03 -0.15423429442E+03 -0.17405288575E+03  0.27733615048E+03  0.00000000000E+00 0. -1.
</event>
<event>
 8    1  0.6493926E-009  0.1083282E+03  0.7561462E-02  0.1263697E+00
          2   -1    0    0  501    0  0.00000000000E+00  0.00000000000E+00  0.16957363263E+03  0.16957363263E+03  0.00000000000E+00 0.  1.
         -2   -1    0    0    0  501 -0.00000000000E+00 -0.00000000000E+00 -0.86426527809E+02  0.86426527809E+02  0.00000000000E+00 0. -1.
         25    2    1    2    0    0 -0.48368066242E+02 -0.62574537584E+01  0.72558077407E+02  0.15261240169E+03  0.12508894832E+03 0.  0.
         23    2    1    2    0    0  0.48368066242E+02  0.62574537584E+01  0.10589027413E+02  0.10338775875E+03  0.90544329465E+02 0.  0.
          5    1    3    3  502    0 -0.76939677127E+02 -0.42129130632E+02  0.41992369894E+02  0.97341713019E+02  0.41800000000E+01 0.  1.
         -5    1    3    3    0  502  0.28571610885E+02  0.35871676873E+02  0.30565707513E+02  0.55270688670E+02  0.41800000000E+01 0.  1.
        -11    1    4    4    0    0  0.35835568238E+01  0.31281957669E+02  0.34568101454E+02  0.46758490066E+02  0.00000000000E+00 0.  1.
         11    1    4    4    0    0  0.44784509418E+02 -0.25024503911E+02 -0.23979074041E+02  0.56629268684E+02  0.00000000000E+00 0. -1.
</event>
<event>
 8    1  0.6493926E-009  0.9841450E+02  0.7561462E-02  0.1283666E+00
         -3   -1    0    0    0  501 -0.00000000000E+00  0.00000000000E+00  0.41865964731E+03  0.41865964731E+03  0.00000000000E+00 0.  1.
          3   -1    0    0  501    0  0.00000000000E+00 -0.00000000000E+00 -0.35607526216E+02  0.35607526216E+02  0.00000000000E+00 0. -1.
         25    2    1    2    0    0 -0.40199325400E+02 -0.70475963626E+01  0.14546801367E+03  0.19614784347E+03  0.12508948444E+03 0.  0.
         23    2    1    2    0    0  0.40199325400E+02  0.70475963626E+01  0.23758410742E+03  0.25811933006E+03  0.92269854641E+02 0.  0.
          5    1    3    3  502    0  0.36003987283E+02  0.15813779778E+02  0.13108639165E+02  0.41661391622E+02  0.41800000000E+01 0. -1.
         -5    1    3    3    0  502 -0.76203312683E+02 -0.22861376140E+02  0.13235937451E+03  0.15448645184E+03  0.41800000000E+01 0. -1.
        -11    1    4    4    0    0  0.66567969786E+01 -0.28190140627E+02  0.20090093826E+02  0.35250657363E+02  0.00000000000E+00 0. -1.
         11    1    4    4    0    0  0.33542528421E+02  0.35237736989E+02  0.21749401360E+03  0.22286867270E+03  0.00000000000E+00 0.  1.
</event>
<event>
 8    1  0.6493926E-009  0.1820465E+03  0.7561462E-02  0.1165837E+00
          1   -1    0    0  501    0  0.00000000000E+00  0.00000000000E+00  0.54356292761E+03  0.54356292761E+03  0.00000000000E+00 0. -1.
         -1   -1    0    0    0  501 -0.00000000000E+00 -0.00000000000E+00 -0.86383082580E+02  0.86383082580E+02  0.00000000000E+00 0.  1.
         25    2    1    2    0    0 -0.90805549304E+02 -0.11962214864E+03  0.74722467063E+02  0.20925240555E+03  0.12509202979E+03 0.  0.
         23    2    1    2    0    0  0.90805549304E+02  0.11962214864E+03  0.38245737796E+03  0.42069360463E+03  0.90301477231E+02 0.  0.
          5    1    3    3  502    0 -0.12212821611E+03 -0.89622092824E+02  0.63118189637E+02  0.16416089350E+03  0.41800000000E+01 0. -1.
         -5    1    3    3    0  502  0.31322666806E+02 -0.30000055813E+02  0.11604277426E+02  0.45091512052E+02  0.41800000000E+01 0. -1.
        -11    1    4    4    0    0  0.17932153592E+02  0.87536414922E+02  0.14582211161E+03  0.17102126857E+03  0.00000000000E+00 0.  1.
         11    1    4    4    0    0  0.72873395712E+02  0.32085733715E+02  0.23663526636E+03  0.24967233606E+03  0.00000000000E+00 0. -1.
</event>
<event>
 8    1  0.6493926E-009  0.7962535E+02  0.7561462E-02  0.1330118E+00
         -2   -1    0    0    0  501 -0.00000000000E+00  0.00000000000E+00  0.42863409288E+02  0.42863409288E+02  0.00000000000E+00 0.  1.
          2   -1    0    0  501    0  0.00000000000E+00 -0.00000000000E+00 -0.28589859337E+03  0.28589859337E+03  0.00000000000E+00 0. -1.
         25    2    1    2    0    0 -0.25499933066E+02  0.11235593608E+02 -0.15322323958E+03  0.19975280726E+03  0.12508931892E+03 0.  0.
         23    2    1    2    0    0  0.25499933066E+02 -0.11235593608E+02 -0.89811944499E+02  0.12900919540E+03  0.88321582714E+02 0.  0.
          5    1    3    3  502    0 -0.60612391901E+02  0.14960612407E+02 -0.26179252935E+02  0.67827042246E+02  0.41800000000E+01 0. -1.
         -5    1    3    3    0  502  0.35112458835E+02 -0.37250187988E+01 -0.12704398665E+03  0.13192576501E+03  0.41800000000E+01 0. -1.
        -11    1    4    4    0    0 -0.12678904474E+02  0.11134200899E+02 -0.82440645086E+02  0.84149777245E+02  0.00000000000E+00 0. -1.
         11    1    4    4    0    0  0.38178837540E+02 -0.22369794507E+02 -0.73712994137E+01  0.44859418156E+02  0.00000000000E+00 0.  1.
</event>
<event>
 8    1  0.6493926E-009  0.1926992E+03  0.7561462E-02  0.1156049E+00
          2   -1    0    0  501    0  0.00000000000E+00  0.00000000000E+00  0.27764958759E+03  0.27764958759E+03  0.00000000000E+00 0.  1.
         -2   -1    0    0    0  501 -0.00000000000E+00 -0.00000000000E+00 -0.15099510183E+03  0.15099510183E+03  0.00000000000E+00 0. -1.
         25    2    1    2    0    0  0.17001941405E+03 -0.21425782371E+02  0.84684501025E+02  0.22844391436E+03  0.12509792960E+03 0.  0.
         23    2    1    2    0    0 -0.17001941405E+03  0.21425782371E+02  0.41969984736E+02  0.20020077505E+03  0.94621379226E+02 0.  0.
          5    1    3    3  502    0 -0.51153849945E+01 -0.16650708063E+02  0.45454614226E+02  0.48857011750E+02  0.41800000000E+01 0.  1.
         -5    1    3    3    0  502  0.17513479905E+03 -0.47750743081E+01  0.39229886798E+02  0.17958690261E+03  0.41800000000E+01 0.  1.
        -11    1    4    4    0    0 -0.28059310277E+02 -0.30159054136E+02  0.25055145191E+02  0.48214663124E+02  0.00000000000E+00 0.  1.
         11    1    4    4    0    0 -0.14196010378E+03  0.51584836507E+02  0.16914839544E+02  0.15198611193E+03  0.00000000000E+00 0. -1.
</event>
<event>
 8    1  0.6493926E-009  0.1445562E+03  0.7561462E-02  0.1207326E+00
         -2   -1    0    0    0  501 -0.00000000000E+00  0.00000000000E+00  0.17016225336E+04  0.17016225336E+04  0.00000000000E+00 0.  1.
          2   -1    0    0  501    0  0.00000000000E+00 -0.00000000000E+00 -0.14409100104E+02  0.14409100104E+02  0.00000000000E+00 0. -1.
         25    2    1    2    0    0  0.64557329923E+02 -0.75179189112E+02  0.12115816322E+04  0.12220463966E+04  0.12509110584E+03 0.  0.
         23    2    1    2    0    0 -0.64557329923E+02  0.75179189112E+02  0.47563180136E+03  0.49398523712E+03  0.89309824223E+02 0.  0.
          5    1    3    3  502    0 -0.34324481600E+02 -0.49215053224E-02  0.31489091385E+03  0.31678372763E+03  0.41800000000E+01 0.  1.
         -5    1    3    3    0  502  0.98881811523E+02 -0.75174267607E+02  0.89669071832E+03  0.90526266900E+03  0.41800000000E+01 0.  1.
        -11    1    4    4    0    0 -0.80418814073E+02  0.80239052118E+02  0.44322264276E+03  0.45754978112E+03  0.00000000000E+00 0.  1.
         11    1    4    4    0    0  0.15861484150E+02 -0.50598630058E+01  0.32409158599E+02  0.36435456003E+02  0.00000000000E+00 0. -1.
</event>
<event>
 8    1  0.6493926E-009  0.2119839E+03  0.7561462E-02  0.1140005E+00
         -2   -1    0    0    0  501 -0.00000000000E+00  0.00000000000E+00  0.54706788711E+02  0.54706788711E+02  0.00000000000E+00 0. -1.
          2   -1    0    0  501    0  0.00000000000E+00 -0.00000000000E+00 -0.83049082710E+03  0.83049082710E+03  0.00000000000E+00 0.  1.
         25    2    1    2    0    0 -0.10441900778E+03  0.15005404572E+03 -0.42704356490E+03  0.48107566279E+03  0.12509213076E+03 0.  0.
         23    2    1    2    0    0  0.10441900778E+03 -0.15005404572E+03 -0.34874047349E+03  0.40412195302E+03  0.90967517524E+02 0.  0.
          5    1    3    3  502    0 -0.11736331720E+03  0.62767710540E+02 -0.25418421695E+03  0.28695125415E+03  0.41800000000E+01 0.  1.
         -5    1    3    3    0  502  0.12944309414E+02  0.87286335181E+02 -0.17285934795E+03  0.19412440864E+03  0.41800000000E+01 0.  1.
        -11    1    4    4    0    0  0.11146642350E+03 -0.93533554076E+02 -0.27296071408E+03  0.30932319786E+03  0.00000000000E+00 0. -1.
         11    1    4    4    0    0 -0.70474157172E+01 -0.56520491645E+02 -0.75779759410E+02  0.94798755162E+02  0.00000000000E+00 0.  1.
</event>
<event>
 8    1  0.6493926E-009  0.1301633E+03  0.7561462E-02  0.1227214E+00
          1   -1    0    0  501    0  0.00000000000E+00  0.00000000000E+00  0.20525084843E+03  0.20525084843E+03  0.00000000000E+00 0. -1.
         -1   -1    0    0    0  501 -0.00000000000E+00 -0.00000000000E+00 -0.17348774066E+03  0.17348774066E+03  0.00000000000E+00 0.  1.
         25    2    1    2    0    0  0.10631487004E+03  0.63521426095E+01  0.12340877467E+03  0.20548106249E+03  0.12509812175E+03 0.  0.
         23    2    1    2    0    0 -0.10631487004E+03 -0.63521426095E+01 -0.91645666899E+02  0.17325752660E+03  0.10137080919E+03 0.  0.
          5    1    3    3  502    0  0.17383603313E+02 -0.22288658278E+02 -0.19569287440E+02  0.34632403366E+02  0.41800000000E+01 0. -1.
         -5    1    3    3    0  502  0.88931266730E+02  0.28640800888E+02  0.14297806211E+03  0.17084865912E+03  0.41800000000E+01 0. -1.
        -11    1    4    4    0    0 -0.76484192100E+02 -0.45513121426E+02 -0.29049163856E+02  0.93622271837E+02  0.00000000000E+00 0. -1.
         11    1    4    4    0    0 -0.29830677944E+02  0.39160978816E+02 -0.62596503044E+02  0.79635254767E+02  0.00000000000E+00 0.  1.
</event>
<event>
 8    1  0.6493926E-009  0.1278624E+03  0.7561462E-02  0.1230662E+00
         -2   -1    0    0    0  501 -0.00000000000E+00  0.00000000000E+00  0.50031033788E+02  0.50031033788E+02  0.00000000000E+00 0.  1.
          2   -1    0    0  501    0  0.00000000000E+00 -0.00000000000E+00 -0.45537425084E+03  0.45537425084E+03  0.00000000000E+00 0. -1.
         25    2    1    2    0    0 -0.74201629239E+02  0.19364374268E+02 -0.10042858227E+03  0.17780336660E+03  0.12508907333E+03 0.  0.
         23    2    1    2    0    0  0.74201629239E+02 -0.19364374268E+02 -0.30491463478E+03  0.32760191802E+03  0.92028372881E+02 0.  0.
          5    1    3    3  502    0  0.28097814664E+02  0.28245203895E+02 -0.10924044454E+02  0.41522113135E+02  0.41800000000E+01 0. -1.
         -5    1    3    3    0  502 -0.10229944390E+03 -0.88808296272E+01 -0.89504537815E+02  0.13628125347E+03  0.41800000000E+01 0. -1.
        -11    1    4    4    0    0  0.81449571395E+02  0.10537535345E+02 -0.16457758545E+03  0.18393165569E+03  0.00000000000E+00 0.  1.
         11    1    4    4    0    0 -0.72479421565E+01 -0.29901909613E+02 -0.14033704933E+03  0.14367026233E+03  0.00000000000E+00 0. -1.
</event>
<event>
 8    1  0.6493926E-009  0.1549442E+03  0.7561462E-02  0.1194526E+00
          1   -1    0    0  501    0  0.00000000000E+00  0.00000000000E+00  0.23858503615E+03  0.23858503615E+03  0.00000000000E+00 0. -1.
         -1   -1    0    0    0  501 -0.00000000000E+00 -0.00000000000E+00 -0.12335478544E+03  0.12335478544E+03  0.00000000000E+00 0.  1.
         25    2    1    2    0    0 -0.11747439136E+03  0.63156799821E+02  0.74902548380E+02  0.19760268395E+03  0.12508962771E+03 0.  0.
         23    2    1    2    0    0  0.11747439136E+03 -0.63156799821E+02  0.40327702333E+02  0.16433713765E+03  0.87128395172E+02 0.  0.
          5    1    3    3  502    0 -0.37226107039E+02  0.82818583202E+02  0.70006341397E+02  0.11473038396E+03  0.41800000000E+01 0. -1.
         -5    1    3    3    0  502 -0.80248284320E+02 -0.19661783381E+02  0.48962069825E+01  0.82872299985E+02  0.41800000000E+01 0. -1.
        -11    1    4    4    0    0  0.71728469026E+02 -0.22809867233E+02  0.64107977272E+02  0.98869085471E+02  0.00000000000E+00 0. -1.
         11    1    4    4    0    0  0.45745922333E+02 -0.40346932588E+02 -0.23780274939E+02  0.65468052174E+02  0.00000000000E+00 0.  1.
</event>
<event>
 8    1  0.6493926E-009  0.3068258E+03  0.7561462E-02  0.1081877E+00
          1   -1    0    0  501    0  0.00000000000E+00  0.00000000000E+00  0.50361048541E+03  0.50361048541E+03  0.00000000000E+00 0. -1.
         -1   -1    0    0    0  501 -0.00000000000E+00 -0.00000000000E+00 -0.26192294551E+03  0.26192294551E+03  0.00000000000E+00 0.  1.
         25    2    1    2    0    0  0.24920720212E+03  0.16654748652E+03 -0.59856521327E+02  0.33026116776E+03  0.12508933181E+03 0.  0.
         23    2    1    2    0    0 -0.24920720212E+03 -0.16654748652E+03  0.30154406123E+03  0.43527226316E+03  0.93224607043E+02 0.  0.
          5    1    3    3  502    0  0.18736282685E+03  0.12757870843E+03  0.12850422294E+02  0.22707655423E+03  0.41800000000E+01 0.  1.
         -5    1    3    3    0  502  0.61844375266E+02  0.38968778094E+02 -0.72706943621E+02  0.10318461353E+03  0.41800000000E+01 0.  1.
        -11    1    4    4    0    0 -0.14749314345E+03 -0.15054624480E+03  0.19563176972E+03  0.28755901744E+03  0.00000000000E+00 0.  1.
         11    1    4    4    0    0 -0.10171405867E+03 -0.16001241720E+02  0.10591229151E+03  0.14771324572E+03  0.00000000000E+00 0. -1.
</event>
<event>
 8    1  0.6493926E-009  0.9542909E+02  0.7561462E-02  0.1290213E+00
          2   -1    0    0  501    0  0.00000000000E+00  0.00000000000E+00  0.94381373319E+02  0.94381373319E+02  0.00000000000E+00 0. -1.
         -2   -1    0    0    0  501 -0.00000000000E+00 -0.00000000000E+00 -0.15520525528E+03  0.15520525528E+03  0.00000000000E+00 0.  1.
         25    2    1    2    0    0  0.40144084617E+02 -0.36064119020E+02 -0.29307555082E+02  0.13935058955E+03  0.12508991091E+03 0.  0.
         23    2    1    2    0    0 -0.40144084617E+02  0.36064119020E+02 -0.31516326880E+02  0.11023603905E+03  0.90810446734E+02 0.  0.
          5    1    3    3  502    0  0.24539103682E+02  0.23854366150E+02 -0.60697112770E+02  0.69805517637E+02  0.41800000000E+01 0.  1.
         -5    1    3    3    0  502  0.15604980935E+02 -0.59918485169E+02  0.31389557688E+02  0.69545071909E+02  0.41800000000E+01 0.  1.
        -11    1    4    4    0    0 -0.54010657965E+02  0.50758599294E+02 -0.44279603568E+02  0.86338113648E+02  0.00000000000E+00 0.  1.
         11    1    4    4    0    0  0.13866573347E+02 -0.14694480275E+02  0.12763276688E+02  0.23897925407E+02  0.00000000000E+00 0. -1.
</event>
<event>
 8    1  0.6493926E-009  0.9991831E+02  0.7561462E-02  0.1280468E+00
          2   -1    0    0  501    0  0.00000000000E+00  0.00000000000E+00  0.18487237439E+02  0.18487237439E+02  0.00000000000E+00 0. -1.
         -2   -1    0    0    0  501 -0.00000000000E+00 -0.00000000000E+00 -0.68737270513E+03  0.68737270513E+03  0.00000000000E+00 0.  1.
         25    2    1    2    0    0 -0.12517690605E+02 -0.30322064530E+01 -0.48358016160E+03  0.49966314479E+03  0.12509036221E+03 0.  0.
         23    2    1    2    0    0  0.12517690605E+02  0.30322064530E+01 -0.18530530609E+03  0.20619679778E+03  0.89516345397E+02 0.  0.
          5    1    3    3  502    0 -0.29569895159E+02  0.48025006059E+02 -0.36518739775E+03  0.36954037368E+03  0.41800000000E+01 0.  1.
         -5    1    3    3    0  502  0.17052204554E+02 -0.51057212512E+02 -0.11839276385E+03  0.13012277111E+03  0.41800000000E+01 0.  1.
        -11    1    4    4    0    0 -0.30900593885E+02 -0.23131949626E+02 -0.96636147091E+02  0.10405997655E+03  0.00000000000E+00 0.  1.
         11    1    4    4    0    0  0.43418284489E+02  0.26164156079E+02 -0.88669159000E+02  0.10213682122E+03  0.00000000000E+00 0. -1.
</event>
<event>
 8    1  0.6493926E-009  0.7252240E+02  0.7561462E-02  0.1351720E+00
          1   -1    0    0  501    0  0.00000000000E+00  0.00000000000E+00  0.55773531870E+02  0.55773531870E+02  0.00000000000E+00 0. -1.
         -1   -1    0    0    0  501 -0.00000000000E+00 -0.00000000000E+00 -0.23682504129E+03  0.23682504129E+03  0.00000000000E+00 0.  1.
         25    2    1    2    0    0 -0.37201587365E+02 -0.17639171925E+02 -0.91763890739E+02  0.16050719054E+03  0.12508736181E+03 0.  0.
         23    2    1    2    0    0  0.37201587365E+02  0.17639171925E+02 -0.89287618680E+02  0.13209138261E+03  0.88208593813E+02 0.  0.
          5    1    3    3  502    0 -0.40009512117E+02 -0.10065754897E+02 -0.12204102207E+03  0.12889361485E+03  0.41800000000E+01 0.  1.
         -5    1    3    3    0  502  0.28079247517E+01 -0.75734170275E+01  0.30277131328E+02  0.31613575697E+02  0.41800000000E+01 0.  1.
        -11    1    4    4    0    0  0.63648944932E+02  0.22661132702E+02 -0.77179333455E+02  0.10257370345E+03  0.00000000000E+00 0.  1.
         11    1    4    4    0    0 -0.26447357566E+02 -0.50219607771E+01 -0.12108285225E+02  0.29517679167E+02  0.00000000000E+00 0. -1.
</event>
<event>
 8    1  0.6493926E-009  0.2383772E+03  0.7561462E-02  0.1120879E+00
         -1   -1    0    0    0  501 -0.00000000000E+00  0.00000000000E+00  0.93565416052E+02  0.93565416052E+02  0.00000000000E+00 0.  1.
          1   -1    0    0  501    0  0.00000000000E+00 -0.00000000000E+00 -0.63257917522E+03  0.63257917522E+03  0.00000000000E+00 0. -1.
         25    2    1    2    0    0 -0.17185803724E+03 -0.12981355602E+03 -0.23557757858E+03  0.34282776828E+03  0.12508932362E+03 0.  0.
         23    2    1    2    0    0  0.17185803724E+03  0.12981355602E+03 -0.30343618059E+03  0.38331682300E+03  0.92040897495E+02 0.  0.
          5    1    3    3  502    0 -0.16768795356E+03 -0.60788442869E+02 -0.18528053915E+03  0.25721748608E+03  0.41800000000E+01 0. -1.
         -5    1    3    3    0  502 -0.41700836789E+01 -0.69025113149E+02 -0.50297039431E+02  0.85610282202E+02  0.41800000000E+01 0. -1.
        -11    1    4    4    0    0  0.12294960188E+03  0.13163035930E+03 -0.20168588915E+03  0.27040775501E+03  0.00000000000E+00 0.  1.
         11    1    4    4    0    0  0.48908435364E+02 -0.18168032830E+01 -0.10175029144E+03  0.11290906798E+03  0.00000000000E+00 0. -1.
</event>
<event>
 8    1  0.6493926E-009  0.1388780E+03  0.7561462E-02  0.1214847E+00
         -1   -1    0    0    0  501 -0.00000000000E+00  0.00000000000E+00  0.24586091231E+03  0.24586091231E+03  0.00000000000E+00 0.  1.
          1   -1    0    0  501    0  0.00000000000E+00 -0.00000000000E+00 -0.88549992317E+02  0.88549992317E+02  0.00000000000E+00 0. -1.
         25    2    1    2    0    0  0.20410439279E+02  0.10212837770E+03  0.87624110315E+02  0.18485905700E+03  0.12509234462E+03 0.  0.
         23    2    1    2    0    0 -0.20410439279E+02 -0.10212837770E+03  0.69686809677E+02  0.14955184763E+03  0.81625437966E+02 0.  0.
          5    1    3    3  502    0 -0.30673236772E+02  0.10421802060E+03  0.43155262981E+02  0.11697047659E+03  0.41800000000E+01 0.  1.
         -5    1    3    3    0  502  0.51083676051E+02 -0.20896428973E+01  0.44468847334E+02  0.67888580406E+02  0.41800000000E+01 0.  1.
        -11    1    4    4    0    0 -0.35799825312E+02 -0.39762791236E+02  0.66341489330E+02  0.85228517914E+02  0.00000000000E+00 0.  1.
         11    1    4    4    0    0  0.15389386033E+02 -0.62365586464E+02  0.33453203476E+01  0.64323329715E+02  0.00000000000E+00 0. -1.
</event>
<event>
 8    1  0.6493926E-009  0.1211961E+03  0.7561462E-02  0.1241137E+00
         -2   -1    0    0    0  501 -0.00000000000E+00  0.00000000000E+00  0.12001459148E+02  0.12001459148E+02  0.00000000000E+00 0.  1.
          2   -1    0    0  501    0  0.00000000000E+00 -0.00000000000E+00 -0.13843426721E+04  0.13843426721E+04  0.00000000000E+00 0. -1.
         25    2    1    2    0    0  0.19497643878E+02  0.58901214715E+02 -0.89267022845E+03  0.90352486129E+03  0.12509007553E+03 0.  0.
         23    2    1    2    0    0 -0.19497643878E+02 -0.58901214715E+02 -0.47967098452E+03  0.49281926998E+03  0.94536068557E+02 0.  0.
          5    1    3    3  502    0  0.65346957731E+02  0.64033298844E+02 -0.52233036173E+03  0.53029894157E+03  0.41800000000E+01 0.  1.
         -5    1    3    3    0  502 -0.45849313853E+02 -0.51320841285E+01 -0.37033986672E+03  0.37322591971E+03  0.41800000000E+01 0.  1.
        -11    1    4    4    0    0  0.21119254851E+02 -0.60248184366E+02 -0.37753899706E+03  0.38289889128E+03  0.00000000000E+00 0. -1.
         11    1    4    4    0    0 -0.40616898729E+02  0.13469696509E+01 -0.10213198746E+03  0.10992037870E+03  0.00000000000E+00 0.  1.
</event>
<event>
 8    1  0.6493926E-009  0.9719669E+02  0.7561462E-02  0.1286304E+00
          1   -1    0    0  501    0  0.00000000000E+00  0.00000000000E+00  0.57953175551E+03  0.57953175551E+03  0.00000000000E+00 0. -1.
         -1   -1    0    0    0  501 -0.00000000000E+00 -0.00000000000E+00 -0.24855688428E+02  0.24855688428E+02  0.00000000000E+00 0.  1.
         25    2    1    2    0    0 -0.36109431964E+02  0.23970004476E+02  0.24335294904E+03  0.27703522643E+03  0.12509758863E+03 0.  0.
         23    2    1    2    0    0  0.36109431964E+02 -0.23970004476E+02  0.31132311804E+03  0.32735221752E+03  0.91427229500E+02 0.  0.
          5    1    3    3  502    0 -0.73757154835E+02  0.25341642200E+02  0.90444754275E+02  0.11949913261E+03  0.41800000000E+01 0.  1.
         -5    1    3    3    0  502  0.37647722871E+02 -0.13716377232E+01  0.15290819477E+03  0.15753609382E+03  0.41800000000E+01 0.  1.
        -11    1    4    4    0    0  0.86606857230E+01  0.22671479187E+02  0.21200755607E+02  0.32225385708E+02  0.00000000000E+00 0.  1.
         11    1    4    4    0    0  0.27448746241E+02 -0.46641483663E+02  0.29012236243E+03  0.29512683181E+03  0.00000000000E+00 0. -1.
</event>
<event>
 8    1  0.6493926E-009  0.1178303E+03  0.7561462E-02  0.1246720E+00
          2   -1    0    0  501    0  0.00000000000E+00  0.00000000000E+00  0.71435609823E+03  0.71435609823E+03  0.00000000000E+00 0. -1.
         -2   -1    0    0    0  501 -0.00000000000E+00 -0.00000000000E+00 -0.25544671535E+02  0.25544671535E+02  0.00000000000E+00 0.  1.
         25    2    1    2    0    0  0.73740630806E+02 -0.34431575017E+02  0.42727019931E+03  0.45258343676E+03  0.12509488405E+03 0.  0.
         23    2    1    2    0    0 -0.73740630806E+02  0.34431575017E+02  0.26154122738E+03  0.28731733301E+03  0.86742274789E+02 0.  0.
          5    1    3    3  502    0 -0.65591967370E+01  0.38757446195E+02  0.13813912512E+03  0.14368386474E+03  0.41800000000E+01 0. -1.
         -5    1    3    3    0  502  0.80299827543E+02 -0.73189021212E+02  0.28913107420E+03  0.30889957202E+03  0.41800000000E+01 0. -1.
        -11    1    4    4    0    0 -0.33877234142E+02  0.33326732665E+02  0.39707289408E+02  0.61927432817E+02  0.00000000000E+00 0.  1.
         11    1    4    4    0    0 -0.39863396665E+02  0.11048423523E+01  0.22183393797E+03  0.22538990019E+03  0.00000000000E+00 0. -1.
</event>
<event>
 8    1  0.6493926E-009  0.1015607E+03  0.7561462E-02  0.1277048E+00
          1   -1    0    0  501    0  0.00000000000E+00  0.00000000000E+00  0.13615905128E+03  0.13615905128E+03  0.00000000000E+00 0. -1.
         -1   -1    0    0    0  501 -0.00000000000E+00 -0.00000000000E+00 -0.96354849677E+02  0.96354849677E+02  0.00000000000E+00 0.  1.
         25    2    1    2    0    0  0.31487230544E+02  0.11533882507E+02  0.45020638964E+02  0.13710691863E+03  0.12508786141E+03 0.  0.
         23    2    1    2    0    0 -0.31487230544E+02 -0.11533882507E+02 -0.52164373617E+01  0.95406982323E+02  0.89167286177E+02 0.  0.
          5    1    3    3  502    0  0.57368117204E+02 -0.40871646663E+02  0.29563335902E+02  0.76505265192E+02  0.41800000000E+01 0.  1.
         -5    1    3    3    0  502 -0.25880886660E+02  0.52405529170E+02  0.15457303063E+02  0.60601653442E+02  0.41800000000E+01 0.  1.
        -11    1    4    4    0    0  0.20376012269E+02  0.16693314352E+01  0.26290300098E+02  0.33303879994E+02  0.00000000000E+00 0. -1.
         11    1    4    4    0    0 -0.51863242813E+02 -0.13203213942E+02 -0.31506737460E+02  0.62103102328E+02  0.00000000000E+00 0.  1.
</event>
<event>
 8    1  0.6493926E-009  0.8434578E+02  0.7561462E-02  0.1317152E+00
          1   -1    0    0  501    0  0.00000000000E+00  0.00000000000E+00  0.11456682567E+03  0.11456682567E+03  0.00000000000E+00 0. -1.
         -1   -1    0    0    0  501 -0.00000000000E+00 -0.00000000000E+00 -0.15953070563E+03  0.15953070563E+03  0.00000000000E+00 0.  1.
         25    2    1    2    0    0  0.53984234323E+02 -0.20170946360E+02  0.31973671926E+02  0.14139056786E+03  0.12509121613E+03 0.  0.
         23    2    1    2    0    0 -0.53984234323E+02  0.20170946360E+02 -0.76937551888E+02  0.13270696343E+03  0.91490910039E+02 0.  0.
          5    1    3    3  502    0  0.46977121560E+02 -0.56451660383E+02  0.59917509504E+02  0.94874760897E+02  0.41800000000E+01 0.  1.
         -5    1    3    3    0  502  0.70071127623E+01  0.36280714023E+02 -0.27943837578E+02  0.46515806967E+02  0.41800000000E+01 0.  1.
        -11    1    4    4    0    0 -0.13246837793E+02  0.77880908586E+01 -0.87499580039E+02  0.88838671634E+02  0.00000000000E+00 0.  1.
         11    1    4    4    0    0 -0.40737396530E+02  0.12382855502E+02  0.10562028151E+02  0.43868291796E+02  0.00000000000E+00 0. -1.
</event>
<event>
 8    1  0.6493926E-009  0.1078984E+03  0.7561462E-02  0.1264512E+00
          1   -1    0    0  501    0  0.00000000000E+00  0.00000000000E+00  0.67436514712E+02  0.67436514712E+02  0.00000000000E+00 0. -1.
         -1   -1    0    0    0  501 -0.00000000000E+00 -0.00000000000E+00 -0.55469291488E+03  0.55469291488E+03  0.00000000000E+00 0.  1.
         25    2    1    2    0    0  0.29246390470E+02  0.81930978844E+02 -0.47163684698E+03  0.49563796096E+03  0.12509051229E+03 0.  0.
         23    2    1    2    0    0 -0.29246390470E+02 -0.81930978844E+02 -0.15619553182E+02  0.12649146863E+03  0.90488035364E+02 0.  0.
          5    1    3    3  502    0 -0.86999222866E+01  0.80334385596E+02 -0.43581686161E+03  0.44326415535E+03  0.41800000000E+01 0. -1.
         -5    1    3    3    0  502  0.37946312757E+02  0.15965932485E+01 -0.35819985373E+02  0.52373805609E+02  0.41800000000E+01 0. -1.
        -11    1    4    4    0    0 -0.40106386607E+02 -0.59517459560E+02 -0.47478503424E+02  0.86052649736E+02  0.00000000000E+00 0.  1.
         11    1    4    4    0    0  0.10859996137E+02 -0.22413519284E+02  0.31858950242E+02  0.40438818891E+02  0.00000000000E+00 0. -1.
</event>
<event>
 8    1  0.6493926E-009  0.2050135E+03  0.7561462E-02  0.1145577E+00
         -1   -1    0    0    0  501 -0.00000000000E+00  0.00000000000E+00  0.25615171645E+03  0.25615171645E+03  0.00000000000E+00 0.  1.
          1   -1    0    0  501    0  0.00000000000E+00 -0.00000000000E+00 -0.20016360592E+03  0.20016360592E+03  0.00000000000E+00 0. -1.
         25    2    1    2    0    0  0.15567387055E+03  0.10182938461E+03 -0.40587679132E+02  0.22781134827E+03  0.12508826148E+03 0.  0.
         23    2    1    2    0    0 -0.15567387055E+03 -0.10182938461E+03  0.96575789669E+02  0.22850397410E+03  0.91014314749E+02 0.  0.
          5    1    3    3  502    0  0.16052347992E+03  0.45730323857E+02 -0.38314233336E+02  0.17130237302E+03  0.41800000000E+01 0. -1.
         -5    1    3    3    0  502 -0.48496093708E+01  0.56099060749E+02 -0.22734457959E+01  0.56508975250E+02  0.41800000000E+01 0. -1.
        -11    1    4    4    0    0 -0.14186371721E+02 -0.14745267539E+02 -0.17538057598E+02  0.26949202618E+02  0.00000000000E+00 0.  1.
         11    1    4    4    0    0 -0.14148749883E+03 -0.87084117068E+02  0.11411384727E+03  0.20155477148E+03  0.00000000000E+00 0. -1.
</event>
<event>
 8    1  0.6493926E-009  0.1534568E+03  0.7561462E-02  0.1196289E+00
         -2   -1    0    0    0  501 -0.00000000000E+00  0.00000000000E+00  0.16112736086E+02  0.16112736086E+02  0.00000000000E+00 0.  1.
          2   -1    0    0  501    0  0.00000000000E+00 -0.00000000000E+00 -0.17441254343E+04  0.17441254343E+04  0.00000000000E+00 0. -1.
         25    2    1    2    0    0 -0.86486365944E+02 -0.85151301815E+02 -0.11205330681E+04  0.11340104329E+04  0.12511862231E+03 0.  0.
         23    2    1    2    0    0  0.86486365944E+02  0.85151301815E+02 -0.60747963018E+03  0.62622773750E+03  0.91646289788E+02 0.  0.
          5    1    3    3  502    0 -0.51375182171E+02 -0.10428824565E+03 -0.55557565110E+03  0.56762419259E+03  0.41800000000E+01 0. -1.
         -5    1    3    3    0  502 -0.35111183773E+02  0.19136943834E+02 -0.56495741696E+03  0.56638624032E+03  0.41800000000E+01 0. -1.
        -11    1    4    4    0    0 -0.10952444197E+02  0.42717421765E+02 -0.13825262878E+03  0.14511555231E+03  0.00000000000E+00 0.  1.
         11    1    4    4    0    0  0.97438810141E+02  0.42433880050E+02 -0.46922700140E+03  0.48111218519E+03  0.00000000000E+00 0. -1.
</event>
<event>
 8    1  0.6493926E-009  0.1059842E+03  0.7561462E-02  0.1268193E+00
         -2   -1    0    0    0  501 -0.00000000000E+00  0.00000000000E+00  0.10036134750E+03  0.10036134750E+03  0.00000000000E+00 0.  1.
          2   -1    0    0  501    0  0.00000000000E+00 -0.00000000000E+00 -0.12706465960E+03  0.12706465960E+03  0.00000000000E+00 0. -1.
         25    2    1    2    0    0 -0.83210213961E+01 -0.31546781826E+02 -0.90218082251E+01  0.12958893207E+03  0.12508980554E+03 0.  0.
         23    2    1    2    0    0  0.83210213961E+01  0.31546781826E+02 -0.17681503877E+02  0.97837075038E+02  0.90526343304E+02 0.  0.
          5    1    3    3  502    0  0.58290066728E+02 -0.14880317363E+02 -0.81895404020E+00  0.60310022464E+02  0.41800000000E+01 0.  1.
         -5    1    3    3    0  502 -0.66611088124E+02 -0.16666464464E+02 -0.82028541849E+01  0.69278909601E+02  0.41800000000E+01 0.  1.
        -11    1    4    4    0    0  0.85385888587E+00 -0.25411901067E+02 -0.29751965320E+02  0.39136597083E+02  0.00000000000E+00 0. -1.
         11    1    4    4    0    0  0.74671625103E+01  0.56958682893E+02  0.12070461442E+02  0.58700477956E+02  0.00000000000E+00 0.  1.
</event>
<event>
 8    1  0.6493926E-009  0.1204819E+03  0.7561462E-02  0.1242304E+00
          2   -1    0    0  501    0  0.00000000000E+00  0.00000000000E+00  0.46343157773E+03  0.46343157773E+03  0.00000000000E+00 0. -1.
         -2   -1    0    0    0  501 -0.00000000000E+00 -0.00000000000E+00 -0.54924644335E+02  0.54924644335E+02  0.00000000000E+00 0.  1.
         25    2    1    2    0    0 -0.97181483026E+02 -0.55919698353E+02  0.16815952224E+03  0.23770251720E+03  0.12511438149E+03 0.  0.
         23    2    1    2    0    0  0.97181483026E+02  0.55919698353E+02  0.24034741115E+03  0.28065370486E+03  0.91806158281E+02 0.  0.
          5    1    3    3  502    0  0.10859505927E+00 -0.15383486484E+02 -0.17809632369E+02  0.23902277181E+02  0.41800000000E+01 0. -1.
         -5    1    3    3    0  502 -0.97290078086E+02 -0.40536211869E+02  0.18596915461E+03  0.21380024002E+03  0.41800000000E+01 0. -1.
        -11    1    4    4    0    0  0.92052709285E+02  0.35783425810E+02  0.24037597683E+03  0.25987451796E+03  0.00000000000E+00 0.  1.
         11    1    4    4    0    0  0.51287737418E+01  0.20136272542E+02 -0.28565683690E-01  0.20779186894E+02  0.00000000000E+00 0. -1.
</event>
<event>
 8    1  0.6493926E-009  0.1118666E+03  0.7561462E-02  0.1257152E+00
          3   -1    0    0  501    0  0.00000000000E+00  0.00000000000E+00  0.18854698773E+03  0.18854698773E+03  0.00000000000E+00 0. -1.
         -3   -1    0    0    0  501 -0.00000000000E+00 -0.00000000000E+00 -0.13102773338E+03  0.13102773338E+03  0.00000000000E+00 0.  1.
         25    2    1    2    0    0  0.46381111819E+02 -0.30109911963E+02 -0.69627150975E+02  0.15346516001E+03  0.12508317573E+03 0.  0.
         23    2    1    2    0    0 -0.46381111819E+02  0.30109911963E+02  0.12714640533E+03  0.16610956111E+03  0.91478760228E+02 0.  0.
          5    1    3    3  502    0  0.69617566617E+02 -0.50849494136E+02 -0.82600045546E+02  0.11946763813E+03  0.41800000000E+01 0.  1.
         -5    1    3    3    0  502 -0.23236454798E+02  0.20739582173E+02  0.12972894571E+02  0.33997521878E+02  0.41800000000E+01 0.  1.
        -11    1    4    4    0    0 -0.11110022363E+02 -0.32383505465E+02  0.31389277342E+02  0.46447935963E+02  0.00000000000E+00 0.  1.
         11    1    4    4    0    0 -0.35271089456E+02  0.62493417428E+02  0.95757127983E+02  0.11966162515E+03  0.00000000000E+00 0. -1.
</event>
<event>
 8    1  0.6493926E-009  0.2076019E+03  0.7561462E-02  0.1143479E+00
          2   -1    0    0  501    0  0.00000000000E+00  0.00000000000E+00  0.12595770110E+04  0.12595770110E+04  0.00000000000E+00 0. -1.
         -2   -1    0    0    0  501 -0.00000000000E+00 -0.00000000000E+00 -0.42457852395E+02  0.42457852395E+02  0.00000000000E+00 0.  1.
         25    2    1    2    0    0  0.26481879653E+02 -0.19864033455E+03  0.73548528148E+03  0.77249364421E+03  0.12509419890E+03 0.  0.
         23    2    1    2    0    0 -0.26481879653E+02  0.19864033455E+03  0.48163387710E+03  0.52954121917E+03  0.91013398824E+02 0.  0.
          5    1    3    3  502    0 -0.30369743645E+01 -0.16279279009E+03  0.68360745356E+03  0.70274272581E+03  0.41800000000E+01 0. -1.
         -5    1    3    3    0  502  0.29518854018E+02 -0.35847544465E+02  0.51877827922E+02  0.69750918392E+02  0.41800000000E+01 0. -1.
        -11    1    4    4    0    0 -0.21615348802E+02  0.29906454500E+02  0.18132225669E+03  0.18503886105E+03  0.00000000000E+00 0. -1.
         11    1    4    4    0    0 -0.48665308509E+01  0.16873388005E+03  0.30031162041E+03  0.34450235812E+03  0.00000000000E+00 0.  1.
</event>
<event>
 8    1  0.6493926E-009  0.1232305E+03  0.7561462E-02  0.1237861E+00
         -2   -1    0    0    0  501 -0.00000000000E+00  0.00000000000E+00  0.24804863836E+03  0.24804863836E+03  0.00000000000E+00 0.  1.
          2   -1    0    0  501    0  0.00000000000E+00 -0.00000000000E+00 -0.70749776648E+02  0.70749776648E+02  0.00000000000E+00 0. -1.
         25    2    1    2    0    0  0.60883927804E+02  0.54467954348E+02  0.89414364040E+02  0.17410177199E+03  0.12507153073E+03 0.  0.
         23    2    1    2    0    0 -0.60883927804E+02 -0.54467954348E+02  0.87884497676E+02  0.14469664302E+03  0.80869171216E+02 0.  0.
          5    1    3    3  502    0 -0.36773156831E+02  0.32375242845E+02  0.28924240588E+02  0.57048273473E+02  0.41800000000E+01 0. -1.
         -5    1    3    3    0  502  0.97657084635E+02  0.22092711503E+02  0.60490123452E+02  0.11705349852E+03  0.41800000000E+01 0. -1.
        -11    1    4    4    0    0  0.60530427623E+01 -0.21740696539E+02  0.61737223195E+02  0.65732655054E+02  0.00000000000E+00 0.  1.
         11    1    4    4    0    0 -0.66936970566E+02 -0.32727257809E+02  0.26147274481E+02  0.78963987963E+02  0.00000000000E+00 0. -1.
</event>
<event>
 8    1  0.6493926E-009  0.1666721E+03  0.7561462E-02  0.1181363E+00
          4   -1    0    0  501    0  0.00000000000E+00  0.00000000000E+00  0.90844579413E+03  0.90844579413E+03  0.00000000000E+00 0. -1.
         -4   -1    0    0    0  501 -0.00000000000E+00 -0.00000000000E+00 -0.33671220422E+02  0.33671220422E+02  0.00000000000E+00 0.  1.
         25    2    1    2    0    0 -0.97236281332E+02 -0.79575239618E+02  0.32039988242E+03  0.36618053078E+03  0.12507990766E+03 0.  0.
         23    2    1    2    0    0  0.97236281332E+02  0.79575239618E+02  0.55437469129E+03  0.57593648378E+03  0.92652155025E+02 0.  0.
          5    1    3    3  502    0  0.66637984339E+01 -0.72612191494E+02  0.12835175915E+03  0.14767729358E+03  0.41800000000E+01 0. -1.
         -5    1    3    3    0  502 -0.10390007977E+03 -0.69630481236E+01  0.19204812327E+03  0.21850323720E+03  0.41800000000E+01 0. -1.
        -11    1    4    4    0    0  0.11337989892E+03  0.53373893351E+02  0.44102559121E+03  0.45848374679E+03  0.00000000000E+00 0.  1.
         11    1    4    4    0    0 -0.16143617592E+02  0.26201346266E+02  0.11334910008E+03  0.11745273698E+03  0.00000000000E+00 0. -1.
</event>
<event>
 8    1  0.6493926E-009  0.1676201E+03  0.7561462E-02  0.1180353E+00
         -1   -1    0    0    0  501 -0.00000000000E+00  0.00000000000E+00  0.22859964723E+03  0.22859964723E+03  0.00000000000E+00 0.  1.
          1   -1    0    0  501    0  0.00000000000E+00 -0.00000000000E+00 -0.16692616810E+03  0.16692616810E+03  0.00000000000E+00 0. -1.
         25    2    1    2    0    0 -0.84328592650E+02 -0.13757125621E+03  0.43573043175E+02  0.20876424389E+03  0.12508691922E+03 0.  0.
         23    2    1    2    0    0  0.84328592650E+02  0.13757125621E+03  0.18100435951E+02  0.18676157145E+03  0.92277281682E+02 0.  0.
          5    1    3    3  502    0 -0.32005364940E+01 -0.59166054915E+02 -0.37071964316E+02  0.70019057594E+02  0.41800000000E+01 0.  1.
         -5    1    3    3    0  502 -0.81128056156E+02 -0.78405201295E+02  0.80645007491E+02  0.13874518629E+03  0.41800000000E+01 0.  1.
        -11    1    4    4    0    0  0.74354813048E+02  0.10350935397E+03 -0.26082235533E+02  0.13008884500E+03  0.00000000000E+00 0. -1.
         11    1    4    4    0    0  0.99737796028E+01  0.34061902238E+02  0.44182671484E+02  0.56672726448E+02  0.00000000000E+00 0.  1.
</event>
<event>
 8    1  0.6493926E-009  0.1187817E+03  0.7561462E-02  0.1245120E+00
          1   -1    0    0  501    0  0.00000000000E+00  0.00000000000E+00  0.83289879689E+03  0.83289879689E+03  0.00000000000E+00 0. -1.
         -1   -1    0    0    0  501 -0.00000000000E+00 -0.00000000000E+00 -0.45283875441E+02  0.45283875441E+02  0.00000000000E+00 0.  1.
         25    2    1    2    0    0 -0.50706445989E+02  0.94228913584E+02  0.67764747162E+03  0.69735493317E+03  0.12509026824E+03 0.  0.
         23    2    1    2    0    0  0.50706445989E+02 -0.94228913584E+02  0.10996744983E+03  0.18082773916E+03  0.95684896445E+02 0.  0.
          5    1    3    3  502    0 -0.38834930467E+02  0.63108267131E+01  0.46801721703E+03  0.46968666811E+03  0.41800000000E+01 0. -1.
         -5    1    3    3    0  502 -0.11871515522E+02  0.87918086871E+02  0.20963025459E+03  0.22766826507E+03  0.41800000000E+01 0. -1.
        -11    1    4    4    0    0  0.22643218947E+02 -0.64229861732E+02  0.52092280532E+01  0.68303195820E+02  0.00000000000E+00 0.  1.
         11    1    4    4    0    0  0.28063227042E+02 -0.29999051852E+02  0.10475822178E+03  0.11252454334E+03  0.00000000000E+00 0. -1.
</event>
<event>
 8    1  0.6493926E-009  0.1733944E+03  0.7561462E-02  0.1174354E+00
         -1   -1    0    0    0  501 -0.00000000000E+00  0.00000000000E+00  0.41215830777E+02  0.41215830777E+02  0.00000000000E+00 0.  1.
          1   -1    0    0  501    0  0.00000000000E+00 -0.00000000000E+00 -0.10234835981E+04  0.10234835981E+04  0.00000000000E+00 0. -1.
         25    2    1    2    0    0 -0.43152213671E+02  0.14946842365E+03 -0.30908077490E+03  0.36794187001E+03  0.12508945232E+03 0.  0.
         23    2    1    2    0    0  0.43152213671E+02 -0.14946842365E+03 -0.67318699241E+03  0.69675755885E+03  0.89930227714E+02 0.  0.
          5    1    3    3  502    0  0.66758673041E+01  0.11264702379E+03 -0.10346908222E+03  0.15315757424E+03  0.41800000000E+01 0.  1.
         -5    1    3    3    0  502 -0.49828080975E+02  0.36821399861E+02 -0.20561169268E+03  0.21478429577E+03  0.41800000000E+01 0.  1.
        -11    1    4    4    0    0  0.55561835235E+02 -0.61306785897E+02 -0.22306385037E+03  0.23791410398E+03  0.00000000000E+00 0.  1.
         11    1    4    4    0    0 -0.12409621564E+02 -0.88161637752E+02 -0.45012314203E+03  0.45884345486E+03  0.00000000000E+00 0. -1.
</event>
<event>
 8    1  0.6493926E-009  0.1232343E+03  0.7561462E-02  0.1237855E+00
         -1   -1    0    0    0  501 -0.00000000000E+00  0.00000000000E+00  0.67734244618E+02  0.67734244618E+02  0.00000000000E+00 0.  1.
          1   -1    0    0  501    0  0.00000000000E+00 -0.00000000000E+00 -0.36075946496E+03  0.36075946496E+03  0.00000000000E+00 0. -1.
         25    2    1    2    0    0  0.70564404656E+01 -0.11190985760E+03 -0.16044085218E+03  0.23229790001E+03  0.12508971869E+03 0.  0.
         23    2    1    2    0    0 -0.70564404656E+01  0.11190985760E+03 -0.13258436817E+03  0.19619580957E+03  0.91326728991E+02 0.  0.
          5    1    3    3  502    0  0.59417714189E+01 -0.46355535691E+02  0.11434554949E+02  0.48294531613E+02  0.41800000000E+01 0. -1.
         -5    1    3    3    0  502  0.11146690467E+01 -0.65554321912E+02 -0.17187540712E+03  0.18400336840E+03  0.41800000000E+01 0. -1.
        -11    1    4    4    0    0  0.32012415841E+02  0.67466507763E+02 -0.10979794690E+03  0.13278596906E+03  0.00000000000E+00 0. -1.
         11    1    4    4    0    0 -0.39068856306E+02  0.44443349840E+02 -0.22786421269E+02  0.63409840501E+02  0.00000000000E+00 0.  1.
</event>
<event>
 8    1  0.6493926E-009  0.9147185E+02  0.7561462E-02  0.1299326E+00
          1   -1    0    0  501    0  0.00000000000E+00  0.00000000000E+00  0.50975452423E+02  0.50975452423E+02  0.00000000000E+00 0. -1.
         -1   -1    0    0    0  501 -0.00000000000E+00 -0.00000000000E+00 -0.24672164161E+03  0.24672164161E+03  0.00000000000E+00 0.  1.
         25    2    1    2    0    0 -0.19237299030E+02  0.94770476116E+01 -0.90327890461E+02  0.15577578783E+03  0.12508828951E+03 0.  0.
         23    2    1    2    0    0  0.19237299030E+02 -0.94770476116E+01 -0.10541829873E+03  0.14192130621E+03  0.92567550169E+02 0.  0.
          5    1    3    3  502    0 -0.12831573173E+02 -0.38265855416E+02  0.12240514299E+02  0.42381924816E+02  0.41800000000E+01 0.  1.
         -5    1    3    3    0  502 -0.64057258570E+01  0.47742903027E+02 -0.10256840476E+03  0.11339386301E+03  0.41800000000E+01 0.  1.
        -11    1    4    4    0    0 -0.37072445120E+02 -0.64135878299E+01 -0.32326412639E+02  0.49603399582E+02  0.00000000000E+00 0. -1.
         11    1    4    4    0    0  0.56309744149E+02 -0.30634597817E+01 -0.73091886092E+02  0.92317906629E+02  0.00000000000E+00 0.  1.
</event>
<event>
 8    1  0.6493926E-009  0.6811154E+02  0.7561462E-02  0.1366635E+00
          2   -1    0    0  501    0  0.00000000000E+00  0.00000000000E+00  0.23723312033E+03  0.23723312033E+03  0.00000000000E+00 0.  1.
         -2   -1    0    0    0  501 -0.00000000000E+00 -0.00000000000E+00 -0.93817679090E+02  0.93817679090E+02  0.00000000000E+00 0. -1.
         25    2    1    2    0    0  0.43905612602E+02 -0.47059553656E+02 -0.10200195516E+02  0.14103430659E+03  0.12507728506E+03 0.  0.
         23    2    1    2    0    0 -0.43905612602E+02  0.47059553656E+02  0.15361563675E+03  0.19001649283E+03  0.91466929998E+02 0.  0.
          5    1    3    3  502    0  0.47262840406E+02 -0.46353036329E+02 -0.60899291673E+02  0.90047632875E+02  0.41800000000E+01 0.  1.
         -5    1    3    3    0  502 -0.33572278035E+01 -0.70651732649E+00  0.50699096158E+02  0.50986673714E+02  0.41800000000E+01 0.  1.
        -11    1    4    4    0    0 -0.33743498905E+02  0.33600946371E+02  0.16361952344E+03  0.17040832071E+03  0.00000000000E+00 0.  1.
         11    1    4    4    0    0 -0.10162113697E+02  0.13458607285E+02 -0.10003886691E+02  0.19608172117E+02  0.00000000000E+00 0. -1.
</event>
<event>
 8    1  0.6493926E-009  0.1091614E+03  0.7561462E-02  0.1262131E+00
         -2   -1    0    0    0  501 -0.00000000000E+00  0.00000000000E+00  0.48333228149E+02  0.48333228149E+02  0.00000000000E+00 0.  1.
          2   -1    0    0  501    0  0.00000000000E+00 -0.00000000000E+00 -0.38904944932E+03  0.38904944932E+03  0.00000000000E+00 0. -1.
         25    2    1    2    0    0 -0.12740301364E+02 -0.72275924601E+02 -0.12486628494E+03  0.19137650004E+03  0.12508897272E+03 0.  0.
         23    2    1    2    0    0  0.12740301364E+02  0.72275924601E+02 -0.21584993624E+03  0.24600617743E+03  0.92421425044E+02 0.  0.
          5    1    3    3  502    0  0.34920719425E+02 -0.19555588033E+02 -0.11202632239E+03  0.11903464612E+03  0.41800000000E+01 0.  1.
         -5    1    3    3    0  502 -0.47661020789E+02 -0.52720336567E+02 -0.12839962551E+02  0.72341853921E+02  0.41800000000E+01 0.  1.
        -11    1    4    4    0    0  0.45719251216E+02  0.43865095440E+02 -0.17574922425E+03  0.18682126847E+03  0.00000000000E+00 0.  1.
         11    1    4    4    0    0 -0.32978949852E+02  0.28410829161E+02 -0.40100711989E+02  0.59184908964E+02  0.00000000000E+00 0. -1.
</event>
<event>
 8    1  0.6493926E-009  0.8997896E+02  0.7561462E-02  0.1302903E+00
         -1   -1    0    0    0  501 -0.00000000000E+00  0.00000000000E+00  0.70113829625E+02  0.70113829625E+02  0.00000000000E+00 0.  1.
          1   -1    0    0  501    0  0.00000000000E+00 -0.00000000000E+00 -0.31935964654E+03  0.31935964654E+03  0.00000000000E+00 0. -1.
         25    2    1    2    0    0  0.13313334993E+02 -0.89993769574E+01 -0.28258864716E+01  0.12615054562E+03  0.12509093034E+03 0.  0.
         23    2    1    2    0    0 -0.13313334993E+02  0.89993769574E+01 -0.24641993045E+03  0.26332293055E+03  0.91421824282E+02 0.  0.
          5    1    3    3  502    0 -0.32195488043E+02 -0.29298870066E+02 -0.43506891822E+02  0.61687075417E+02  0.41800000000E+01 0.  1.
         -5    1    3    3    0  502  0.45508823036E+02  0.20299493109E+02  0.40681005351E+02  0.64463470206E+02  0.41800000000E+01 0.  1.
        -11    1    4    4    0    0  0.30455142708E+02  0.25221057892E+02 -0.65787300284E+02  0.76756669790E+02  0.00000000000E+00 0.  1.
         11    1    4    4    0    0 -0.43768477701E+02 -0.16221680935E+02 -0.18063263016E+03  0.18656626076E+03  0.00000000000E+00 0. -1.
</event>
<event>
 8    1  0.6493926E-009  0.1293205E+03  0.7561462E-02  0.1228467E+00
         -1   -1    0    0    0  501 -0.00000000000E+00  0.00000000000E+00  0.13821738729E+03  0.13821738729E+03  0.00000000000E+00 0. -1.
          1   -1    0    0  501    0  0.00000000000E+00 -0.00000000000E+00 -0.19181122725E+03  0.19181122725E+03  0.00000000000E+00 0.  1.
         25    2    1    2    0    0 -0.43865621890E+02 -0.86190873291E+02  0.37499657981E+02  0.16249909084E+03  0.12508665298E+03 0.  0.
         23    2    1    2    0    0  0.43865621890E+02  0.86190873291E+02 -0.91093497938E+02  0.16752952370E+03  0.10205418424E+03 0.  0.
          5    1    3    3  502    0 -0.82831293328E+02 -0.85204320792E+02  0.28857298164E+02  0.12235610117E+03  0.41800000000E+01 0.  1.
         -5    1    3    3    0  502  0.38965671439E+02 -0.98655249949E+00  0.86423598173E+01  0.40142989671E+02  0.41800000000E+01 0.  1.
        -11    1    4    4    0    0  0.30749055974E+02  0.30461943282E+02  0.15957194155E+02  0.46130970911E+02  0.00000000000E+00 0. -1.
         11    1    4    4    0    0  0.13116565916E+02  0.55728930009E+02 -0.10705069209E+03  0.12139855279E+03  0.00000000000E+00 0.  1.
</event>
<event>
 8    1  0.6493926E-009  0.1081878E+03  0.7561462E-02  0.1263963E+00
         -1   -1    0    0    0  501 -0.00000000000E+00  0.00000000000E+00  0.33374192005E+03  0.33374192005E+03  0.00000000000E+00 0.  1.
          1   -1    0    0  501    0  0.00000000000E+00 -0.00000000000E+00 -0.42674863970E+02  0.42674863970E+02  0.00000000000E+00 0. -1.
         25    2    1    2    0    0  0.25425101682E+02 -0.25523567002E+02  0.11246887127E+03  0.17202957697E+03  0.12508812925E+03 0.  0.
         23    2    1    2    0    0 -0.25425101682E+02  0.25523567002E+02  0.17859818481E+03  0.20438720705E+03  0.92622516278E+02 0.  0.
          5    1    3    3  502    0  0.70734151207E+02 -0.17214613800E+02  0.32907916426E+02  0.80000415241E+02  0.41800000000E+01 0. -1.
         -5    1    3    3    0  502 -0.45309049525E+02 -0.83089532019E+01  0.79560954846E+02  0.92029161728E+02  0.41800000000E+01 0. -1.
        -11    1    4    4    0    0  0.17935902362E+02  0.45909589344E+02  0.69225849296E+02  0.84980028230E+02  0.00000000000E+00 0. -1.
         11    1    4    4    0    0 -0.43361004044E+02 -0.20386022342E+02  0.10937233551E+03  0.11940717882E+03  0.00000000000E+00 0.  1.
</event>
<event>
 8    1  0.6493926E-009  0.1276556E+03  0.7561462E-02  0.1230976E+00
          1   -1    0    0  501    0  0.00000000000E+00  0.00000000000E+00  0.67574697268E+03  0.67574697268E+03  0.00000000000E+00 0. -1.
         -1   -1    0    0    0  501 -0.00000000000E+00 -0.00000000000E+00 -0.40405476544E+02  0.40405476544E+02  0.00000000000E+00 0.  1.
         25    2    1    2    0    0  0.53900873514E+02 -0.10203618156E+03  0.43097264068E+03  0.46335897687E+03  0.12508971950E+03 0.  0.
         23    2    1    2    0    0 -0.53900873514E+02  0.10203618156E+03  0.20436885546E+03  0.25279347235E+03  0.93921371736E+02 0.  0.
          5    1    3    3  502    0 -0.16669089436E+01 -0.42076709506E+02  0.24859309635E+02  0.49078363296E+02  0.41800000000E+01 0.  1.
         -5    1    3    3    0  502  0.55567782458E+02 -0.59959472054E+02  0.40611333104E+03  0.41428061358E+03  0.41800000000E+01 0.  1.
        -11    1    4    4    0    0 -0.18592244981E+02  0.92797144085E+02  0.19234266892E+03  0.21436577108E+03  0.00000000000E+00 0. -1.
         11    1    4    4    0    0 -0.35308628533E+02  0.92390374757E+01  0.12026186542E+02  0.38427701273E+02  0.00000000000E+00 0.  1.
</event>
<event>
 8    1  0.6493926E-009  0.1052768E+03  0.7561462E-02  0.1269575E+00
         -2   -1    0    0    0  501 -0.00000000000E+00  0.00000000000E+00  0.21220010280E+02  0.21220010280E+02  0.00000000000E+00 0.  1.
          2   -1    0    0  501    0  0.00000000000E+00 -0.00000000000E+00 -0.67159640156E+03  0.67159640156E+03  0.00000000000E+00 0. -1.
         25    2    1    2    0    0  0.34788165751E+02  0.18829183437E+02 -0.28192587578E+03  0.31096247953E+03  0.12510279620E+03 0.  0.
         23    2    1    2    0    0 -0.34788165751E+02 -0.18829183437E+02 -0.36845051550E+03  0.38185393231E+03  0.92151443951E+02 0.  0.
          5    1    3    3  502    0  0.71427832565E+02  0.32102414729E+02 -0.24450497914E+03  0.25677355300E+03  0.41800000000E+01 0. -1.
         -5    1    3    3    0  502 -0.36639666814E+02 -0.13273231291E+02 -0.37420896640E+02  0.54188926530E+02  0.41800000000E+01 0. -1.
        -11    1    4    4    0    0 -0.10313191851E+02 -0.51272136216E+02 -0.13284212778E+03  0.14276632933E+03  0.00000000000E+00 0.  1.
         11    1    4    4    0    0 -0.24474973900E+02  0.32442952779E+02 -0.23560838772E+03  0.23908760297E+03  0.00000000000E+00 0. -1.
</event>
<event>
 8    1  0.6493926E-009  0.9156930E+02  0.7561462E-02  0.1299095E+00
         -2   -1    0    0    0  501 -0.00000000000E+00  0.00000000000E+00  0.35853380986E+02  0.35853380986E+02  0.00000000000E+00 0.  1.
          2   -1    0    0  501    0  0.00000000000E+00 -0.00000000000E+00 -0.38467292797E+03  0.38467292797E+03  0.00000000000E+00 0. -1.
         25    2    1    2    0    0 -0.43224841329E+02 -0.10305851379E+01 -0.23979441198E+03  0.27389825523E+03  0.12509774255E+03 0.  0.
         23    2    1    2    0    0  0.43224841329E+02  0.10305851379E+01 -0.10902513501E+03  0.14662805372E+03  0.87999187849E+02 0.  0.
          5    1    3    3  502    0 -0.72565961504E+02 -0.24718770806E+00 -0.23217508642E+03  0.24328712055E+03  0.41800000000E+01 0. -1.
         -5    1    3    3    0  502  0.29341120174E+02 -0.78339742985E+00 -0.76193255553E+01  0.30611134682E+02  0.41800000000E+01 0. -1.
        -11    1    4    4    0    0  0.61596251403E+02  0.56681319725E+01 -0.36836365393E+02  0.71994053382E+02  0.00000000000E+00 0.  1.
         11    1    4    4    0    0 -0.18371410074E+02 -0.46375468346E+01 -0.72188769614E+02  0.74634000343E+02  0.00000000000E+00 0. -1.
</event>
<event>
 8    1  0.6493926E-009  0.1187439E+03  0.7561462E-02  0.1245184E+00
         -2   -1    0    0    0  501 -0.00000000000E+00  0.00000000000E+00  0.25525527890E+03  0.25525527890E+03  0.00000000000E+00 0.  1.
          2   -1    0    0  501    0  0.00000000000E+00 -0.00000000000E+00 -0.57744648722E+02  0.57744648722E+02  0.00000000000E+00 0. -1.
         25    2    1    2    0    0 -0.50858536872E+02  0.30545754579E+01  0.86543840528E+02  0.16041224018E+03  0.12508528795E+03 0.  0.
         23    2    1    2    0    0  0.50858536872E+02 -0.30545754579E+01  0.11096678965E+03  0.15258768744E+03  0.91506572168E+02 0.  0.
          5    1    3    3  502    0 -0.61126766292E+02 -0.50664044653E+02  0.43055079317E+02  0.90413158516E+02  0.41800000000E+01 0. -1.
         -5    1    3    3    0  502  0.10268229420E+02  0.53718620111E+02  0.43488761210E+02  0.69999081663E+02  0.41800000000E+01 0. -1.
        -11    1    4    4    0    0  0.38131330263E+02  0.41758182185E+02  0.47451687058E+02  0.73820097072E+02  0.00000000000E+00 0.  1.
         11    1    4    4    0    0  0.12727206608E+02 -0.44812757643E+02  0.63515102590E+02  0.78767590370E+02  0.00000000000E+00 0. -1.
</event>
<event>
 8    1  0.6493926E-009  0.1043731E+03  0.7561462E-02  0.1271360E+00
          1   -1    0    0  501    0  0.00000000000E+00  0.00000000000E+00  0.27056272729E+02  0.27056272729E+02  0.00000000000E+00 0. -1.
         -1   -1    0    0    0  501 -0.00000000000E+00 -0.00000000000E+00 -0.50136338153E+03  0.50136338153E+03  0.00000000000E+00 0.  1.
         25    2    1    2    0    0 -0.25170379098E+02  0.23270762841E+02 -0.32884730808E+03  0.35350526471E+03  0.12510133396E+03 0.  0.
         23    2    1    2    0    0  0.25170379098E+02 -0.23270762841E+02 -0.14545980072E+03  0.17491438955E+03  0.90892319032E+02 0.  0.
          5    1    3    3  502    0 -0.20067536412E+02 -0.42142293386E+02 -0.23043912466E+03  0.23515599394E+03  0.41800000000E+01 0. -1.
         -5    1    3    3    0  502 -0.51028426862E+01  0.65413056228E+02 -0.98408183419E+02  0.11834927077E+03  0.41800000000E+01 0. -1.
        -11    1    4    4    0    0  0.51905200678E+02 -0.39175917536E+02 -0.10961279584E+03  0.12745143147E+03  0.00000000000E+00 0.  1.
         11    1    4    4    0    0 -0.26734821580E+02  0.15905154694E+02 -0.35847004884E+02  0.47462958082E+02  0.00000000000E+00 0. -1.
</event>
<event>
 8    1  0.6493926E-009  0.8458381E+02  0.7561462E-02  0.1316525E+00
          2   -1    0    0  501    0  0.00000000000E+00  0.00000000000E+00  0.58153530573E+03  0.58153530573E+03  0.00000000000E+00 0. -1.
         -2   -1    0    0    0  501 -0.00000000000E+00 -0.00000000000E+00 -0.25704014861E+02  0.25704014861E+02  0.00000000000E+00 0.  1.
         25    2    1    2    0    0 -0.55952690477E+02  0.27234361121E+01  0.30710826524E+03  0.33630513491E+03  0.12509011356E+03 0.  0.
         23    2    1    2    0    0  0.55952690477E+02 -0.27234361121E+01  0.24872302563E+03  0.27093418568E+03  0.91673708436E+02 0.  0.
          5    1    3    3  502    0 -0.77430945524E+02  0.23118515504E+02  0.10793339272E+03  0.13489665210E+03  0.41800000000E+01 0.  1.
         -5    1    3    3    0  502  0.21478255047E+02 -0.20395079392E+02  0.19917487252E+03  0.20140848281E+03  0.41800000000E+01 0.  1.
        -11    1    4    4    0    0  0.14828988542E+02 -0.80473830572E+01 -0.18319382896E+01  0.16971012732E+02  0.00000000000E+00 0.  1.
         11    1    4    4    0    0  0.41123701935E+02  0.53239469451E+01  0.25055496392E+03  0.25396317295E+03  0.00000000000E+00 0. -1.
</event>
<event>
 8    1  0.6493926E-009  0.1027977E+03  0.7561462E-02  0.1274520E+00
          1   -1    0    0  501    0  0.00000000000E+00  0.00000000000E+00  0.89344236128E+03  0.89344236128E+03  0.00000000000E+00 0. -1.
         -1   -1    0    0    0  501 -0.00000000000E+00 -0.00000000000E+00 -0.24598798579E+02  0.24598798579E+02  0.00000000000E+00 0.  1.
         25    2    1    2    0    0  0.84658251151E+02 -0.46294189993E+02  0.61658402125E+03  0.63650045866E+03  0.12508719796E+03 0.  0.
         23    2    1    2    0    0 -0.84658251151E+02  0.46294189993E+02  0.25225954145E+03  0.28154070120E+03  0.79499173992E+02 0.  0.
          5    1    3    3  502    0  0.73505372018E+02 -0.43500068705E+02  0.17528904413E+03  0.19503593793E+03  0.41800000000E+01 0. -1.
         -5    1    3    3    0  502  0.11152879133E+02 -0.27941212884E+01  0.44129497712E+03  0.44146452073E+03  0.41800000000E+01 0. -1.
        -11    1    4    4    0    0 -0.20472557180E+02  0.37951449700E+02  0.37192187877E+02  0.56944683430E+02  0.00000000000E+00 0.  1.
         11    1    4    4    0    0 -0.64185693971E+02  0.83427402932E+01  0.21506735357E+03  0.22459601777E+03  0.00000000000E+00 0. -1.
</event>
<event>
 8    1  0.6493926E-009  0.2683827E+03  0.7561462E-02  0.1102209E+00
          1   -1    0    0  501    0  0.00000000000E+00  0.00000000000E+00  0.50233573615E+03  0.50233573615E+03  0.00000000000E+00 0. -1.
         -1   -1    0    0    0  501 -0.00000000000E+00 -0.00000000000E+00 -0.15757701685E+03  0.15757701685E+03  0.00000000000E+00 0.  1.
         25    2    1    2    0    0  0.97301643702E+02  0.23535047237E+03  0.23176067392E+03  0.36635630099E+03  0.12508586885E+03 0.  0.
         23    2    1    2    0    0 -0.97301643702E+02 -0.23535047237E+03  0.11299804538E+03  0.29355645201E+03  0.92462844119E+02 0.  0.
          5    1    3    3  502    0  0.98637170351E+02  0.92382373559E+02  0.14858681754E+03  0.20089626444E+03  0.41800000000E+01 0.  1.
         -5    1    3    3    0  502 -0.13355266494E+01  0.14296809882E+03  0.83173856379E+02  0.16546003655E+03  0.41800000000E+01 0.  1.
        -11    1    4    4    0    0 -0.94889648605E+02 -0.18320360215E+03  0.12328878980E+03  0.24034918544E+03  0.00000000000E+00 0.  1.
         11    1    4    4    0    0 -0.24119950974E+01 -0.52146870227E+02 -0.10290744421E+02  0.53207266567E+02  0.00000000000E+00 0. -1.
</event>
<event>
 8    1  0.6493926E-009  0.9227067E+02  0.7561462E-02  0.1297444E+00
         -1   -1    0    0    0  501 -0.00000000000E+00  0.00000000000E+00  0.13652168425E+03  0.13652168425E+03  0.00000000000E+00 0.  1.
          1   -1    0    0  501    0  0.00000000000E+00 -0.00000000000E+00 -0.11531741513E+03  0.11531741513E+03  0.00000000000E+00 0. -1.
         25    2    1    2    0    0 -0.45307027669E+02 -0.28574573019E+02  0.44056318245E+02  0.14303024593E+03  0.12508980412E+03 0.  0.
         23    2    1    2    0    0  0.45307027669E+02  0.28574573019E+02 -0.22852049127E+02  0.10880885345E+03  0.91912553335E+02 0.  0.
          5    1    3    3  502    0  0.58347751492E+01 -0.48271138575E+02 -0.24950233237E+02  0.54809980469E+02  0.41800000000E+01 0. -1.
         -5    1    3    3    0  502 -0.51141802818E+02  0.19696565556E+02  0.69006551483E+02  0.88220265460E+02  0.41800000000E+01 0. -1.
        -11    1    4    4    0    0  0.15648073683E+02  0.44458665834E+02 -0.47643019447E+02  0.67017105874E+02  0.00000000000E+00 0. -1.
         11    1    4    4    0    0  0.29658953986E+02 -0.15884092815E+02  0.24790970320E+02  0.41791747577E+02  0.00000000000E+00 0.  1.
</event>
<event>
 8    1  0.6493926E-009  0.1217271E+03  0.7561462E-02  0.1240275E+00
          1   -1    0    0  501    0  0.00000000000E+00  0.00000000000E+00  0.45490148009E+03  0.45490148009E+03  0.00000000000E+00 0. -1.
         -1   -1    0    0    0  501 -0.00000000000E+00 -0.00000000000E+00 -0.34189547927E+02  0.34189547927E+02  0.00000000000E+00 0.  1.
         25    2    1    2    0    0 -0.14689320030E+02 -0.40543632742E+02  0.19274968291E+03  0.23379428119E+03  0.12509102037E+03 0.  0.
         23    2    1    2    0    0  0.14689320030E+02  0.40543632742E+02  0.22796224926E+03  0.25529674683E+03  0.10653675224E+03 0.  0.
          5    1    3    3  502    0 -0.46887906053E+02  0.26776820575E+02  0.55694652995E+02  0.77684236666E+02  0.41800000000E+01 0. -1.
         -5    1    3    3    0  502  0.32198586022E+02 -0.67320453317E+02  0.13705502991E+03  0.15611004452E+03  0.41800000000E+01 0. -1.
        -11    1    4    4    0    0 -0.33759347516E+02 -0.18246695925E+02  0.66854542767E+02  0.77085441852E+02  0.00000000000E+00 0.  1.
         11    1    4    4    0    0  0.48448667546E+02  0.58790328667E+02  0.16110770649E+03  0.17821130498E+03  0.00000000000E+00 0. -1.
</event>
<event>
 8    1  0.6493926E-009  0.1554223E+03  0.7561462E-02  0.1193964E+00
         -1   -1    0    0    0  501 -0.00000000000E+00  0.00000000000E+00  0.11348564526E+03  0.11348564526E+03  0.00000000000E+00 0.  1.
          1   -1    0    0  501    0  0.00000000000E+00 -0.00000000000E+00 -0.24022435120E+03  0.24022435120E+03  0.00000000000E+00 0. -1.
         25    2    1    2    0    0  0.82104593442E+02  0.85675663641E+02 -0.30111558306E+02  0.17502947620E+03  0.12508848065E+03 0.  0.
         23    2    1    2    0    0 -0.82104593442E+02 -0.85675663641E+02 -0.96627147632E+02  0.17868052026E+03  0.92241200423E+02 0.  0.
          5    1    3    3  502    0  0.10537465950E+03  0.33506969951E+02 -0.72569826564E+00  0.11065502672E+03  0.41800000000E+01 0. -1.
         -5    1    3    3    0  502 -0.23270066061E+02  0.52168693690E+02 -0.29385860040E+02  0.64374449483E+02  0.41800000000E+01 0. -1.
        -11    1    4    4    0    0  0.14575555799E+02 -0.24495946855E+02 -0.44749858685E+02  0.53057026787E+02  0.00000000000E+00 0.  1.
         11    1    4    4    0    0 -0.96680149241E+02 -0.61179716786E+02 -0.51877288947E+02  0.12562349347E+03  0.00000000000E+00 0. -1.
</event>
<event>
 8    1  0.6493926E-009  0.1124370E+03  0.7561462E-02  0.1256122E+00
          1   -1    0    0  501    0  0.00000000000E+00  0.00000000000E+00  0.10606671968E+04  0.10606671968E+04  0.00000000000E+00 0. -1.
         -1   -1    0    0    0  501 -0.00000000000E+00 -0.00000000000E+00 -0.20082014666E+02  0.20082014666E+02  0.00000000000E+00 0.  1.
         25    2    1    2    0    0  0.27499303244E+02 -0.82751457727E+02  0.71695848668E+03  0.73299528705E+03  0.12509437949E+03 0.  0.
         23    2    1    2    0    0 -0.27499303244E+02  0.82751457727E+02  0.32362669544E+03  0.34775392441E+03  0.92706733853E+02 0.  0.
          5    1    3    3  502    0 -0.12676170491E+02  0.74741238052E+01  0.81628520888E+01  0.17339330414E+02  0.41800000000E+01 0. -1.
         -5    1    3    3    0  502  0.40175473735E+02 -0.90225581533E+02  0.70879563459E+03  0.71565595664E+03  0.41800000000E+01 0. -1.
        -11    1    4    4    0    0 -0.38082392508E+02  0.13102479849E+02  0.21173896198E+03  0.21553498932E+03  0.00000000000E+00 0. -1.
         11    1    4    4    0    0  0.10583089264E+02  0.69648977879E+02  0.11188773346E+03  0.13221893509E+03  0.00000000000E+00 0.  1.
</event>
<event>
 7    1  0.6493926E-009  0.7258400E+02  0.7561462E-02  0.1351520E+00
          2   -1    0    0  501    0  0.00000000000E+00  0.00000000000E+00  0.13281540004E+04  0.13281540004E+04  0.00000000000E+00 0. -1.
         -2   -1    0    0    0  501 -0.00000000000E+00 -0.00000000000E+00 -0.10658301736E+02  0.10658301736E+02  0.00000000000E+00 0.  1.
         23    2    1    2    0    0 -0.49284169512E+00  0.14243895473E+02  0.30912983842E+03  0.32266720048E+03  0.91376877885E+02 0.  0.
          5    1    1    2  502    0 -0.10766821125E+02 -0.37481372956E+02  0.96284784455E+03  0.96364631578E+03  0.41800000000E+01 0.  1.
         -5    1    1    2    0  502  0.11259662820E+02  0.23237477483E+02  0.45518015723E+02  0.52498785909E+02  0.41800000000E+01 0.  1.
        -11    1    3    3    0    0  0.11986354366E+02 -0.30799409279E+02  0.54150821159E+02  0.63439638516E+02  0.00000000000E+00 0.  1.
         11    1    3    3    0    0 -0.12479196061E+02  0.45043304752E+02  0.25497901726E+03  0.25922756196E+03  0.00000000000E+00 0. -1.
</event>
<event>
 8    1  0.6493926E-009  0.9358958E+02  0.7561462E-02  0.1294385E+00
          3   -1    0    0  501    0  0.00000000000E+00  0.00000000000E+00  0.95446288162E+02  0.95446288162E+02  0.00000000000E+00 0. -1.
         -3   -1    0    0    0  501 -0.00000000000E+00 -0.00000000000E+00 -0.15178857003E+03  0.15178857003E+03  0.00000000000E+00 0.  1.
         25    2    1    2    0    0  0.45503096926E+02  0.16391211982E+02 -0.10575029108E+02  0.13452831661E+03  0.12508730179E+03 0.  0.
         23    2    1    2    0    0 -0.45503096926E+02 -0.16391211982E+02 -0.45767252764E+02  0.11270654159E+03  0.90933599019E+02 0.  0.
          5    1    3    3  502    0  0.34280433587E+02  0.62120223029E+02 -0.37256420254E+02  0.80247015435E+02  0.41800000000E+01 0. -1.
         -5    1    3    3    0  502  0.11222663339E+02 -0.45729011047E+02  0.26681391146E+02  0.54281301175E+02  0.41800000000E+01 0. -1.
        -11    1    4    4    0    0  0.43556515132E+01 -0.18425725203E+02  0.21694835784E+02  0.28794877133E+02  0.00000000000E+00 0. -1.
         11    1    4    4    0    0 -0.49858748439E+02  0.20345132208E+01 -0.67462088548E+02  0.83911664453E+02  0.00000000000E+00 0.  1.
</event>
<event>
 8    1  0.6493926E-009  0.2125417E+03  0.7561462E-02  0.1139569E+00
         -2   -1    0    0    0  501 -0.00000000000E+00  0.00000000000E+00  0.51369840887E+02  0.51369840887E+02  0.00000000000E+00 0. -1.
          2   -1    0    0  501    0  0.00000000000E+00 -0.00000000000E+00 -0.96092221526E+03  0.96092221526E+03  0.00000000000E+00 0.  1.
         25    2    1    2    0    0 -0.71460438280E+02  0.18041271607E+03 -0.48167093627E+03  0.53414388334E+03  0.12508978739E+03 0.  0.
         23    2    1    2    0    0  0.71460438280E+02 -0.18041271607E+03 -0.42788143811E+03  0.47814817281E+03  0.88813330751E+02 0.  0.
          5    1    3    3  502    0 -0.17942195365E+02  0.17547681707E+03 -0.35310794938E+03  0.39473628161E+03  0.41800000000E+01 0. -1.
         -5    1    3    3    0  502 -0.53518242915E+02  0.49358990004E+01 -0.12856298689E+03  0.13940760173E+03  0.41800000000E+01 0. -1.
        -11    1    4    4    0    0  0.64205044411E+02 -0.14489050895E+03 -0.40592006787E+03  0.43575985222E+03  0.00000000000E+00 0.  1.
         11    1    4    4    0    0  0.72553938684E+01 -0.35522207122E+02 -0.21961370244E+02  0.42388320585E+02  0.00000000000E+00 0. -1.
</event>
<event>
 8    1  0.6493926E-009  0.1358214E+03  0.7561462E-02  0.1219065E+00
          2   -1    0    0  501    0  0.00000000000E+00  0.00000000000E+00  0.30848353179E+03  0.30848353179E+03  0.00000000000E+00 0. -1.
         -2   -1    0    0    0  501 -0.00000000000E+00 -0.00000000000E+00 -0.74588155997E+02  0.74588155997E+02  0.00000000000E+00 0.  1.
         25    2    1    2    0    0 -0.10061154299E+03 -0.29205358473E+02  0.14150219975E+03  0.21597491385E+03  0.12508659135E+03 0.  0.
         23    2    1    2    0    0  0.10061154299E+03  0.29205358473E+02  0.92393176044E+02  0.16709677393E+03  0.91701675736E+02 0.  0.
          5    1    3    3  502    0 -0.47421531603E+02  0.49009580431E+02  0.54623593386E+02  0.87475425052E+02  0.41800000000E+01 0. -1.
         -5    1    3    3    0  502 -0.53190011386E+02 -0.78214938904E+02  0.86878606359E+02  0.12849948880E+03  0.41800000000E+01 0. -1.
        -11    1    4    4    0    0  0.61004924599E+02  0.32084698413E+02  0.26711872881E+01  0.68979445773E+02  0.00000000000E+00 0.  1.
         11    1    4    4    0    0  0.39606618390E+02 -0.28793399401E+01  0.89721988756E+02  0.98117328159E+02  0.00000000000E+00 0. -1.
</event>
<event>
 8    1  0.6493926E-009  0.1027913E+03  0.7561462E-02  0.1274533E+00
          1   -1    0    0  501    0  0.00000000000E+00  0.00000000000E+00  0.75173037048E+02  0.75173037048E+02  0.00000000000E+00 0. -1.
         -1   -1    0    0    0  501 -0.00000000000E+00 -0.00000000000E+00 -0.25802211887E+03  0.25802211887E+03  0.00000000000E+00 0.  1.
         25    2    1    2    0    0 -0.81653084196E+02 -0.15808415694E+02 -0.12899215135E+03  0.19799876188E+03  0.12508957763E+03 0.  0.
         23    2    1    2    0    0  0.81653084196E+02  0.15808415694E+02 -0.53856930471E+02  0.13519639403E+03  0.91980236110E+02 0.  0.
          5    1    3    3  502    0  0.16826748863E+01 -0.58344051498E+01  0.23093049150E+02  0.24241142656E+02  0.41800000000E+01 0.  1.
         -5    1    3    3    0  502 -0.83335759082E+02 -0.99740105439E+01 -0.15208520050E+03  0.17375761923E+03  0.41800000000E+01 0.  1.
        -11    1    4    4    0    0 -0.12950355726E+02  0.14666664020E+02 -0.32922438002E+02  0.38297645762E+02  0.00000000000E+00 0.  1.
         11    1    4    4    0    0  0.94603439922E+02  0.11417516736E+01 -0.20934492469E+02  0.96898748273E+02  0.00000000000E+00 0. -1.
</event>
<event>
 8    1  0.6493926E-009  0.1672408E+03  0.7561462E-02  0.1180756E+00
          2   -1    0    0  501    0  0.00000000000E+00  0.00000000000E+00  0.14831579525E+04  0.14831579525E+04  0.00000000000E+00 0. -1.
         -2   -1    0    0    0  501 -0.00000000000E+00 -0.00000000000E+00 -0.29526139470E+02  0.29526139470E+02  0.00000000000E+00 0.  1.
         25    2    1    2    0    0 -0.15493669462E+03  0.33350596803E+02  0.10580332180E+04  0.10771232091E+04  0.12506988264E+03 0.  0.
         23    2    1    2    0    0  0.15493669462E+03 -0.33350596803E+02  0.39559859495E+03  0.43556088279E+03  0.89985513528E+02 0.  0.
          5    1    3    3  502    0 -0.13311664638E+03  0.46479453762E+02  0.10275346439E+04  0.10371717785E+04  0.41800000000E+01 0. -1.
         -5    1    3    3    0  502 -0.21820048233E+02 -0.13128856959E+02  0.30498574095E+02  0.39951430660E+02  0.41800000000E+01 0. -1.
        -11    1    4    4    0    0  0.52062824648E+02  0.14663941314E+02  0.21929813515E+03  0.22586996473E+03  0.00000000000E+00 0. -1.
         11    1    4    4    0    0  0.10287386997E+03 -0.48014538117E+02  0.17630045980E+03  0.20969091806E+03  0.00000000000E+00 0.  1.
</event>
<event>
 8    1  0.6493926E-009  0.1370147E+03  0.7561462E-02  0.1217403E+00
         -3   -1    0    0    0  501 -0.00000000000E+00  0.00000000000E+00  0.40695342489E+03  0.40695342489E+03  0.00000000000E+00 0.  1.
          3   -1    0    0  501    0  0.00000000000E+00 -0.00000000000E+00 -0.62947877594E+02  0.62947877594E+02  0.00000000000E+00 0. -1.
         25    2    1    2    0    0  0.80786646260E+01 -0.10072765608E+03  0.97757380355E+02  0.18818777515E+03  0.12508720071E+03 0.  0.
         23    2    1    2    0    0 -0.80786646260E+01  0.10072765608E+03  0.24624816694E+03  0.28171352733E+03  0.92266062236E+02 0.  0.
          5    1    3    3  502    0  0.37188803968E+02  0.98443816335E+01  0.15968108510E+01  0.38729074288E+02  0.41800000000E+01 0.  1.
         -5    1    3    3    0  502 -0.29110139342E+02 -0.11057203771E+03  0.96160569504E+02  0.14945870086E+03  0.41800000000E+01 0.  1.
        -11    1    4    4    0    0  0.13816934679E+02  0.97864634677E+02  0.12956111581E+03  0.16295544524E+03  0.00000000000E+00 0. -1.
         11    1    4    4    0    0 -0.21895599305E+02  0.28630213991E+01  0.11668705113E+03  0.11875808209E+03  0.00000000000E+00 0.  1.
</event>
<event>
 8    1  0.6493926E-009  0.1774572E+03  0.7561462E-02  0.1170287E+00
          1   -1    0    0  501    0  0.00000000000E+00  0.00000000000E+00  0.11560533332E+03  0.11560533332E+03  0.00000000000E+00 0. -1.
         -1   -1    0    0    0  501 -0.00000000000E+00 -0.00000000000E+00 -0.33422405915E+03  0.33422405915E+03  0.00000000000E+00 0.  1.
         25    2    1    2    0    0  0.94053274413E+02  0.13408905262E+03 -0.12536312011E+03  0.24121560510E+03  0.12507263409E+03 0.  0.
         23    2    1    2    0    0 -0.94053274413E+02 -0.13408905262E+03 -0.93255605714E+02  0.20861378738E+03  0.89427131370E+02 0.  0.
          5    1    3    3  502    0  0.25914864818E+02  0.71092713286E+02 -0.12747416257E+03  0.14829999536E+03  0.41800000000E+01 0.  1.
         -5    1    3    3    0  502  0.68138409595E+02  0.62996339336E+02  0.21110424640E+01  0.92915609733E+02  0.41800000000E+01 0.  1.
        -11    1    4    4    0    0 -0.98444006858E+01 -0.91212921735E+02 -0.39369142825E+02  0.99833054261E+02  0.00000000000E+00 0. -1.
         11    1    4    4    0    0 -0.84208873727E+02 -0.42876130888E+02 -0.53886462890E+02  0.10878073311E+03  0.00000000000E+00 0.  1.
</event>
<event>
 8    1  0.6493926E-009  0.9832977E+02  0.7561462E-02  0.1283848E+00
          4   -1    0    0  501    0  0.00000000000E+00  0.00000000000E+00  0.74928023151E+02  0.74928023151E+02  0.00000000000E+00 0. -1.
         -4   -1    0    0    0  501 -0.00000000000E+00 -0.00000000000E+00 -0.18987148517E+03  0.18987148517E+03  0.00000000000E+00 0.  1.
         25    2    1    2    0    0 -0.13058135401E+02 -0.42320871016E+02 -0.41182453449E+02  0.13891776467E+03  0.12506230385E+03 0.  0.
         23    2    1    2    0    0  0.13058135401E+02  0.42320871016E+02 -0.73761008568E+02  0.12588174365E+03  0.91891000519E+02 0.  0.
          5    1    3    3  502    0 -0.68524519671E+02 -0.13505075851E+02 -0.19626212770E+02  0.72668132614E+02  0.41800000000E+01 0. -1.
         -5    1    3    3    0  502  0.55466384270E+02 -0.28815795165E+02 -0.21556240679E+02  0.66249632053E+02  0.41800000000E+01 0. -1.
        -11    1    4    4    0    0  0.15264764923E+01  0.50108898897E+02  0.69461779319E+00  0.50136956160E+02  0.00000000000E+00 0. -1.
         11    1    4    4    0    0  0.11531658909E+02 -0.77880278810E+01 -0.74455626361E+02  0.75744787492E+02  0.00000000000E+00 0.  1.
</event>
<event>
 8    1  0.6493926E-009  0.1617035E+03  0.7561462E-02  0.1186787E+00
         -2   -1    0    0    0  501 -0.00000000000E+00  0.00000000000E+00  0.91887990070E+02  0.91887990070E+02  0.00000000000E+00 0.  1.
          2   -1    0    0  501    0  0.00000000000E+00 -0.00000000000E+00 -0.51889868393E+03  0.51889868393E+03  0.00000000000E+00 0. -1.
         25    2    1    2    0    0  0.10453994300E+03  0.98230768138E+02 -0.39465242648E+03  0.43814882464E+03  0.12508385712E+03 0.  0.
         23    2    1    2    0    0 -0.10453994300E+03 -0.98230768138E+02 -0.32358267381E+02  0.17263784936E+03  0.90437194078E+02 0.  0.
          5    1    3    3  502    0  0.16944162503E+02 -0.23756563415E+02 -0.13485018130E+03  0.13803449838E+03  0.41800000000E+01 0. -1.
         -5    1    3    3    0  502  0.87595780501E+02  0.12198733155E+03 -0.25980224518E+03  0.30011432625E+03  0.41800000000E+01 0. -1.
        -11    1    4    4    0    0 -0.55692771497E+02 -0.46622036066E+02  0.29530995125E+02  0.78405221236E+02  0.00000000000E+00 0.  1.
         11    1    4    4    0    0 -0.48847171507E+02 -0.51608732072E+02 -0.61889262506E+02  0.94232628128E+02  0.00000000000E+00 0. -1.
</event>
<event>
 8    1  0.6493926E-009  0.2787245E+03  0.7561462E-02  0.1096388E+00
         -2   -1    0    0    0  501 -0.00000000000E+00  0.00000000000E+00  0.61285163619E+02  0.61285163619E+02  0.00000000000E+00 0.  1.
          2   -1    0    0  501    0  0.00000000000E+00 -0.00000000000E+00 -0.21227087536E+04  0.21227087536E+04  0.00000000000E+00 0. -1.
         25    2    1    2    0    0 -0.14275323440E+03  0.22286274935E+03 -0.17084063139E+04  0.17333040096E+04  0.12507743761E+03 0.  0.
         23    2    1    2    0    0  0.14275323440E+03 -0.22286274935E+03 -0.35301727605E+03  0.45068990758E+03  0.91945117437E+02 0.  0.
          5    1    3    3  502    0 -0.28053203151E+02 -0.12405052780E+02 -0.17947846595E+03  0.18212868989E+03  0.41800000000E+01 0. -1.
         -5    1    3    3    0  502 -0.11470003125E+03  0.23526780213E+03 -0.15289278480E+04  0.15511753197E+04  0.41800000000E+01 0. -1.
        -11    1    4    4    0    0  0.40493377393E+02 -0.67900107915E+02 -0.44789737834E+02  0.90863958106E+02  0.00000000000E+00 0.  1.
         11    1    4    4    0    0  0.10225985700E+03 -0.15496264144E+03 -0.30822753822E+03  0.35982594947E+03  0.00000000000E+00 0. -1.
</event>
<event>
 8    1  0.6493926E-009  0.1035705E+03  0.7561462E-02  0.1272962E+00
         -1   -1    0    0    0  501 -0.00000000000E+00  0.00000000000E+00  0.85224498321E+02  0.85224498321E+02  0.00000000000E+00 0.  1.
          1   -1    0    0  501    0  0.00000000000E+00 -0.00000000000E+00 -0.17977567547E+03  0.17977567547E+03  0.00000000000E+00 0. -1.
         25    2    1    2    0    0 -0.57953949154E+02 -0.12190655524E+02 -0.63668039661E+02  0.15234065523E+03  0.12508710427E+03 0.  0.
         23    2    1    2    0    0  0.57953949154E+02  0.12190655524E+02 -0.30883137487E+02  0.11265951856E+03  0.90725556695E+02 0.  0.
          5    1    3    3  502    0 -0.86044869011E+02 -0.32734679559E+02 -0.71238831710E+02  0.11648056607E+03  0.41800000000E+01 0. -1.
         -5    1    3    3    0  502  0.28090919856E+02  0.20544024035E+02  0.75707920492E+01  0.35860089154E+02  0.41800000000E+01 0. -1.
        -11    1    4    4    0    0  0.44249746330E+02 -0.17223236438E+02  0.20635137519E+02  0.51773437438E+02  0.00000000000E+00 0.  1.
         11    1    4    4    0    0  0.13704202825E+02  0.29413891962E+02 -0.51518275006E+02  0.60886081127E+02  0.00000000000E+00 0. -1.
</event>
<event>
 8    1  0.6493926E-009  0.7017593E+02  0.7561462E-02  0.1359496E+00
          1   -1    0    0  501    0  0.00000000000E+00  0.00000000000E+00  0.59224616343E+03  0.59224616343E+03  0.00000000000E+00 0. -1.
         -1   -1    0    0    0  501 -0.00000000000E+00 -0.00000000000E+00 -0.25161846511E+02  0.25161846511E+02  0.00000000000E+00 0.  1.
         25    2    1    2    0    0  0.57927548062E+01  0.16841003983E+01  0.45805436079E+03  0.47486563295E+03  0.12508868738E+03 0.  0.
         23    2    1    2    0    0 -0.57927548062E+01 -0.16841003983E+01  0.10902995612E+03  0.14254237699E+03  0.91620989425E+02 0.  0.
          5    1    3    3  502    0 -0.30204524551E+02 -0.18632266811E+01  0.22872078498E+02  0.38162668825E+02  0.41800000000E+01 0.  1.
         -5    1    3    3    0  502  0.35997279358E+02  0.35473270795E+01  0.43518228229E+03  0.43670296412E+03  0.41800000000E+01 0.  1.
        -11    1    4    4    0    0  0.32997099129E+02  0.67829517708E+01  0.89218547749E+01  0.34848478851E+02  0.00000000000E+00 0.  1.
         11    1    4    4    0    0 -0.38789853935E+02 -0.84670521692E+01  0.10010810135E+03  0.10769389814E+03  0.00000000000E+00 0. -1.
</event>
<event>
 8    1  0.6493926E-009  0.1608788E+03  0.7561462E-02  0.1187708E+00
         -3   -1    0    0    0  501 -0.00000000000E+00  0.00000000000E+00  0.56285156318E+03  0.56285156318E+03  0.00000000000E+00 0.  1.
          3   -1    0    0  501    0  0.00000000000E+00 -0.00000000000E+00 -0.51984899625E+02  0.51984899625E+02  0.00000000000E+00 0. -1.
         25    2    1    2    0    0 -0.11912117976E+03  0.31169997818E+02  0.18612556775E+03  0.25583610598E+03  0.12509181395E+03 0.  0.
         23    2    1    2    0    0  0.11912117976E+03 -0.31169997818E+02  0.32474109580E+03  0.35900035682E+03  0.90901334799E+02 0.  0.
          5    1    3    3  502    0  0.16145850973E+01 -0.36398780832E+02  0.31939085602E+02  0.48631838544E+02  0.41800000000E+01 0.  1.
         -5    1    3    3    0  502 -0.12073576486E+03  0.67568778649E+02  0.15418648215E+03  0.20720426743E+03  0.41800000000E+01 0.  1.
        -11    1    4    4    0    0  0.51214608329E+02 -0.54569940913E+02  0.21673674826E+03  0.22929376922E+03  0.00000000000E+00 0.  1.
         11    1    4    4    0    0  0.67906571432E+02  0.23399943096E+02  0.10800434754E+03  0.12970658761E+03  0.00000000000E+00 0. -1.
</event>
<event>
 8    1  0.6493926E-009  0.1985267E+03  0.7561462E-02  0.1150988E+00
         -1   -1    0    0    0  501 -0.00000000000E+00  0.00000000000E+00  0.24291499045E+03  0.24291499045E+03  0.00000000000E+00 0.  1.
          1   -1    0    0  501    0  0.00000000000E+00 -0.00000000000E+00 -0.25190819506E+03  0.25190819506E+03  0.00000000000E+00 0. -1.
         25    2    1    2    0    0 -0.26014944876E+02  0.18432941158E+03 -0.12539585222E+03  0.25695725160E+03  0.12509516405E+03 0.  0.
         23    2    1    2    0    0  0.26014944876E+02 -0.18432941158E+03  0.11640264760E+03  0.23786593391E+03  0.91523312957E+02 0.  0.
          5    1    3    3  502    0  0.30348126356E+02  0.19368636075E+02 -0.61228261199E+02  0.71151424484E+02  0.41800000000E+01 0. -1.
         -5    1    3    3    0  502 -0.56363071232E+02  0.16496077551E+03 -0.64167591017E+02  0.18580582712E+03  0.41800000000E+01 0. -1.
        -11    1    4    4    0    0  0.42678934599E+01 -0.65032208351E+02 -0.61476007061E+01  0.65461408723E+02  0.00000000000E+00 0. -1.
         11    1    4    4    0    0  0.21747051416E+02 -0.11929720323E+03  0.12255024831E+03  0.17240452519E+03  0.00000000000E+00 0.  1.
</event>
<event>
 8    1  0.6493926E-009  0.1587147E+03  0.7561462E-02  0.1190156E+00
         -2   -1    0    0    0  501 -0.00000000000E+00  0.00000000000E+00  0.73087271182E+02  0.73087271182E+02  0.00000000000E+00 0.  1.
          2   -1    0    0  501    0  0.00000000000E+00 -0.00000000000E+00 -0.46864381147E+03  0.46864381147E+03  0.00000000000E+00 0. -1.
         25    2    1    2    0    0 -0.28076476241E+02 -0.14428487111E+03 -0.25552235099E+03  0.32022850021E+03  0.12509279730E+03 0.  0.
         23    2    1    2    0    0  0.28076476241E+02  0.14428487111E+03 -0.14003418929E+03  0.22150258244E+03  0.88585593117E+02 0.  0.
          5    1    3    3  502    0 -0.24187788616E+02 -0.12891165868E+03 -0.10298778916E+03  0.16681493332E+03  0.41800000000E+01 0.  1.
         -5    1    3    3    0  502 -0.38886876246E+01 -0.15373212431E+02 -0.15253456183E+03  0.15341356688E+03  0.41800000000E+01 0.  1.
        -11    1    4    4    0    0 -0.11516731914E+02 -0.69631361760E+01 -0.21248079703E+02  0.25151565964E+02  0.00000000000E+00 0. -1.
         11    1    4    4    0    0  0.39593208155E+02  0.15124800729E+03 -0.11878610959E+03  0.19635101648E+03  0.00000000000E+00 0.  1.
</event>
<event>
 8    1  0.6493926E-009  0.7512616E+02  0.7561462E-02  0.1343481E+00
         -1   -1    0    0    0  501 -0.00000000000E+00  0.00000000000E+00  0.15482970092E+03  0.15482970092E+03  0.00000000000E+00 0.  1.
          1   -1    0    0  501    0  0.00000000000E+00 -0.00000000000E+00 -0.12847529304E+03  0.12847529304E+03  0.00000000000E+00 0. -1.
         25    2    1    2    0    0  0.65633626676E+01 -0.70218363884E+02 -0.39910503501E+02  0.14904209015E+03  0.12508796901E+03 0.  0.
         23    2    1    2    0    0 -0.65633626676E+01  0.70218363884E+02  0.66264911381E+02  0.13426290380E+03  0.93068751475E+02 0.  0.
          5    1    3    3  502    0  0.10589385269E+02 -0.72545799357E+02  0.29655498667E+02  0.79195638049E+02  0.41800000000E+01 0. -1.
         -5    1    3    3    0  502 -0.40260226015E+01  0.23274354738E+01 -0.69566002168E+02  0.69846452104E+02  0.41800000000E+01 0. -1.
        -11    1    4    4    0    0 -0.57695597961E+01  0.49983442184E+02  0.89971317618E+02  0.10308477243E+03  0.00000000000E+00 0.  1.
         11    1    4    4    0    0 -0.79380287142E+00  0.20234921699E+02 -0.23706406238E+02  0.31178131372E+02  0.00000000000E+00 0. -1.
</event>
<event>
 8    1  0.6493926E-009  0.1092686E+03  0.7561462E-02  0.1261930E+00
          2   -1    0    0  501    0  0.00000000000E+00  0.00000000000E+00  0.68745865919E+03  0.68745865919E+03  0.00000000000E+00 0. -1.
         -2   -1    0    0    0  501 -0.00000000000E+00 -0.00000000000E+00 -0.27582240847E+02  0.27582240847E+02  0.00000000000E+00 0.  1.
         25    2    1    2    0    0 -0.73476478544E+00  0.75569731684E+02  0.43532502365E+03  0.45920225124E+03  0.12508999600E+03 0.  0.
         23    2    1    2    0    0  0.73476478544E+00 -0.75569731684E+02  0.22455139468E+03  0.25583864879E+03  0.96533730557E+02 0.  0.
          5    1    3    3  502    0 -0.36574790342E+02 -0.73415895416E+01  0.45295475237E+02  0.58828281485E+02  0.41800000000E+01 0. -1.
         -5    1    3    3    0  502  0.35840025556E+02  0.82911321226E+02  0.39002954842E+03  0.40037396976E+03  0.41800000000E+01 0. -1.
        -11    1    4    4    0    0  0.24015941620E+02 -0.52830659519E+02  0.45200191793E+02  0.73558829350E+02  0.00000000000E+00 0.  1.
         11    1    4    4    0    0 -0.23281176834E+02 -0.22739072165E+02  0.17935120289E+03  0.18227981944E+03  0.00000000000E+00 0. -1.
</event>
<event>
 8    1  0.6493926E-009  0.1590728E+03  0.7561462E-02  0.1189748E+00
          1   -1    0    0  501    0  0.00000000000E+00  0.00000000000E+00  0.49468158941E+03  0.49468158941E+03  0.00000000000E+00 0. -1.
         -1   -1    0    0    0  501 -0.00000000000E+00 -0.00000000000E+00 -0.60655904978E+02  0.60655904978E+02  0.00000000000E+00 0.  1.
         25    2    1    2    0    0  0.92837253195E+02  0.89805743942E+02  0.17103588450E+03  0.24816491574E+03  0.12509486158E+03 0.  0.
         23    2    1    2    0    0 -0.92837253195E+02 -0.89805743942E+02  0.26298979994E+03  0.30717257865E+03  0.92236277988E+02 0.  0.
          5    1    3    3  502    0  0.32331464637E+02  0.97486013962E+02  0.15318526007E+03  0.18447775700E+03  0.41800000000E+01 0.  1.
         -5    1    3    3    0  502  0.60505788558E+02 -0.76802700199E+01  0.17850624429E+02  0.63687158746E+02  0.41800000000E+01 0.  1.
        -11    1    4    4    0    0  0.78961216563E+01  0.97797678230E+01  0.64578296760E+01  0.14131389175E+02  0.00000000000E+00 0.  1.
         11    1    4    4    0    0 -0.10073337485E+03 -0.99585511765E+02  0.25653197026E+03  0.29304118947E+03  0.00000000000E+00 0. -1.
</event>
<event>
 8    1  0.6493926E-009  0.1317476E+03  0.7561462E-02  0.1224885E+00
          1   -1    0    0  501    0  0.00000000000E+00  0.00000000000E+00  0.16316266103E+03  0.16316266103E+03  0.00000000000E+00 0. -1.
         -1   -1    0    0    0  501 -0.00000000000E+00 -0.00000000000E+00 -0.22300097609E+03  0.22300097609E+03  0.00000000000E+00 0.  1.
         25    2    1    2    0    0  0.11758544720E+03  0.26667434791E+02  0.69782416533E+02  0.18723767472E+03  0.12510344403E+03 0.  0.
         23    2    1    2    0    0 -0.11758544720E+03 -0.26667434791E+02 -0.12962073159E+03  0.19892596239E+03  0.90733207736E+02 0.  0.
          5    1    3    3  502    0  0.31187922215E+02  0.34938302501E+02  0.86778206241E+02  0.98698029120E+02  0.41800000000E+01 0. -1.
         -5    1    3    3    0  502  0.86397524983E+02 -0.82708677099E+01 -0.16995789709E+02  0.88539645604E+02  0.41800000000E+01 0. -1.
        -11    1    4    4    0    0 -0.14384319412E+02 -0.21988259544E+02 -0.80222541989E+02  0.84415925310E+02  0.00000000000E+00 0.  1.
         11    1    4    4    0    0 -0.10320112779E+03 -0.46791752469E+01 -0.49398189598E+02  0.11451003708E+03  0.00000000000E+00 0. -1.
</event>
<event>
 8    1  0.6493926E-009  0.7272524E+02  0.7561462E-02  0.1351064E+00
          2   -1    0    0  501    0  0.00000000000E+00  0.00000000000E+00  0.34326196965E+03  0.34326196965E+03  0.00000000000E+00 0. -1.
         -2   -1    0    0    0  501 -0.00000000000E+00 -0.00000000000E+00 -0.37602600046E+02  0.37602600046E+02  0.00000000000E+00 0.  1.
         25    2    1    2    0    0 -0.48766177956E+01 -0.22609881510E+02  0.22702981895E+03  0.26024084286E+03  0.12509104467E+03 0.  0.
         23    2    1    2    0    0  0.48766177956E+01  0.22609881510E+02  0.78629550661E+02  0.12062372684E+03  0.88501350819E+02 0.  0.
          5    1    3    3  502    0 -0.28800669460E+02  0.18659678839E+02  0.20435446226E+03  0.20725800544E+03  0.41800000000E+01 0. -1.
         -5    1    3    3    0  502  0.23924051665E+02 -0.41269560349E+02  0.22675356687E+02  0.52982837413E+02  0.41800000000E+01 0. -1.
        -11    1    4    4    0    0 -0.70084848551E+01  0.40727621741E+02  0.24237370846E+01  0.41397252737E+02  0.00000000000E+00 0.  1.
         11    1    4    4    0    0  0.11885102651E+02 -0.18117740232E+02  0.76205813576E+02  0.79226474104E+02  0.00000000000E+00 0. -1.
</event>
<event>
 8    1  0.6493926E-009  0.9867945E+02  0.7561462E-02  0.1283098E+00
         -2   -1    0    0    0  501 -0.00000000000E+00  0.00000000000E+00  0.48041603503E+03  0.48041603503E+03  0.00000000000E+00 0.  1.
          2   -1    0    0  501    0  0.00000000000E+00 -0.00000000000E+00 -0.55578084539E+02  0.55578084539E+02  0.00000000000E+00 0. -1.
         25    2    1    2    0    0  0.37187689525E+02  0.90754433061E+02  0.11189936009E+03  0.19439351863E+03  0.12509229363E+03 0.  0.
         23    2    1    2    0    0 -0.37187689525E+02 -0.90754433061E+02  0.31293859040E+03  0.34160060094E+03  0.95609193198E+02 0.  0.
          5    1    3    3  502    0  0.31399311057E+02  0.66665912032E+02 -0.58058495338E+01  0.74036753378E+02  0.41800000000E+01 0.  1.
         -5    1    3    3    0  502  0.57883784673E+01  0.24088521029E+02  0.11770520962E+03  0.12035676525E+03  0.41800000000E+01 0.  1.
        -11    1    4    4    0    0 -0.30226399779E+02 -0.63972755644E+02  0.30458582722E+03  0.31269581841E+03  0.00000000000E+00 0.  1.
         11    1    4    4    0    0 -0.69612897452E+01 -0.26781677417E+02  0.83527631864E+01  0.28904782528E+02  0.00000000000E+00 0. -1.
</event>
<event>
 8    1  0.6493926E-009  0.8620699E+02  0.7561462E-02  0.1312306E+00
          1   -1    0    0  501    0  0.00000000000E+00  0.00000000000E+00  0.29850127449E+03  0.29850127449E+03  0.00000000000E+00 0. -1.
         -1   -1    0    0    0  501 -0.00000000000E+00 -0.00000000000E+00 -0.48092583943E+02  0.48092583943E+02  0.00000000000E+00 0.  1.
         25    2    1    2    0    0 -0.11659263687E+02  0.45347327195E+02  0.10579811980E+03  0.17035674226E+03  0.12504342833E+03 0.  0.
         23    2    1    2    0    0  0.11659263687E+02 -0.45347327195E+02  0.14461057074E+03  0.17623711617E+03  0.89190725028E+02 0.  0.
          5    1    3    3  502    0 -0.99501963184E+01  0.58040818128E+02  0.12993311325E+03  0.14271590414E+03  0.41800000000E+01 0. -1.
         -5    1    3    3    0  502 -0.17090673683E+01 -0.12693490933E+02 -0.24134993449E+02  0.27640838122E+02  0.41800000000E+01 0. -1.
        -11    1    4    4    0    0 -0.37213550490E+02 -0.71915662566E+01  0.44197755873E+02  0.58223780275E+02  0.00000000000E+00 0.  1.
         11    1    4    4    0    0  0.48872814177E+02 -0.38155760939E+02  0.10041281487E+03  0.11801333589E+03  0.00000000000E+00 0. -1.
</event>
<event>
 8    1  0.6493926E-009  0.1609004E+03  0.7561462E-02  0.1187684E+00
         -2   -1    0    0    0  501 -0.00000000000E+00  0.00000000000E+00  0.67415409848E+02  0.67415409848E+02  0.00000000000E+00 0.  1.
          2   -1    0    0  501    0  0.00000000000E+00 -0.00000000000E+00 -0.44473984510E+03  0.44473984510E+03  0.00000000000E+00 0. -1.
         25    2    1    2    0    0 -0.12937526173E+03 -0.25684654818E+02 -0.15816230254E+03  0.24095117195E+03  0.12507794962E+03 0.  0.
         23    2    1    2    0    0  0.12937526173E+03  0.25684654818E+02 -0.21916213271E+03  0.27120408300E+03  0.90121886240E+02 0.  0.
          5    1    3    3  502    0 -0.49046004110E+01 -0.49778799475E+02 -0.71359662390E+02  0.87244815312E+02  0.41800000000E+01 0. -1.
         -5    1    3    3    0  502 -0.12447066131E+03  0.24094144656E+02 -0.86802640153E+02  0.15370635664E+03  0.41800000000E+01 0. -1.
        -11    1    4    4    0    0  0.73919876714E+02  0.44398658015E+02 -0.18328364379E+03  0.20255439538E+03  0.00000000000E+00 0.  1.
         11    1    4    4    0    0  0.55455385012E+02 -0.18714003197E+02 -0.35878488922E+02  0.68649687616E+02  0.00000000000E+00 0. -1.
</event>
<event>
 8    1  0.6493926E-009  0.1215843E+03  0.7561462E-02  0.1240506E+00
         -1   -1    0    0    0  501 -0.00000000000E+00  0.00000000000E+00  0.43871842202E+02  0.43871842202E+02  0.00000000000E+00 0.  1.
          1   -1    0    0  501    0  0.00000000000E+00 -0.00000000000E+00 -0.44277129348E+03  0.44277129348E+03  0.00000000000E+00 0. -1.
         25    2    1    2    0    0 -0.17941237183E+02  0.85894788230E+02 -0.21678349013E+03  0.26522376516E+03  0.12509500941E+03 0.  0.
         23    2    1    2    0    0  0.17941237183E+02 -0.85894788230E+02 -0.18211596115E+03  0.22141937052E+03  0.90335550578E+02 0.  0.
          5    1    3    3  502    0 -0.52831437440E+02  0.10032635251E+03 -0.14615929516E+03  0.18503121291E+03  0.41800000000E+01 0.  1.
         -5    1    3    3    0  502  0.34890200257E+02 -0.14431564283E+02 -0.70624194968E+02  0.80192552251E+02  0.41800000000E+01 0.  1.
        -11    1    4    4    0    0  0.23529343866E+02 -0.48488653852E+02 -0.24275308982E+02  0.59110660640E+02  0.00000000000E+00 0.  1.
         11    1    4    4    0    0 -0.55881066823E+01 -0.37406134378E+02 -0.15784065217E+03  0.16230870988E+03  0.00000000000E+00 0. -1.
</event>
<event>
 8    1  0.6493926E-009  0.9057565E+02  0.7561462E-02  0.1301464E+00
          1   -1    0    0  501    0  0.00000000000E+00  0.00000000000E+00  0.64442849229E+03  0.64442849229E+03  0.00000000000E+00 0. -1.
         -1   -1    0    0    0  501 -0.00000000000E+00 -0.00000000000E+00 -0.18538202458E+02  0.18538202458E+02  0.00000000000E+00 0.  1.
         25    2    1    2    0    0 -0.85179895390E+01 -0.12166533248E+02  0.40019052473E+03  0.41955100202E+03  0.12509998613E+03 0.  0.
         23    2    1    2    0    0  0.85179895390E+01  0.12166533248E+02  0.22569976509E+03  0.24341569273E+03  0.89945732669E+02 0.  0.
          5    1    3    3  502    0 -0.52647319835E+02  0.26989997640E+02  0.27175147603E+03  0.27814840891E+03  0.41800000000E+01 0. -1.
         -5    1    3    3    0  502  0.44129330295E+02 -0.39156530888E+02  0.12843904871E+03  0.14140259310E+03  0.41800000000E+01 0. -1.
        -11    1    4    4    0    0 -0.76620569109E+01 -0.22861945848E+02  0.13293880517E+02  0.27533669266E+02  0.00000000000E+00 0.  1.
         11    1    4    4    0    0  0.16180046450E+02  0.35028479095E+02  0.21240588458E+03  0.21588202346E+03  0.00000000000E+00 0. -1.
</event>
<event>
 8    1  0.6493926E-009  0.8758515E+02  0.7561462E-02  0.1308807E+00
          2   -1    0    0  501    0  0.00000000000E+00  0.00000000000E+00  0.83316786357E+02  0.83316786357E+02  0.00000000000E+00 0. -1.
         -2   -1    0    0    0  501 -0.00000000000E+00 -0.00000000000E+00 -0.16133378896E+03  0.16133378896E+03  0.00000000000E+00 0.  1.
         25    2    1    2    0    0 -0.63656480937E+01  0.24160134833E+02 -0.13549892217E+02  0.12827043482E+03  0.12508185831E+03 0.  0.
         23    2    1    2    0    0  0.63656480937E+01 -0.24160134833E+02 -0.64467110386E+02  0.11638014050E+03  0.93616746314E+02 0.  0.
          5    1    3    3  502    0 -0.24666932361E+02 -0.19350861045E+02  0.43704624354E+02  0.53948864355E+02  0.41800000000E+01 0.  1.
         -5    1    3    3    0  502  0.18301284268E+02  0.43510995879E+02 -0.57254516571E+02  0.74321570462E+02  0.41800000000E+01 0.  1.
        -11    1    4    4    0    0  0.45107507180E+02 -0.33638155644E+02 -0.44716719274E+02  0.71873483997E+02  0.00000000000E+00 0. -1.
         11    1    4    4    0    0 -0.38741859087E+02  0.94780208111E+01 -0.19750391113E+02  0.44506656503E+02  0.00000000000E+00 0.  1.
</event>
<event>
 8    1  0.6493926E-009  0.1446538E+03  0.7561462E-02  0.1207201E+00
         -2   -1    0    0    0  501 -0.00000000000E+00  0.00000000000E+00  0.70382498728E+02  0.70382498728E+02  0.00000000000E+00 0.  1.
          2   -1    0    0  501    0  0.00000000000E+00 -0.00000000000E+00 -0.39518465827E+03  0.39518465827E+03  0.00000000000E+00 0. -1.
         25    2    1    2    0    0  0.43210992389E+02 -0.11365784408E+03 -0.22390656450E+03  0.28384248184E+03  0.12508840670E+03 0.  0.
         23    2    1    2    0    0 -0.43210992389E+02  0.11365784408E+03 -0.10089559505E+03  0.18172467516E+03  0.89769934148E+02 0.  0.
          5    1    3    3  502    0  0.75745326011E+02 -0.40352025586E+02 -0.15840032620E+03  0.18020481714E+03  0.41800000000E+01 0.  1.
         -5    1    3    3    0  502 -0.32534333622E+02 -0.73305818493E+02 -0.65506238295E+02  0.10363766470E+03  0.41800000000E+01 0.  1.
        -11    1    4    4    0    0 -0.22428382400E+02  0.33872669108E+02 -0.89764118503E+02  0.98529117626E+02  0.00000000000E+00 0. -1.
         11    1    4    4    0    0 -0.20782609989E+02  0.79785174970E+02 -0.11131476549E+02  0.83195557533E+02  0.00000000000E+00 0.  1.
</event>
<event>
 8    1  0.6493926E-009  0.1828830E+03  0.7561462E-02  0.1165042E+00
          1   -1    0    0  501    0  0.00000000000E+00  0.00000000000E+00  0.21905671566E+03  0.21905671566E+03  0.00000000000E+00 0. -1.
         -1   -1    0    0    0  501 -0.00000000000E+00 -0.00000000000E+00 -0.19446960187E+03  0.19446960187E+03  0.00000000000E+00 0.  1.
         25    2    1    2    0    0  0.62247128915E+01  0.15547964694E+03  0.84545592221E+02  0.21681450142E+03  0.12509157924E+03 0.  0.
         23    2    1    2    0    0 -0.62247128915E+01 -0.15547964694E+03 -0.59958478422E+02  0.19671181611E+03  0.10434486954E+03 0.  0.
          5    1    3    3  502    0  0.46664774126E+02  0.11722546292E+03  0.97498396152E+02  0.15950805608E+03  0.41800000000E+01 0. -1.
         -5    1    3    3    0  502 -0.40440061235E+02  0.38254184024E+02 -0.12952803931E+02  0.57306445342E+02  0.41800000000E+01 0. -1.
        -11    1    4    4    0    0 -0.51759869849E+02 -0.73015874638E+02 -0.48555910264E+02  0.10182376195E+03  0.00000000000E+00 0.  1.
         11    1    4    4    0    0  0.45535156958E+02 -0.82463772307E+02 -0.11402568158E+02  0.94888054163E+02  0.00000000000E+00 0. -1.
</event>
<event>
 8    1  0.6493926E-009  0.2248202E+03  0.7561462E-02  0.1130340E+00
         -2   -1    0    0    0  501 -0.00000000000E+00  0.00000000000E+00  0.76811326393E+03  0.76811326393E+03  0.00000000000E+00 0.  1.
          2   -1    0    0  501    0  0.00000000000E+00 -0.00000000000E+00 -0.76015114573E+02  0.76015114573E+02  0.00000000000E+00 0. -1.
         25    2    1    2    0    0 -0.20119794807E+03  0.76096591962E+02  0.37247951565E+03  0.44794890816E+03  0.12508368850E+03 0.  0.
         23    2    1    2    0    0  0.20119794807E+03 -0.76096591962E+02  0.31961863371E+03  0.39617947034E+03  0.92362308807E+02 0.  0.
          5    1    3    3  502    0 -0.51044494302E+02  0.24235147241E+02  0.22192210898E+03  0.22904099549E+03  0.41800000000E+01 0. -1.
         -5    1    3    3    0  502 -0.15015345377E+03  0.51861444721E+02  0.15055740667E+03  0.21890791267E+03  0.41800000000E+01 0. -1.
        -11    1    4    4    0    0  0.10387676690E+03 -0.87844261357E+02  0.18890631435E+03  0.23279302514E+03  0.00000000000E+00 0.  1.
         11    1    4    4    0    0  0.97321181175E+02  0.11747669396E+02  0.13071231937E+03  0.16338644520E+03  0.00000000000E+00 0. -1.
</event>
<event>
 8    1  0.6493926E-009  0.1425007E+03  0.7561462E-02  0.1210003E+00
         -2   -1    0    0    0  501 -0.00000000000E+00  0.00000000000E+00  0.10594976867E+03  0.10594976867E+03  0.00000000000E+00 0. -1.
          2   -1    0    0  501    0  0.00000000000E+00 -0.00000000000E+00 -0.26408726165E+03  0.26408726165E+03  0.00000000000E+00 0.  1.
         25    2    1    2    0    0 -0.10509498040E+03  0.69487621432E+02 -0.10882146296E+03  0.20823803540E+03  0.12508990426E+03 0.  0.
         23    2    1    2    0    0  0.10509498040E+03 -0.69487621432E+02 -0.49316030022E+02  0.16179899492E+03  0.88731953109E+02 0.  0.
          5    1    3    3  502    0  0.16729573478E+02  0.73322059473E+01  0.14767236822E+02  0.23857568111E+02  0.41800000000E+01 0. -1.
         -5    1    3    3    0  502 -0.12182455388E+03  0.62155415485E+02 -0.12358869978E+03  0.18438046729E+03  0.41800000000E+01 0. -1.
        -11    1    4    4    0    0  0.63802811798E+02 -0.58839278970E+02 -0.72653664511E+02  0.11318751923E+03  0.00000000000E+00 0.  1.
         11    1    4    4    0    0  0.41292168606E+02 -0.10648342463E+02  0.23337634489E+02  0.48611475691E+02  0.00000000000E+00 0. -1.
</event>
<event>
 8    1  0.6493926E-009  0.8648196E+02  0.7561462E-02  0.1311602E+00
          3   -1    0    0  501    0  0.00000000000E+00  0.00000000000E+00  0.20800290336E+03  0.20800290336E+03  0.00000000000E+00 0. -1.
         -3   -1    0    0    0  501 -0.00000000000E+00 -0.00000000000E+00 -0.66073012631E+02  0.66073012631E+02  0.00000000000E+00 0.  1.
         25    2    1    2    0    0 -0.35089091021E+02 -0.26608581575E+02  0.86626861633E+02  0.15840266958E+03  0.12509169298E+03 0.  0.
         23    2    1    2    0    0  0.35089091021E+02  0.26608581575E+02  0.55303029095E+02  0.11567324641E+03  0.91556616287E+02 0.  0.
          5    1    3    3  502    0  0.30298904730E+02 -0.49025230899E+02  0.62379242738E+02  0.85030225315E+02  0.41800000000E+01 0. -1.
         -5    1    3    3    0  502 -0.65387995751E+02  0.22416649325E+02  0.24247618895E+02  0.73372444265E+02  0.41800000000E+01 0. -1.
        -11    1    4    4    0    0  0.16116197242E+02  0.43707301665E+01  0.77304195842E+02  0.79087127843E+02  0.00000000000E+00 0. -1.
         11    1    4    4    0    0  0.18972893779E+02  0.22237851408E+02 -0.22001166747E+02  0.36586118567E+02  0.00000000000E+00 0.  1.
</event>
<event>
 8    1  0.6493926E-009  0.1154375E+03  0.7561462E-02  0.1250819E+00
         -2   -1    0    0    0  501 -0.00000000000E+00  0.00000000000E+00  0.13265390808E+03  0.13265390808E+03  0.00000000000E+00 0.  1.
          2   -1    0    0  501    0  0.00000000000E+00 -0.00000000000E+00 -0.21384427401E+03  0.21384427401E+03  0.00000000000E+00 0. -1.
         25    2    1    2    0    0  0.90974565762E+02 -0.68206263468E+02  0.20120748291E+02  0.17023590765E+03  0.12508778417E+03 0.  0.
         23    2    1    2    0    0 -0.90974565762E+02  0.68206263468E+02 -0.10131111422E+03  0.17626227443E+03  0.88746726876E+02 0.  0.
          5    1    3    3  502    0  0.22553643552E+02 -0.16140404728E+02 -0.51246034978E+02  0.58419243433E+02  0.41800000000E+01 0.  1.
         -5    1    3    3    0  502  0.68420922211E+02 -0.52065858740E+02  0.71366783269E+02  0.11181666422E+03  0.41800000000E+01 0.  1.
        -11    1    4    4    0    0 -0.61522935723E+02  0.29831106044E+02 -0.50866227638E+01  0.68562673803E+02  0.00000000000E+00 0.  1.
         11    1    4    4    0    0 -0.29451630039E+02  0.38375157424E+02 -0.96224491460E+02  0.10769960063E+03  0.00000000000E+00 0. -1.
</event>
<event>
 8    1  0.6493926E-009  0.1085860E+03  0.7561462E-02  0.1263211E+00
         -2   -1    0    0    0  501 -0.00000000000E+00  0.00000000000E+00  0.68632738080E+02  0.68632738080E+02  0.00000000000E+00 0. -1.
          2   -1    0    0  501    0  0.00000000000E+00 -0.00000000000E+00 -0.54281231525E+03  0.54281231525E+03  0.00000000000E+00 0.  1.
         25    2    1    2    0    0 -0.13616624091E+02  0.79564626886E+02 -0.46699227935E+03  0.49014912406E+03  0.12509369503E+03 0.  0.
         23    2    1    2    0    0  0.13616624091E+02 -0.79564626886E+02 -0.71872978149E+01  0.12129592927E+03  0.90250223847E+02 0.  0.
          5    1    3    3  502    0 -0.53095769383E+02  0.41212300413E+02 -0.11046403755E+03  0.12937306684E+03  0.41800000000E+01 0.  1.
         -5    1    3    3    0  502  0.39479145291E+02  0.38352326473E+02 -0.35652824180E+03  0.36077605722E+03  0.41800000000E+01 0.  1.
        -11    1    4    4    0    0  0.30702799449E+02 -0.66075393781E+02 -0.39082025337E+02  0.82680253155E+02  0.00000000000E+00 0.  1.
         11    1    4    4    0    0 -0.17086175358E+02 -0.13489233105E+02  0.31894727522E+02  0.38615676115E+02  0.00000000000E+00 0. -1.
</event>
<event>
 8    1  0.6493926E-009  0.1526913E+03  0.7561462E-02  0.1197204E+00
         -2   -1    0    0    0  501 -0.00000000000E+00  0.00000000000E+00  0.62780338504E+03  0.62780338504E+03  0.00000000000E+00 0.  1.
          2   -1    0    0  501    0  0.00000000000E+00 -0.00000000000E+00 -0.42666196091E+02  0.42666196091E+02  0.00000000000E+00 0. -1.
         25    2    1    2    0    0 -0.32170204265E+02  0.11860635544E+03  0.32185116449E+03  0.36652226311E+03  0.12509199685E+03 0.  0.
         23    2    1    2    0    0  0.32170204265E+02 -0.11860635544E+03  0.26328602446E+03  0.30394731803E+03  0.89230330420E+02 0.  0.
          5    1    3    3  502    0  0.19154550945E+02  0.12161041194E+03  0.21263820946E+03  0.24574065524E+03  0.41800000000E+01 0.  1.
         -5    1    3    3    0  502 -0.51324755211E+02 -0.30040565000E+01  0.10921295503E+03  0.12078160787E+03  0.41800000000E+01 0.  1.
        -11    1    4    4    0    0  0.37335876693E+02 -0.53110914701E+02  0.20859345346E+03  0.21846273315E+03  0.00000000000E+00 0.  1.
         11    1    4    4    0    0 -0.51656724279E+01 -0.65495440738E+02  0.54692571000E+02  0.85484584877E+02  0.00000000000E+00 0. -1.
</event>
<event>
 8    1  0.6493926E-009  0.1208710E+03  0.7561462E-02  0.1241667E+00
         -2   -1    0    0    0  501 -0.00000000000E+00  0.00000000000E+00  0.35177134792E+02  0.35177134792E+02  0.00000000000E+00 0. -1.
          2   -1    0    0  501    0  0.00000000000E+00 -0.00000000000E+00 -0.64120643414E+03  0.64120643414E+03  0.00000000000E+00 0.  1.
         25    2    1    2    0    0 -0.28287639578E+02  0.99987301665E+02 -0.33351422899E+03  0.37103704508E+03  0.12505637464E+03 0.  0.
         23    2    1    2    0    0  0.28287639578E+02 -0.99987301665E+02 -0.27251507036E+03  0.30534652385E+03  0.90412305614E+02 0.  0.
          5    1    3    3  502    0 -0.33022759341E+02 -0.41052973285E+01 -0.19387684945E+03  0.19675634997E+03  0.41800000000E+01 0. -1.
         -5    1    3    3    0  502  0.47351197623E+01  0.10409259899E+03 -0.13963737954E+03  0.17428069511E+03  0.41800000000E+01 0. -1.
        -11    1    4    4    0    0  0.16517343250E+02 -0.60669735601E+02 -0.53617180625E+02  0.82634384514E+02  0.00000000000E+00 0. -1.
         11    1    4    4    0    0  0.11770296329E+02 -0.39317566064E+02 -0.21889788973E+03  0.22271213933E+03  0.00000000000E+00 0.  1.
</event>
<event>
 8    1  0.6493926E-009  0.1110251E+03  0.7561462E-02  0.1258683E+00
          4   -1    0    0  501    0  0.00000000000E+00  0.00000000000E+00  0.69237889648E+02  0.69237889648E+02  0.00000000000E+00 0.  1.
         -4   -1    0    0    0  501 -0.00000000000E+00 -0.00000000000E+00 -0.30300319923E+03  0.30300319923E+03  0.00000000000E+00 0. -1.
         25    2    1    2    0    0  0.42904599084E+02  0.61067954905E+02 -0.20507997895E+03  0.25154640911E+03  0.12509076077E+03 0.  0.
         23    2    1    2    0    0 -0.42904599084E+02 -0.61067954905E+02 -0.28685330624E+02  0.12069467976E+03  0.90411602083E+02 0.  0.
          5    1    3    3  502    0  0.50030014587E+02 -0.27033597444E+02 -0.74744132655E+02  0.94010507480E+02  0.41800000000E+01 0. -1.
         -5    1    3    3    0  502 -0.71254155035E+01  0.88101552348E+02 -0.13033584630E+03  0.15753590163E+03  0.41800000000E+01 0. -1.
        -11    1    4    4    0    0 -0.93134780603E+01 -0.27579536500E+02  0.32269532400E+02  0.43459112145E+02  0.00000000000E+00 0.  1.
         11    1    4    4    0    0 -0.33591121023E+02 -0.33488418405E+02 -0.60954863024E+02  0.77235567617E+02  0.00000000000E+00 0. -1.
</event>
<event>
 8    1  0.6493926E-009  0.2601333E+03  0.7561462E-02  0.1107063E+00
         -2   -1    0    0    0  501 -0.00000000000E+00  0.00000000000E+00  0.14221472690E+04  0.14221472690E+04  0.00000000000E+00 0.  1.
          2   -1    0    0  501    0  0.00000000000E+00 -0.00000000000E+00 -0.76745054015E+02  0.76745054015E+02  0.00000000000E+00 0. -1.
         25    2    1    2    0    0  0.12990949835E+03  0.20344167783E+03  0.11310852201E+04  0.11632996933E+04  0.12508959684E+03 0.  0.
         23    2    1    2    0    0 -0.12990949835E+03 -0.20344167783E+03  0.21431699484E+03  0.33559262968E+03  0.91791311026E+02 0.  0.
          5    1    3    3  502    0 -0.14701371499E+02  0.60661627493E+02  0.38374722066E+03  0.38881276360E+03  0.41800000000E+01 0. -1.
         -5    1    3    3    0  502  0.14461086985E+03  0.14278005033E+03  0.74733799945E+03  0.77448692970E+03  0.41800000000E+01 0. -1.
        -11    1    4    4    0    0 -0.87232427564E+02 -0.62839210776E+02  0.62698438201E+02  0.12445624525E+03  0.00000000000E+00 0.  1.
         11    1    4    4    0    0 -0.42677070784E+02 -0.14060246705E+03  0.15161855664E+03  0.21113638442E+03  0.00000000000E+00 0. -1.
</event>
<event>
 8    1  0.6493926E-009  0.9318159E+02  0.7561462E-02  0.1295325E+00
          2   -1    0    0  501    0  0.00000000000E+00  0.00000000000E+00  0.10316791324E+03  0.10316791324E+03  0.00000000000E+00 0. -1.
         -2   -1    0    0    0  501 -0.00000000000E+00 -0.00000000000E+00 -0.11867120737E+03  0.11867120737E+03  0.00000000000E+00 0.  1.
         25    2    1    2    0    0 -0.35102379495E+02 -0.16915543792E+02 -0.19497167258E+02  0.13246272640E+03  0.12509165314E+03 0.  0.
         23    2    1    2    0    0  0.35102379495E+02  0.16915543792E+02  0.39938731304E+01  0.89376394218E+02  0.80336020270E+02 0.  0.
          5    1    3    3  502    0  0.46641430150E+02  0.21583066446E+01 -0.45261330627E+01  0.47096067505E+02  0.41800000000E+01 0.  1.
         -5    1    3    3    0  502 -0.81743809645E+02 -0.19073850437E+02 -0.14971034196E+02  0.85366658894E+02  0.41800000000E+01 0.  1.
        -11    1    4    4    0    0 -0.18243745078E+01  0.18394835146E+02  0.36012036672E+02  0.40479193269E+02  0.00000000000E+00 0. -1.
         11    1    4    4    0    0  0.36926754003E+02 -0.14792913539E+01 -0.32018163542E+02  0.48897200950E+02  0.00000000000E+00 0.  1.
</event>
<event>
 8    1  0.6493926E-009  0.1239628E+03  0.7561462E-02  0.1236699E+00
         -2   -1    0    0    0  501 -0.00000000000E+00  0.00000000000E+00  0.24318456555E+02  0.24318456555E+02  0.00000000000E+00 0. -1.
          2   -1    0    0  501    0  0.00000000000E+00 -0.00000000000E+00 -0.69525325130E+03  0.69525325130E+03  0.00000000000E+00 0.  1.
         25    2    1    2    0    0 -0.32609610466E+00 -0.68845440492E+02 -0.40711121153E+03  0.43142372293E+03  0.12508832533E+03 0.  0.
         23    2    1    2    0    0  0.32609610466E+00  0.68845440492E+02 -0.26382358321E+03  0.28814798493E+03  0.93201808690E+02 0.  0.
          5    1    3    3  502    0 -0.80803271101E+01  0.36042856239E+02 -0.12003425543E+03  0.12565856138E+03  0.41800000000E+01 0. -1.
         -5    1    3    3    0  502  0.77542310054E+01 -0.10488829673E+03 -0.28707695611E+03  0.30576516155E+03  0.41800000000E+01 0. -1.
        -11    1    4    4    0    0  0.15679866128E-01  0.87168783719E+02 -0.25120151738E+03  0.26589584321E+03  0.00000000000E+00 0.  1.
         11    1    4    4    0    0  0.31041623853E+00 -0.18323343227E+02 -0.12622065835E+02  0.22252141722E+02  0.00000000000E+00 0. -1.
</event>
<event>
 8    1  0.6493926E-009  0.1333979E+03  0.7561462E-02  0.1222499E+00
          2   -1    0    0  501    0  0.00000000000E+00  0.00000000000E+00  0.62734689867E+03  0.62734689867E+03  0.00000000000E+00 0. -1.
         -2   -1    0    0    0  501 -0.00000000000E+00 -0.00000000000E+00 -0.50586580516E+02  0.50586580516E+02  0.00000000000E+00 0.  1.
         25    2    1    2    0    0  0.15586589591E+02  0.11587399689E+03  0.45521754721E+03  0.48635273669E+03  0.12508494823E+03 0.  0.
         23    2    1    2    0    0 -0.15586589591E+02 -0.11587399689E+03  0.12154277095E+03  0.19158074249E+03  0.90889002599E+02 0.  0.
          5    1    3    3  502    0 -0.22648107642E+02  0.10808963828E+03  0.41765866920E+03  0.43203303467E+03  0.41800000000E+01 0. -1.
         -5    1    3    3    0  502  0.38234697232E+02  0.77843586099E+01  0.37558878005E+02  0.54319702028E+02  0.41800000000E+01 0. -1.
        -11    1    4    4    0    0 -0.10412434347E+02 -0.93245986276E+02  0.32083942136E+02  0.99159528481E+02  0.00000000000E+00 0.  1.
         11    1    4    4    0    0 -0.51741552438E+01 -0.22628010616E+02  0.89458828812E+02  0.92421214012E+02  0.00000000000E+00 0. -1.
</event>
<event>
 8    1  0.6493926E-009  0.9530069E+02  0.7561462E-02  0.1290500E+00
         -1   -1    0    0    0  501 -0.00000000000E+00  0.00000000000E+00  0.38596056945E+03  0.38596056945E+03  0.00000000000E+00 0.  1.
          1   -1    0    0  501    0  0.00000000000E+00 -0.00000000000E+00 -0.54355665106E+02  0.54355665106E+02  0.00000000000E+00 0. -1.
         25    2    1    2    0    0 -0.18079023619E+02  0.52211688525E+02  0.30033653037E+03  0.33000480852E+03  0.12509288810E+03 0.  0.
         23    2    1    2    0    0  0.18079023619E+02 -0.52211688525E+02  0.31268373972E+02  0.11031142604E+03  0.90210797528E+02 0.  0.
          5    1    3    3  502    0  0.49473033060E+02  0.36713034951E+02  0.95534077523E+02  0.11375262768E+03  0.41800000000E+01 0.  1.
         -5    1    3    3    0  502 -0.67552056679E+02  0.15498653574E+02  0.20480245285E+03  0.21625218084E+03  0.41800000000E+01 0.  1.
        -11    1    4    4    0    0 -0.28801907943E+01 -0.24529015101E+02  0.60229635369E+02  0.65096674704E+02  0.00000000000E+00 0.  1.
         11    1    4    4    0    0  0.20959214413E+02 -0.27682673424E+02 -0.28961261397E+02  0.45214751337E+02  0.00000000000E+00 0. -1.
</event>
<event>
 8    1  0.6493926E-009  0.1656560E+03  0.7561462E-02  0.1182455E+00
         -1   -1    0    0    0  501 -0.00000000000E+00  0.00000000000E+00  0.32143329445E+04  0.32143329445E+04  0.00000000000E+00 0.  1.
          1   -1    0    0  501    0  0.00000000000E+00 -0.00000000000E+00 -0.15602282029E+02  0.15602282029E+02  0.00000000000E+00 0. -1.
         25    2    1    2    0    0 -0.13056295422E+03 -0.48102933339E+02  0.26450551871E+04  0.26516646190E+04  0.12509089378E+03 0.  0.
         23    2    1    2    0    0  0.13056295422E+03  0.48102933339E+02  0.55367547538E+03  0.57827060753E+03  0.92085755033E+02 0.  0.
          5    1    3    3  502    0  0.13701646742E+02 -0.18578226515E+02  0.11744147702E+03  0.11976167395E+03  0.41800000000E+01 0.  1.
         -5    1    3    3    0  502 -0.14426460096E+03 -0.29524706824E+02  0.25276137101E+04  0.25319029450E+04  0.41800000000E+01 0.  1.
        -11    1    4    4    0    0  0.10835080552E+03  0.88262415829E+00  0.44070662685E+03  0.45383147426E+03  0.00000000000E+00 0. -1.
         11    1    4    4    0    0  0.22212148703E+02  0.47220309181E+02  0.11296884854E+03  0.12443913327E+03  0.00000000000E+00 0.  1.
</event>
<event>
 7    1  0.6493926E-009  0.1288344E+03  0.7561462E-02  0.1229196E+00
         -1   -1    0    0    0  501 -0.00000000000E+00  0.00000000000E+00  0.29348392874E+02  0.29348392874E+02  0.00000000000E+00 0.  1.
          1   -1    0    0  501    0  0.00000000000E+00 -0.00000000000E+00 -0.76181208645E+03  0.76181208645E+03  0.00000000000E+00 0. -1.
         23    2    1    2    0    0  0.77528926876E+02 -0.40679593087E+02 -0.19744535566E+03  0.23502725688E+03  0.92669192321E+02 0.  0.
          5    1    1    2  502    0  0.32569391251E+02  0.21168237375E+02 -0.11442336604E+03  0.12090921642E+03  0.41800000000E+01 0. -1.
         -5    1    1    2    0  502 -0.11009831813E+03  0.19511355713E+02 -0.42059497187E+03  0.43522400603E+03  0.41800000000E+01 0. -1.
        -11    1    3    3    0    0  0.97589135538E+01 -0.37624621904E+02 -0.17326105067E+02  0.42556344814E+02  0.00000000000E+00 0.  1.
         11    1    3    3    0    0  0.67770013322E+02 -0.30549711838E+01 -0.18011925060E+03  0.19247091206E+03  0.00000000000E+00 0. -1.
</event>
<event>
 8    1  0.6493926E-009  0.2084909E+03  0.7561462E-02  0.1142767E+00
         -3   -1    0    0    0  501 -0.00000000000E+00  0.00000000000E+00  0.52942808724E+03  0.52942808724E+03  0.00000000000E+00 0.  1.
          3   -1    0    0  501    0  0.00000000000E+00 -0.00000000000E+00 -0.20801712761E+03  0.20801712761E+03  0.00000000000E+00 0. -1.
         25    2    1    2    0    0  0.70430602023E+02  0.17532301682E+03  0.44106348332E+03  0.49587738187E+03  0.12513493357E+03 0.  0.
         23    2    1    2    0    0 -0.70430602023E+02 -0.17532301682E+03 -0.11965252369E+03  0.24156783299E+03  0.91321747583E+02 0.  0.
          5    1    3    3  502    0 -0.21045794345E+01  0.14440751911E+03  0.32301558577E+03  0.35385661203E+03  0.41800000000E+01 0.  1.
         -5    1    3    3    0  502  0.72535181457E+02  0.30915497706E+02  0.11804789755E+03  0.14202076983E+03  0.41800000000E+01 0.  1.
        -11    1    4    4    0    0 -0.18005377399E+02 -0.10096679984E+03 -0.16250725199E+02  0.10383917544E+03  0.00000000000E+00 0.  1.
         11    1    4    4    0    0 -0.52425224623E+02 -0.74356216975E+02 -0.10340179849E+03  0.13772865755E+03  0.00000000000E+00 0. -1.
</event>
<event>
 8    1  0.6493926E-009  0.1174563E+03  0.7561462E-02  0.1247353E+00
          4   -1    0    0  501    0  0.00000000000E+00  0.00000000000E+00  0.93987844849E+02  0.93987844849E+02  0.00000000000E+00 0. -1.
         -4   -1    0    0    0  501 -0.00000000000E+00 -0.00000000000E+00 -0.19425503490E+03  0.19425503490E+03  0.00000000000E+00 0.  1.
         25    2    1    2    0    0  0.63076870814E+02  0.24358601688E+02 -0.10192549059E+03  0.17493895381E+03  0.12507117502E+03 0.  0.
         23    2    1    2    0    0 -0.63076870814E+02 -0.24358601688E+02  0.16583005293E+01  0.11330392595E+03  0.90901026210E+02 0.  0.
          5    1    3    3  502    0  0.96040452971E+02  0.18021050786E+02 -0.10171791762E+03  0.14111177854E+03  0.41800000000E+01 0. -1.
         -5    1    3    3    0  502 -0.32963582156E+02  0.63375509022E+01 -0.20757296655E+00  0.33827175267E+02  0.41800000000E+01 0. -1.
        -11    1    4    4    0    0 -0.53435973697E+02 -0.51661151452E+02  0.22467708235E+02  0.77647123370E+02  0.00000000000E+00 0. -1.
         11    1    4    4    0    0 -0.96408971168E+01  0.27302549764E+02 -0.20809407705E+02  0.35656802575E+02  0.00000000000E+00 0.  1.
</event>
<event>
 8    1  0.6493926E-009  0.1313933E+03  0.7561462E-02  0.1225403E+00
          1   -1    0    0  501    0  0.00000000000E+00  0.00000000000E+00  0.34303592280E+02  0.34303592280E+02  0.00000000000E+00 0. -1.
         -1   -1    0    0    0  501 -0.00000000000E+00 -0.00000000000E+00 -0.60115676075E+03  0.60115676075E+03  0.00000000000E+00 0.  1.
         25    2    1    2    0    0  0.29071692480E+02 -0.75158652989E+02 -0.38243335727E+03  0.41036212320E+03  0.12509121866E+03 0.  0.
         23    2    1    2    0    0 -0.29071692480E+02  0.75158652989E+02 -0.18441981120E+03  0.22509822983E+03  0.10081944200E+03 0.  0.
          5    1    3    3  502    0  0.67303005023E+02 -0.12512459634E+02 -0.12429487806E+03  0.14196106947E+03  0.41800000000E+01 0.  1.
         -5    1    3    3    0  502 -0.38231312543E+02 -0.62646193355E+02 -0.25813847921E+03  0.26840105374E+03  0.41800000000E+01 0.  1.
        -11    1    4    4    0    0 -0.17082305265E+02  0.95535598999E+02 -0.17405477660E+03  0.19928351935E+03  0.00000000000E+00 0. -1.
         11    1    4    4    0    0 -0.11989387216E+02 -0.20376946010E+02 -0.10365034603E+02  0.25814710474E+02  0.00000000000E+00 0.  1.
</event>
<event>
 8    1  0.6493926E-009  0.1026537E+03  0.7561462E-02  0.1274813E+00
          2   -1    0    0  501    0  0.00000000000E+00  0.00000000000E+00  0.67603820102E+03  0.67603820102E+03  0.00000000000E+00 0. -1.
         -2   -1    0    0    0  501 -0.00000000000E+00 -0.00000000000E+00 -0.20126663106E+02  0.20126663106E+02  0.00000000000E+00 0.  1.
         25    2    1    2    0    0  0.20442795374E+02  0.13913337665E+02  0.26838516312E+03  0.29713534226E+03  0.12508927607E+03 0.  0.
         23    2    1    2    0    0 -0.20442795374E+02 -0.13913337665E+02  0.38752637480E+03  0.39902952187E+03  0.91849764912E+02 0.  0.
          5    1    3    3  502    0 -0.38590389978E+02  0.31260494597E+02  0.51559435495E+02  0.71709723955E+02  0.41800000000E+01 0.  1.
         -5    1    3    3    0  502  0.59033185352E+02 -0.17347156933E+02  0.21682572763E+03  0.22542561830E+03  0.41800000000E+01 0.  1.
        -11    1    4    4    0    0 -0.38357821835E+02 -0.44253110914E+02  0.20847983056E+03  0.21654907081E+03  0.00000000000E+00 0.  1.
         11    1    4    4    0    0  0.17915026462E+02  0.30339773249E+02  0.17904654424E+03  0.18248045106E+03  0.00000000000E+00 0. -1.
</event>
<event>
 8    1  0.6493926E-009  0.9326961E+02  0.7561462E-02  0.1295122E+00
         -1   -1    0    0    0  501 -0.00000000000E+00  0.00000000000E+00  0.19174143599E+03  0.19174143599E+03  0.00000000000E+00 0.  1.
          1   -1    0    0  501    0  0.00000000000E+00 -0.00000000000E+00 -0.78020450586E+02  0.78020450586E+02  0.00000000000E+00 0. -1.
         25    2    1    2    0    0 -0.46995074234E+01 -0.54918121135E+01 -0.33110670067E+01  0.12534364994E+03  0.12509125487E+03 0.  0.
         23    2    1    2    0    0  0.46995074234E+01  0.54918121135E+01  0.11703205241E+03  0.14441823663E+03  0.84308246399E+02 0.  0.
          5    1    3    3  502    0 -0.47256255022E+02 -0.31077789081E+02  0.31199077033E+02  0.64728953495E+02  0.41800000000E+01 0.  1.
         -5    1    3    3    0  502  0.42556747598E+02  0.25585976967E+02 -0.34510144040E+02  0.60614696446E+02  0.41800000000E+01 0.  1.
        -11    1    4    4    0    0 -0.36569670757E+02  0.11396560140E+02  0.79826937874E+02  0.88541303428E+02  0.00000000000E+00 0.  1.
         11    1    4    4    0    0  0.41269178180E+02 -0.59047480264E+01  0.37205114536E+02  0.55876933206E+02  0.00000000000E+00 0. -1.
</event>
<event>
 8    1  0.6493926E-009  0.1553370E+03  0.7561462E-02  0.1194064E+00
          2   -1    0    0  501    0  0.00000000000E+00  0.00000000000E+00  0.45625872589E+03  0.45625872589E+03  0.00000000000E+00 0. -1.
         -2   -1    0    0    0  501 -0.00000000000E+00 -0.00000000000E+00 -0.67824452506E+02  0.67824452506E+02  0.00000000000E+00 0.  1.
         25    2    1    2    0    0  0.26704975538E+02  0.12401971701E+03  0.12706706665E+03  0.21883300611E+03  0.12509116360E+03 0.  0.
         23    2    1    2    0    0 -0.26704975538E+02 -0.12401971701E+03  0.26136720674E+03  0.30525017229E+03  0.93652576032E+02 0.  0.
          5    1    3    3  502    0  0.61388632367E+02  0.81325114218E+02  0.28514145820E+02  0.10589082726E+03  0.41800000000E+01 0.  1.
         -5    1    3    3    0  502 -0.34683656830E+02  0.42694602797E+02  0.98552920828E+02  0.11294217885E+03  0.41800000000E+01 0.  1.
        -11    1    4    4    0    0 -0.54511547927E+02 -0.48178603470E+02  0.15897567577E+03  0.17483121053E+03  0.00000000000E+00 0. -1.
         11    1    4    4    0    0  0.27806572389E+02 -0.75841113544E+02  0.10239153097E+03  0.13041896176E+03  0.00000000000E+00 0.  1.
</event>
<event>
 8    1  0.6493926E-009  0.9930509E+02  0.7561462E-02  0.1281764E+00
         -1   -1    0    0    0  501 -0.00000000000E+00  0.00000000000E+00  0.33179765185E+03  0.33179765185E+03  0.00000000000E+00 0.  1.
          1   -1    0    0  501    0  0.00000000000E+00 -0.00000000000E+00 -0.56344719014E+02  0.56344719014E+02  0.00000000000E+00 0. -1.
         25    2    1    2    0    0  0.64940787641E+01  0.54903019197E+00  0.26991242337E+03  0.29754879829E+03  0.12506037175E+03 0.  0.
         23    2    1    2    0    0 -0.64940787641E+01 -0.54903019197E+00  0.55405094695E+01  0.90593572574E+02  0.90188822220E+02 0.  0.
          5    1    3    3  502    0  0.41579754303E+02  0.47098408893E+02  0.10322168711E+03  0.12091040144E+03  0.41800000000E+01 0. -1.
         -5    1    3    3    0  502 -0.35085675539E+02 -0.46549378701E+02  0.16669073626E+03  0.17663839684E+03  0.41800000000E+01 0. -1.
        -11    1    4    4    0    0  0.39481210765E+01  0.37520998343E+02  0.26301442078E+02  0.45991073396E+02  0.00000000000E+00 0.  1.
         11    1    4    4    0    0 -0.10442199841E+02 -0.38070028535E+02 -0.20760932609E+02  0.44602499178E+02  0.00000000000E+00 0. -1.
</event>
<event>
 8    1  0.6493926E-009  0.1059204E+03  0.7561462E-02  0.1268317E+00
          1   -1    0    0  501    0  0.00000000000E+00  0.00000000000E+00  0.43124036564E+03  0.43124036564E+03  0.00000000000E+00 0. -1.
         -1   -1    0    0    0  501 -0.00000000000E+00 -0.00000000000E+00 -0.45939749124E+02  0.45939749124E+02  0.00000000000E+00 0.  1.
         25    2    1    2    0    0 -0.31184884516E+02  0.62228553255E+02  0.30561174072E+03  0.33747742742E+03  0.12509031974E+03 0.  0.
         23    2    1    2    0    0  0.31184884516E+02 -0.62228553255E+02  0.79688875797E+02  0.13970268734E+03  0.91222990864E+02 0.  0.
          5    1    3    3  502    0 -0.79387448269E+02  0.38510142901E+02  0.20801457577E+03  0.22599321711E+03  0.41800000000E+01 0.  1.
         -5    1    3    3    0  502  0.48202563753E+02  0.23718410353E+02  0.97597164949E+02  0.11148421031E+03  0.41800000000E+01 0.  1.
        -11    1    4    4    0    0  0.65072097894E+01 -0.11622648863E+02 -0.20692908402E+02  0.24609473866E+02  0.00000000000E+00 0.  1.
         11    1    4    4    0    0  0.24677674727E+02 -0.50605904391E+02  0.10038178420E+03  0.11509321348E+03  0.00000000000E+00 0. -1.
</event>
<event>
 8    1  0.6493926E-009  0.1090034E+03  0.7561462E-02  0.1262427E+00
         -2   -1    0    0    0  501 -0.00000000000E+00  0.00000000000E+00  0.62978783991E+02  0.62978783991E+02  0.00000000000E+00 0.  1.
          2   -1    0    0  501    0  0.00000000000E+00 -0.00000000000E+00 -0.24087367564E+03  0.24087367564E+03  0.00000000000E+00 0. -1.
         25    2    1    2    0    0  0.19924912505E+02 -0.54864069389E+02 -0.95811102500E+02  0.16803250708E+03  0.12509231720E+03 0.  0.
         23    2    1    2    0    0 -0.19924912505E+02  0.54864069389E+02 -0.82083789151E+02  0.13581995256E+03  0.91116644049E+02 0.  0.
          5    1    3    3  502    0 -0.44135272730E+02 -0.54649333341E+02 -0.68704290318E+02  0.98347464846E+02  0.41800000000E+01 0. -1.
         -5    1    3    3    0  502  0.64060185235E+02 -0.21473604820E+00 -0.27106812182E+02  0.69685042230E+02  0.41800000000E+01 0. -1.
        -11    1    4    4    0    0  0.16185352638E+02  0.42160287487E+02 -0.86206213020E+02  0.97318891507E+02  0.00000000000E+00 0. -1.
         11    1    4    4    0    0 -0.36110265144E+02  0.12703781902E+02  0.41224238690E+01  0.38501061049E+02  0.00000000000E+00 0.  1.
</event>
<event>
 8    1  0.6493926E-009  0.1403958E+03  0.7561462E-02  0.1212797E+00
          3   -1    0    0  501    0  0.00000000000E+00  0.00000000000E+00  0.10749435618E+03  0.10749435618E+03  0.00000000000E+00 0. -1.
         -3   -1    0    0    0  501 -0.00000000000E+00 -0.00000000000E+00 -0.26897419404E+03  0.26897419404E+03  0.00000000000E+00 0.  1.
         25    2    1    2    0    0 -0.89722520872E+02 -0.91629934697E+02 -0.11562593580E+03  0.21322008959E+03  0.12508906384E+03 0.  0.
         23    2    1    2    0    0  0.89722520872E+02  0.91629934697E+02 -0.45853902058E+02  0.16324846063E+03  0.90007243493E+02 0.  0.
          5    1    3    3  502    0 -0.57822169536E+02 -0.37817407364E+01 -0.10375867318E+03  0.11891610283E+03  0.41800000000E+01 0.  1.
         -5    1    3    3    0  502 -0.31900351336E+02 -0.87848193960E+02 -0.11867262628E+02  0.94303986765E+02  0.41800000000E+01 0.  1.
        -11    1    4    4    0    0  0.42309215266E+02  0.54054482007E+02 -0.70064304517E+02  0.98086510229E+02  0.00000000000E+00 0.  1.
         11    1    4    4    0    0  0.47413305606E+02  0.37575452690E+02  0.24210402459E+02  0.65161950405E+02  0.00000000000E+00 0. -1.
</event>
<event>
 8    1  0.6493926E-009  0.1265523E+03  0.7561462E-02  0.1232663E+00
         -2   -1    0    0    0  501 -0.00000000000E+00  0.00000000000E+00  0.59061264456E+02  0.59061264456E+02  0.00000000000E+00 0.  1.
          2   -1    0    0  501    0  0.00000000000E+00 -0.00000000000E+00 -0.41508783013E+03  0.41508783013E+03  0.00000000000E+00 0. -1.
         25    2    1    2    0    0 -0.47986631427E+02 -0.70952205269E+02 -0.83911105846E+02  0.17328127870E+03  0.12509354753E+03 0.  0.
         23    2    1    2    0    0  0.47986631427E+02  0.70952205269E+02 -0.27211545982E+03  0.30086781588E+03  0.95591249239E+02 0.  0.
          5    1    3    3  502    0 -0.61201403297E+02 -0.59850419644E+01  0.55152377734E+01  0.61881521802E+02  0.41800000000E+01 0. -1.
         -5    1    3    3    0  502  0.13214771869E+02 -0.64967163305E+02 -0.89426343619E+02  0.11139975690E+03  0.41800000000E+01 0. -1.
        -11    1    4    4    0    0  0.69042923246E+02  0.23174687451E+02 -0.12382890101E+03  0.14365788566E+03  0.00000000000E+00 0.  1.
         11    1    4    4    0    0 -0.21056291818E+02  0.47777517818E+02 -0.14828655882E+03  0.15720993022E+03  0.00000000000E+00 0. -1.
</event>
<event>
 8    1  0.6493926E-009  0.1256722E+03  0.7561462E-02  0.1234022E+00
         -1   -1    0    0    0  501 -0.00000000000E+00  0.00000000000E+00  0.16399817151E+03  0.16399817151E+03  0.00000000000E+00 0. -1.
          1   -1    0    0  501    0  0.00000000000E+00 -0.00000000000E+00 -0.11212388328E+03  0.11212388328E+03  0.00000000000E+00 0.  1.
         25    2    1    2    0    0  0.70310833251E+02  0.28213655236E+02  0.98119452498E+01  0.14657332378E+03  0.12509133207E+03 0.  0.
         23    2    1    2    0    0 -0.70310833251E+02 -0.28213655236E+02  0.42062342976E+02  0.12954873102E+03  0.96301658333E+02 0.  0.
          5    1    3    3  502    0 -0.31435694055E+02  0.15655074063E+02 -0.18803260583E+02  0.40053953777E+02  0.41800000000E+01 0. -1.
         -5    1    3    3    0  502  0.10174652731E+03  0.12558581173E+02  0.28615205833E+02  0.10651937000E+03  0.41800000000E+01 0. -1.
        -11    1    4    4    0    0  0.22238908925E+01 -0.39850312839E+02 -0.79262911816E+01  0.40691758576E+02  0.00000000000E+00 0.  1.
         11    1    4    4    0    0 -0.72534724143E+02  0.11636657603E+02  0.49988634158E+02  0.88856972443E+02  0.00000000000E+00 0. -1.
</event>
<event>
 8    1  0.6493926E-009  0.1580857E+03  0.7561462E-02  0.1190875E+00
          1   -1    0    0  501    0  0.00000000000E+00  0.00000000000E+00  0.68504990379E+03  0.68504990379E+03  0.00000000000E+00 0. -1.
         -1   -1    0    0    0  501 -0.00000000000E+00 -0.00000000000E+00 -0.47202910647E+02  0.47202910647E+02  0.00000000000E+00 0.  1.
         25    2    1    2    0    0  0.25189303977E+02  0.13216554316E+03  0.43662865524E+03  0.47370283065E+03  0.12509019690E+03 0.  0.
         23    2    1    2    0    0 -0.25189303977E+02 -0.13216554316E+03  0.20121833790E+03  0.25854998378E+03  0.90868271535E+02 0.  0.
          5    1    3    3  502    0 -0.90598555453E+01 -0.12369516490E+02  0.15005627186E+03  0.15089547059E+03  0.41800000000E+01 0.  1.
         -5    1    3    3    0  502  0.34249159523E+02  0.14453505965E+03  0.28657238338E+03  0.32280736007E+03  0.41800000000E+01 0.  1.
        -11    1    4    4    0    0  0.24188833244E+02 -0.33135321842E+02  0.18653331316E+02  0.45066572717E+02  0.00000000000E+00 0.  1.
         11    1    4    4    0    0 -0.49378137222E+02 -0.99030221316E+02  0.18256500659E+03  0.21348341106E+03  0.00000000000E+00 0. -1.
</event>
<event>
 8    1  0.6493926E-009  0.1080190E+03  0.7561462E-02  0.1264283E+00
         -3   -1    0    0    0  501 -0.00000000000E+00  0.00000000000E+00  0.10826484381E+03  0.10826484381E+03  0.00000000000E+00 0.  1.
          3   -1    0    0  501    0  0.00000000000E+00 -0.00000000000E+00 -0.20844428116E+03  0.20844428116E+03  0.00000000000E+00 0. -1.
         25    2    1    2    0    0 -0.72137827270E+01 -0.85883510036E+02  0.66466329838E+01  0.15205130127E+03  0.12508958602E+03 0.  0.
         23    2    1    2    0    0  0.72137827270E+01  0.85883510036E+02 -0.10682607033E+03  0.16465782370E+03  0.90952590092E+02 0.  0.
          5    1    3    3  502    0 -0.15851634358E+02 -0.10231508025E+03 -0.32439654379E+02  0.10857925002E+03  0.41800000000E+01 0. -1.
         -5    1    3    3    0  502  0.86378516308E+01  0.16431570214E+02  0.39086287363E+02  0.43472051255E+02  0.41800000000E+01 0. -1.
        -11    1    4    4    0    0  0.21229172903E+02  0.38362935094E+02 -0.10643485595E+03  0.11511199387E+03  0.00000000000E+00 0. -1.
         11    1    4    4    0    0 -0.14015390176E+02  0.47520574942E+02 -0.39121438178E+00  0.49545829828E+02  0.00000000000E+00 0.  1.
</event>
<event>
 8    1  0.6493926E-009  0.8820287E+02  0.7561462E-02  0.1307263E+00
         -2   -1    0    0    0  501 -0.00000000000E+00  0.00000000000E+00  0.87374082508E+02  0.87374082508E+02  0.00000000000E+00 0.  1.
          2   -1    0    0  501    0  0.00000000000E+00 -0.00000000000E+00 -0.24972912004E+03  0.24972912004E+03  0.00000000000E+00 0. -1.
         25    2    1    2    0    0  0.55085701634E+02 -0.20801367749E+02  0.54443194768E+01  0.13835420097E+03  0.12508042567E+03 0.  0.
         23    2    1    2    0    0 -0.55085701634E+02  0.20801367749E+02 -0.16779935701E+03  0.19874900158E+03  0.88754774470E+02 0.  0.
          5    1    3    3  502    0  0.49283149894E+02  0.29464198745E+02 -0.40090361662E+02  0.70154667481E+02  0.41800000000E+01 0. -1.
         -5    1    3    3    0  502  0.58025517392E+01 -0.50265566494E+02  0.45534681139E+02  0.68199533489E+02  0.41800000000E+01 0. -1.
        -11    1    4    4    0    0 -0.28045355774E+02 -0.73869037418E+01 -0.15493225803E+03  0.15762332602E+03  0.00000000000E+00 0.  1.
         11    1    4    4    0    0 -0.27040345860E+02  0.28188271491E+02 -0.12867098976E+02  0.41125675556E+02  0.00000000000E+00 0. -1.
</event>
<event>
 8    1  0.6493926E-009  0.1131478E+03  0.7561462E-02  0.1254849E+00
         -2   -1    0    0    0  501 -0.00000000000E+00  0.00000000000E+00  0.16293722554E+02  0.16293722554E+02  0.00000000000E+00 0.  1.
          2   -1    0    0  501    0  0.00000000000E+00 -0.00000000000E+00 -0.10976375070E+04  0.10976375070E+04  0.00000000000E+00 0. -1.
         25    2    1    2    0    0 -0.89899354193E+01  0.71282574525E+02 -0.72742214186E+03  0.74158771691E+03  0.12508934823E+03 0.  0.
         23    2    1    2    0    0  0.89899354193E+01 -0.71282574525E+02 -0.35392164256E+03  0.37234351261E+03  0.90648430456E+02 0.  0.
          5    1    3    3  502    0  0.11019709086E+02  0.88371729005E+02 -0.68950748861E+03  0.69524747085E+03  0.41800000000E+01 0.  1.
         -5    1    3    3    0  502 -0.20009644506E+02 -0.17089154480E+02 -0.37914653249E+02  0.46340246062E+02  0.41800000000E+01 0.  1.
        -11    1    4    4    0    0  0.37595330953E+02 -0.72712164469E+02 -0.30360611911E+03  0.31444736178E+03  0.00000000000E+00 0. -1.
         11    1    4    4    0    0 -0.28605395534E+02  0.14295899441E+01 -0.50315523447E+02  0.57896150829E+02  0.00000000000E+00 0.  1.
</event>
<event>
 8    1  0.6493926E-009  0.1130062E+03  0.7561462E-02  0.1255102E+00
         -1   -1    0    0    0  501 -0.00000000000E+00  0.00000000000E+00  0.43759252539E+02  0.43759252539E+02  0.00000000000E+00 0.  1.
          1   -1    0    0  501    0  0.00000000000E+00 -0.00000000000E+00 -0.38909291191E+03  0.38909291191E+03  0.00000000000E+00 0. -1.
         25    2    1    2    0    0  0.40694493959E+02 -0.35957579666E+02 -0.26798539597E+03  0.30068437388E+03  0.12508369544E+03 0.  0.
         23    2    1    2    0    0 -0.40694493959E+02  0.35957579666E+02 -0.77348263399E+02  0.13216779058E+03  0.92393623377E+02 0.  0.
          5    1    3    3  502    0  0.25650669935E+02 -0.79582418237E+02 -0.12555494512E+03  0.15090670894E+03  0.41800000000E+01 0. -1.
         -5    1    3    3    0  502  0.15043824025E+02  0.43624838571E+02 -0.14243045086E+03  0.14977766493E+03  0.41800000000E+01 0. -1.
        -11    1    4    4    0    0 -0.19827045007E+02 -0.24780506009E+02 -0.13501964766E+00  0.31736468330E+02  0.00000000000E+00 0.  1.
         11    1    4    4    0    0 -0.20867448953E+02  0.60738085675E+02 -0.77213243752E+02  0.10043132225E+03  0.00000000000E+00 0. -1.
</event>
<event>
 8    1  0.6493926E-009  0.3183329E+03  0.7561462E-02  0.1076419E+00
         -1   -1    0    0    0  501 -0.00000000000E+00  0.00000000000E+00  0.46627452555E+02  0.46627452555E+02  0.00000000000E+00 0.  1.
          1   -1    0    0  501    0  0.00000000000E+00 -0.00000000000E+00 -0.23787929466E+04  0.23787929466E+04  0.00000000000E+00 0. -1.
         25    2    1    2    0    0  0.26286506476E+03 -0.16873443815E+03 -0.10438835599E+04  0.10967746626E+04  0.12510963540E+03 0.  0.
         23    2    1    2    0    0 -0.26286506476E+03  0.16873443815E+03 -0.12882819341E+04  0.13286457366E+04  0.89776381626E+02 0.  0.
          5    1    3    3  502    0  0.22542274035E+03 -0.14916386867E+03 -0.70181841471E+03  0.75208498935E+03  0.41800000000E+01 0. -1.
         -5    1    3    3    0  502  0.37442324412E+02 -0.19570569479E+02 -0.34206514523E+03  0.34468967323E+03  0.41800000000E+01 0. -1.
        -11    1    4    4    0    0 -0.20721780721E+03  0.86426801522E+02 -0.84018441416E+03  0.86966583320E+03  0.00000000000E+00 0.  1.
         11    1    4    4    0    0 -0.55647257551E+02  0.82307636625E+02 -0.44809751997E+03  0.45897990340E+03  0.00000000000E+00 0. -1.
</event>
<event>
 8    1  0.6493926E-009  0.9310880E+02  0.7561462E-02  0.1295493E+00
          1   -1    0    0  501    0  0.00000000000E+00  0.00000000000E+00  0.59470036090E+02  0.59470036090E+02  0.00000000000E+00 0. -1.
         -1   -1    0    0    0  501 -0.00000000000E+00 -0.00000000000E+00 -0.23035195102E+03  0.23035195102E+03  0.00000000000E+00 0.  1.
         25    2    1    2    0    0  0.20216420727E+02 -0.24744969818E+02 -0.13747582000E+03  0.18859560305E+03  0.12509069993E+03 0.  0.
         23    2    1    2    0    0 -0.20216420727E+02  0.24744969818E+02 -0.33406094931E+02  0.10122638406E+03  0.90054408287E+02 0.  0.
          5    1    3    3  502    0  0.31819987118E+02 -0.52634541882E+02 -0.14467560285E+03  0.15726223017E+03  0.41800000000E+01 0.  1.
         -5    1    3    3    0  502 -0.11603566391E+02  0.27889572064E+02  0.71997828518E+01  0.31333372880E+02  0.41800000000E+01 0.  1.
        -11    1    4    4    0    0  0.34163258488E+02  0.19763558083E+02 -0.22858749813E+02  0.45609745687E+02  0.00000000000E+00 0.  1.
         11    1    4    4    0    0 -0.54379679215E+02  0.49814117351E+01 -0.10547345119E+02  0.55616638369E+02  0.00000000000E+00 0. -1.
</event>
<event>
 8    1  0.6493926E-009  0.1400722E+03  0.7561462E-02  0.1213232E+00
         -1   -1    0    0    0  501 -0.00000000000E+00  0.00000000000E+00  0.43733013662E+03  0.43733013662E+03  0.00000000000E+00 0.  1.
          1   -1    0    0  501    0  0.00000000000E+00 -0.00000000000E+00 -0.75643160346E+02  0.75643160346E+02  0.00000000000E+00 0. -1.
         25    2    1    2    0    0 -0.79182676238E+02  0.85327471914E+02  0.31469969524E+03  0.35809808316E+03  0.12509062835E+03 0.  0.
         23    2    1    2    0    0  0.79182676238E+02 -0.85327471914E+02  0.46987281034E+02  0.15487521380E+03  0.90707516733E+02 0.  0.
          5    1    3    3  502    0 -0.86197380175E+02  0.36453054986E+02  0.28573782780E+03  0.30070316294E+03  0.41800000000E+01 0. -1.
         -5    1    3    3    0  502  0.70147039369E+01  0.48874416928E+02  0.28961867435E+02  0.57394920217E+02  0.41800000000E+01 0. -1.
        -11    1    4    4    0    0  0.72449645630E+02 -0.25652299903E+02 -0.27397145453E+01  0.76905771422E+02  0.00000000000E+00 0. -1.
         11    1    4    4    0    0  0.67330306084E+01 -0.59675172012E+02  0.49726995580E+02  0.77969442381E+02  0.00000000000E+00 0.  1.
</event>
<event>
 8    1  0.6493926E-009  0.1273089E+03  0.7561462E-02  0.1231504E+00
         -1   -1    0    0    0  501 -0.00000000000E+00  0.00000000000E+00  0.22060825949E+03  0.22060825949E+03  0.00000000000E+00 0.  1.
          1   -1    0    0  501    0  0.00000000000E+00 -0.00000000000E+00 -0.11303132212E+03  0.11303132212E+03  0.00000000000E+00 0. -1.
         25    2    1    2    0    0  0.13502509250E+02 -0.10842737980E+03  0.97981233257E+02  0.19283938381E+03  0.12509153220E+03 0.  0.
         23    2    1    2    0    0 -0.13502509250E+02  0.10842737980E+03  0.95957041175E+01  0.14080019780E+03  0.88282522149E+02 0.  0.
          5    1    3    3  502    0  0.27640915920E+02 -0.11302032704E+03  0.26097124749E+02  0.11931532541E+03  0.41800000000E+01 0.  1.
         -5    1    3    3    0  502 -0.14138406670E+02  0.45929472348E+01  0.71884108509E+02  0.73524058400E+02  0.41800000000E+01 0.  1.
        -11    1    4    4    0    0 -0.30249109307E+02  0.30179624756E+02 -0.29317729575E+02  0.51820339942E+02  0.00000000000E+00 0. -1.
         11    1    4    4    0    0  0.16746600058E+02  0.78247755048E+02  0.38913433692E+02  0.88979857863E+02  0.00000000000E+00 0.  1.
</event>
<event>
 8    1  0.6493926E-009  0.1030874E+03  0.7561462E-02  0.1273934E+00
         -2   -1    0    0    0  501 -0.00000000000E+00  0.00000000000E+00  0.63936711578E+02  0.63936711578E+02  0.00000000000E+00 0.  1.
          2   -1    0    0  501    0  0.00000000000E+00 -0.00000000000E+00 -0.21630253522E+03  0.21630253522E+03  0.00000000000E+00 0. -1.
         25    2    1    2    0    0 -0.43426897679E+02  0.36860500005E+01 -0.63895526961E+02  0.14706927258E+03  0.12508896900E+03 0.  0.
         23    2    1    2    0    0  0.43426897679E+02 -0.36860500005E+01 -0.88470296680E+02  0.13316997422E+03  0.89486123124E+02 0.  0.
          5    1    3    3  502    0 -0.65344745213E+02  0.49097492676E+02 -0.38069489552E+02  0.90262162332E+02  0.41800000000E+01 0. -1.
         -5    1    3    3    0  502  0.21917847534E+02 -0.45411442675E+02 -0.25826037410E+02  0.56807110247E+02  0.41800000000E+01 0. -1.
        -11    1    4    4    0    0 -0.11909815311E+02  0.11288557990E+02  0.10008226543E+02  0.19220817901E+02  0.00000000000E+00 0.  1.
         11    1    4    4    0    0  0.55336712990E+02 -0.14974607991E+02 -0.98478523223E+02  0.11394915632E+03  0.00000000000E+00 0. -1.
</event>
<event>
 8    1  0.6493926E-009  0.1230601E+03  0.7561462E-02  0.1238133E+00
          2   -1    0    0  501    0  0.00000000000E+00  0.00000000000E+00  0.80299160992E+03  0.80299160992E+03  0.00000000000E+00 0. -1.
         -2   -1    0    0    0  501 -0.00000000000E+00 -0.00000000000E+00 -0.21194512126E+02  0.21194512126E+02  0.00000000000E+00 0.  1.
         25    2    1    2    0    0  0.50552022234E+02  0.50654298643E+02  0.42235037590E+03  0.44626226722E+03  0.12509518856E+03 0.  0.
         23    2    1    2    0    0 -0.50552022234E+02 -0.50654298643E+02  0.35944672190E+03  0.37792385483E+03  0.92212413703E+02 0.  0.
          5    1    3    3  502    0  0.10223105635E+01 -0.39470821986E+02  0.14826494736E+03  0.15348927625E+03  0.41800000000E+01 0. -1.
         -5    1    3    3    0  502  0.49529711671E+02  0.90125120629E+02  0.27408542854E+03  0.29277299097E+03  0.41800000000E+01 0. -1.
        -11    1    4    4    0    0 -0.57394176299E+02 -0.53152342973E+01  0.10887470191E+03  0.12319108695E+03  0.00000000000E+00 0.  1.
         11    1    4    4    0    0  0.68421540644E+01 -0.45339064346E+02  0.25057201999E+03  0.25473276787E+03  0.00000000000E+00 0. -1.
</event>
<event>
 8    1  0.6493926E-009  0.1068493E+03  0.7561462E-02  0.1266518E+00
         -2   -1    0    0    0  501 -0.00000000000E+00  0.00000000000E+00  0.15082572903E+03  0.15082572903E+03  0.00000000000E+00 0.  1.
          2   -1    0    0  501    0  0.00000000000E+00 -0.00000000000E+00 -0.99157288949E+02  0.99157288949E+02  0.00000000000E+00 0. -1.
         25    2    1    2    0    0 -0.54436462321E+02 -0.64037743255E-01  0.36945664838E+02  0.14133580730E+03  0.12508995061E+03 0.  0.
         23    2    1    2    0    0  0.54436462321E+02  0.64037743255E-01  0.14722775239E+02  0.10864721067E+03  0.92866160391E+02 0.  0.
          5    1    3    3  502    0  0.91300986415E+01  0.32874612823E+02  0.57271683228E+02  0.66795336433E+02  0.41800000000E+01 0.  1.
         -5    1    3    3    0  502 -0.63566560962E+02 -0.32938650566E+02 -0.20326018390E+02  0.74540470868E+02  0.41800000000E+01 0.  1.
        -11    1    4    4    0    0  0.64143900935E+02 -0.33713575463E+02  0.85933494620E+01  0.72971849727E+02  0.00000000000E+00 0. -1.
         11    1    4    4    0    0 -0.97074386143E+01  0.33777613206E+02  0.61294257769E+01  0.35675360947E+02  0.00000000000E+00 0.  1.
</event>
<event>
 8    1  0.6493926E-009  0.1038379E+03  0.7561462E-02  0.1272426E+00
         -1   -1    0    0    0  501 -0.00000000000E+00  0.00000000000E+00  0.14652332588E+03  0.14652332588E+03  0.00000000000E+00 0.  1.
          1   -1    0    0  501    0  0.00000000000E+00 -0.00000000000E+00 -0.19005182119E+03  0.19005182119E+03  0.00000000000E+00 0. -1.
         25    2    1    2    0    0 -0.77565166554E+02 -0.19231503413E+02 -0.12203599850E+03  0.19216202200E+03  0.12508897626E+03 0.  0.
         23    2    1    2    0    0  0.77565166554E+02  0.19231503413E+02  0.78507503191E+02  0.14441312507E+03  0.91134608407E+02 0.  0.
          5    1    3    3  502    0 -0.58186903553E+02 -0.28886226102E+02 -0.14584352324E+03  0.15971203923E+03  0.41800000000E+01 0.  1.
         -5    1    3    3    0  502 -0.19378263001E+02  0.96547226896E+01  0.23807524742E+02  0.32449982766E+02  0.41800000000E+01 0.  1.
        -11    1    4    4    0    0 -0.15718993577E+02  0.22195127131E+02  0.24360032755E+02  0.36511938092E+02  0.00000000000E+00 0.  1.
         11    1    4    4    0    0  0.93284160131E+02 -0.29636237182E+01  0.54147470436E+02  0.10790118698E+03  0.00000000000E+00 0. -1.
</event>
<event>
 8    1  0.6493926E-009  0.1194956E+03  0.7561462E-02  0.1243931E+00
          1   -1    0    0  501    0  0.00000000000E+00  0.00000000000E+00  0.45495517478E+03  0.45495517478E+03  0.00000000000E+00 0. -1.
         -1   -1    0    0    0  501 -0.00000000000E+00 -0.00000000000E+00 -0.55464792587E+02  0.55464792587E+02  0.00000000000E+00 0.  1.
         25    2    1    2    0    0 -0.22651547512E+02  0.10810190453E+03  0.16110793538E+03  0.23193274630E+03  0.12505165971E+03 0.  0.
         23    2    1    2    0    0  0.22651547512E+02 -0.10810190453E+03  0.23838244681E+03  0.27848722107E+03  0.92357062425E+02 0.  0.
          5    1    3    3  502    0 -0.30874868128E+02  0.65419822614E+02  0.17224633750E+03  0.18686702185E+03  0.41800000000E+01 0.  1.
         -5    1    3    3    0  502  0.82233206164E+01  0.42682081921E+02 -0.11138402115E+02  0.45065724456E+02  0.41800000000E+01 0.  1.
        -11    1    4    4    0    0  0.39483157490E+02 -0.59312936520E+02  0.61156227420E+02  0.93899032563E+02  0.00000000000E+00 0.  1.
         11    1    4    4    0    0 -0.16831609979E+02 -0.48788968014E+02  0.17722621939E+03  0.18458818850E+03  0.00000000000E+00 0. -1.
</event>
<event>
 8    1  0.6493926E-009  0.1236315E+03  0.7561462E-02  0.1237224E+00
         -1   -1    0    0    0  501 -0.00000000000E+00  0.00000000000E+00  0.19521571625E+02  0.19521571625E+02  0.00000000000E+00 0. -1.
          1   -1    0    0  501    0  0.00000000000E+00 -0.00000000000E+00 -0.12028273345E+04  0.12028273345E+04  0.00000000000E+00 0.  1.
         25    2    1    2    0    0  0.70153594128E+02 -0.75397964878E+02 -0.77076546617E+03  0.78761213648E+03  0.12508834406E+03 0.  0.
         23    2    1    2    0    0 -0.70153594128E+02  0.75397964878E+02 -0.41254029673E+03  0.43473676967E+03  0.90554859599E+02 0.  0.
          5    1    3    3  502    0  0.49773347108E+02  0.12653136622E+02 -0.12010134081E+03  0.13068776688E+03  0.41800000000E+01 0.  1.
         -5    1    3    3    0  502  0.20380247020E+02 -0.88051101499E+02 -0.65066412536E+03  0.65692436960E+03  0.41800000000E+01 0.  1.
        -11    1    4    4    0    0 -0.59836370098E+02  0.50457626624E+02 -0.39469401548E+03  0.40238008043E+03  0.00000000000E+00 0.  1.
         11    1    4    4    0    0 -0.10317224031E+02  0.24940338254E+02 -0.17846281251E+02  0.32356689237E+02  0.00000000000E+00 0. -1.
</event>
<event>
 8    1  0.6493926E-009  0.1198029E+03  0.7561462E-02  0.1243423E+00
          1   -1    0    0  501    0  0.00000000000E+00  0.00000000000E+00  0.17597157327E+03  0.17597157327E+03  0.00000000000E+00 0. -1.
         -1   -1    0    0    0  501 -0.00000000000E+00 -0.00000000000E+00 -0.12487515125E+03  0.12487515125E+03  0.00000000000E+00 0.  1.
         25    2    1    2    0    0  0.79421521513E+02 -0.36456070898E+02  0.77000376845E+02  0.17091968848E+03  0.12509060193E+03 0.  0.
         23    2    1    2    0    0 -0.79421521513E+02  0.36456070898E+02 -0.25903954824E+02  0.12992703605E+03  0.92591558120E+02 0.  0.
          5    1    3    3  502    0  0.11010930639E+03 -0.86906734195E+01  0.61799655824E+02  0.12663434375E+03  0.41800000000E+01 0. -1.
         -5    1    3    3    0  502 -0.30687784877E+02 -0.27765397479E+02  0.15200721021E+02  0.44285344724E+02  0.41800000000E+01 0. -1.
        -11    1    4    4    0    0 -0.61415812045E+02  0.26325949178E+02 -0.60167329442E+02  0.89916990060E+02  0.00000000000E+00 0.  1.
         11    1    4    4    0    0 -0.18005709468E+02  0.10130121721E+02  0.34263374618E+02  0.40010045985E+02  0.00000000000E+00 0. -1.
</event>
<event>
 8    1  0.6493926E-009  0.1407202E+03  0.7561462E-02  0.1212363E+00
          2   -1    0    0  501    0  0.00000000000E+00  0.00000000000E+00  0.22354837013E+03  0.22354837013E+03  0.00000000000E+00 0. -1.
         -2   -1    0    0    0  501 -0.00000000000E+00 -0.00000000000E+00 -0.14217480869E+03  0.14217480869E+03  0.00000000000E+00 0.  1.
         25    2    1    2    0    0 -0.12245342448E+03  0.66882597085E+02  0.64323758036E+02  0.19812548121E+03  0.12509211606E+03 0.  0.
         23    2    1    2    0    0  0.12245342448E+03 -0.66882597085E+02  0.17049803405E+02  0.16759769761E+03  0.91269762189E+02 0.  0.
          5    1    3    3  502    0 -0.30188591860E+02  0.20796331983E+02 -0.37871928999E+02  0.52873376179E+02  0.41800000000E+01 0.  1.
         -5    1    3    3    0  502 -0.92264832616E+02  0.46086265102E+02  0.10219568703E+03  0.14525210504E+03  0.41800000000E+01 0.  1.
        -11    1    4    4    0    0  0.75672602559E+02 -0.28671844181E+02 -0.34709347442E+02  0.88052008646E+02  0.00000000000E+00 0.  1.
         11    1    4    4    0    0  0.46780821917E+02 -0.38210752904E+02  0.51759150847E+02  0.79545688966E+02  0.00000000000E+00 0. -1.
</event>
<event>
 8    1  0.6493926E-009  0.9101463E+02  0.7561462E-02  0.1300413E+00
          2   -1    0    0  501    0  0.00000000000E+00  0.00000000000E+00  0.20542476684E+03  0.20542476684E+03  0.00000000000E+00 0. -1.
         -2   -1    0    0    0  501 -0.00000000000E+00 -0.00000000000E+00 -0.78222295311E+02  0.78222295311E+02  0.00000000000E+00 0.  1.
         25    2    1    2    0    0  0.33273371439E+01 -0.55018471507E+02  0.35840799348E+02  0.14131178578E+03  0.12508538893E+03 0.  0.
         23    2    1    2    0    0 -0.33273371439E+01  0.55018471507E+02  0.91361672183E+02  0.14233527637E+03  0.94203356504E+02 0.  0.
          5    1    3    3  502    0 -0.30087922957E+02 -0.41421582521E+02 -0.34687939884E+02  0.61981902034E+02  0.41800000000E+01 0.  1.
         -5    1    3    3    0  502  0.33415260100E+02 -0.13596888986E+02  0.70528739232E+02  0.79329883747E+02  0.41800000000E+01 0.  1.
        -11    1    4    4    0    0  0.18435530108E+02  0.67008779039E+02  0.29185301825E+02  0.75377895177E+02  0.00000000000E+00 0.  1.
         11    1    4    4    0    0 -0.21762867252E+02 -0.11990307532E+02  0.62176370357E+02  0.66957381195E+02  0.00000000000E+00 0. -1.
</event>
<event>
 8    1  0.6493926E-009  0.1701091E+03  0.7561462E-02  0.1177734E+00
          1   -1    0    0  501    0  0.00000000000E+00  0.00000000000E+00  0.67225574332E+02  0.67225574332E+02  0.00000000000E+00 0. -1.
         -1   -1    0    0    0  501 -0.00000000000E+00 -0.00000000000E+00 -0.52603545318E+03  0.52603545318E+03  0.00000000000E+00 0.  1.
         25    2    1    2    0    0  0.95523090500E+01 -0.13821730645E+03 -0.34459384585E+03  0.39190712310E+03  0.12510397328E+03 0.  0.
         23    2    1    2    0    0 -0.95523090500E+01  0.13821730645E+03 -0.11421603300E+03  0.20135390441E+03  0.91119823399E+02 0.  0.
          5    1    3    3  502    0 -0.49248775733E+02 -0.77521968693E+02 -0.24229660094E+03  0.25915287529E+03  0.41800000000E+01 0.  1.
         -5    1    3    3    0  502  0.58801084783E+02 -0.60695337759E+02 -0.10229724490E+03  0.13275424781E+03  0.41800000000E+01 0.  1.
        -11    1    4    4    0    0  0.29316760230E+02  0.12129864178E+02 -0.10151877482E+02  0.33311659397E+02  0.00000000000E+00 0.  1.
         11    1    4    4    0    0 -0.38869069280E+02  0.12608744227E+03 -0.10406415552E+03  0.16804224502E+03  0.00000000000E+00 0. -1.
</event>
<event>
 8    1  0.6493926E-009  0.1270675E+03  0.7561462E-02  0.1231873E+00
         -1   -1    0    0    0  501 -0.00000000000E+00  0.00000000000E+00  0.19418012577E+03  0.19418012577E+03  0.00000000000E+00 0.  1.
          1   -1    0    0  501    0  0.00000000000E+00 -0.00000000000E+00 -0.12750716462E+03  0.12750716462E+03  0.00000000000E+00 0. -1.
         25    2    1    2    0    0 -0.32190285358E+02  0.65868753653E+02 -0.52633321510E+02  0.15425625383E+03  0.12509923314E+03 0.  0.
         23    2    1    2    0    0  0.32190285358E+02 -0.65868753653E+02  0.11930628266E+03  0.16743103656E+03  0.91783744437E+02 0.  0.
          5    1    3    3  502    0  0.17937450908E+02 -0.29848989532E+02 -0.27714123083E+01  0.35183340480E+02  0.41800000000E+01 0. -1.
         -5    1    3    3    0  502 -0.50127736265E+02  0.95717743185E+02 -0.49861909202E+02  0.11907291335E+03  0.41800000000E+01 0. -1.
        -11    1    4    4    0    0  0.57667412556E+02 -0.62814375728E+02  0.11197153254E+03  0.14074374007E+03  0.00000000000E+00 0.  1.
         11    1    4    4    0    0 -0.25477127198E+02 -0.30543779246E+01  0.73347501175E+01  0.26687296492E+02  0.00000000000E+00 0. -1.
</event>
<event>
 8    1  0.6493926E-009  0.1043505E+03  0.7561462E-02  0.1271405E+00
         -1   -1    0    0    0  501 -0.00000000000E+00  0.00000000000E+00  0.18707724748E+03  0.18707724748E+03  0.00000000000E+00 0.  1.
          1   -1    0    0  501    0  0.00000000000E+00 -0.00000000000E+00 -0.19347030733E+03  0.19347030733E+03  0.00000000000E+00 0. -1.
         25    2    1    2    0    0  0.45332919414E+02  0.55444641670E+02  0.13569228957E+03  0.19796389731E+03  0.12509246706E+03 0.  0.
         23    2    1    2    0    0 -0.45332919414E+02 -0.55444641670E+02 -0.14208534942E+03  0.18258365751E+03  0.89550899473E+02 0.  0.
          5    1    3    3  502    0  0.79203039117E+02  0.61716107390E+02  0.12744036984E+03  0.16229762654E+03  0.41800000000E+01 0.  1.
         -5    1    3    3    0  502 -0.33870119702E+02 -0.62714657205E+01  0.82519197270E+01  0.35666270763E+02  0.41800000000E+01 0.  1.
        -11    1    4    4    0    0 -0.23884408976E+02 -0.16446815762E+02  0.45397034179E+01  0.29352540742E+02  0.00000000000E+00 0.  1.
         11    1    4    4    0    0 -0.21448510438E+02 -0.38997825908E+02 -0.14662505284E+03  0.15323111677E+03  0.00000000000E+00 0. -1.
</event>
<event>
 8    1  0.6493926E-009  0.1545370E+03  0.7561462E-02  0.1195006E+00
         -3   -1    0    0    0  501 -0.00000000000E+00  0.00000000000E+00  0.22921181445E+02  0.22921181445E+02  0.00000000000E+00 0.  1.
          3   -1    0    0  501    0  0.00000000000E+00 -0.00000000000E+00 -0.10956135700E+04  0.10956135700E+04  0.00000000000E+00 0. -1.
         25    2    1    2    0    0 -0.10380946997E+03 -0.36138700210E+02 -0.48243129348E+03  0.51036309434E+03  0.12509245952E+03 0.  0.
         23    2    1    2    0    0  0.10380946997E+03  0.36138700210E+02 -0.59026109509E+03  0.60817165712E+03  0.96861718109E+02 0.  0.
          5    1    3    3  502    0 -0.11179783061E+03  0.15013354323E+02 -0.29468073807E+03  0.31556039918E+03  0.41800000000E+01 0. -1.
         -5    1    3    3    0  502  0.79883606359E+01 -0.51152054533E+02 -0.18775055541E+03  0.19480269517E+03  0.41800000000E+01 0. -1.
        -11    1    4    4    0    0  0.96677483203E+02  0.63705815409E+02 -0.51096091439E+03  0.52391413677E+03  0.00000000000E+00 0. -1.
         11    1    4    4    0    0  0.71319867683E+01 -0.27567115199E+02 -0.79300180701E+02  0.84257520346E+02  0.00000000000E+00 0.  1.
</event>
<event>
 8    1  0.6493926E-009  0.1042344E+03  0.7561462E-02  0.1271635E+00
          2   -1    0    0  501    0  0.00000000000E+00  0.00000000000E+00  0.27931676642E+03  0.27931676642E+03  0.00000000000E+00 0. -1.
         -2   -1    0    0    0  501 -0.00000000000E+00 -0.00000000000E+00 -0.71332140571E+02  0.71332140571E+02  0.00000000000E+00 0.  1.
         25    2    1    2    0    0 -0.58207211123E+02 -0.57812538395E+02  0.68164283950E+02  0.16437032349E+03  0.12506344236E+03 0.  0.
         23    2    1    2    0    0  0.58207211123E+02  0.57812538395E+02  0.13982034190E+03  0.18627858350E+03  0.91758452690E+02 0.  0.
          5    1    3    3  502    0 -0.37123140253E+02  0.10912190825E+02 -0.25273801509E+02  0.46405181754E+02  0.41800000000E+01 0. -1.
         -5    1    3    3    0  502 -0.21084070870E+02 -0.68724729219E+02  0.93438085459E+02  0.11796514174E+03  0.41800000000E+01 0. -1.
        -11    1    4    4    0    0  0.40546185306E+02  0.38094419722E+01  0.63485041933E+01  0.41216604621E+02  0.00000000000E+00 0.  1.
         11    1    4    4    0    0  0.17661025817E+02  0.54003096422E+02  0.13347183771E+03  0.14506197888E+03  0.00000000000E+00 0. -1.
</event>
<event>
 8    1  0.6493926E-009  0.2070838E+03  0.7561462E-02  0.1143896E+00
          1   -1    0    0  501    0  0.00000000000E+00  0.00000000000E+00  0.71489465794E+02  0.71489465794E+02  0.00000000000E+00 0. -1.
         -1   -1    0    0    0  501 -0.00000000000E+00 -0.00000000000E+00 -0.65915274502E+03  0.65915274502E+03  0.00000000000E+00 0.  1.
         25    2    1    2    0    0  0.74598026810E+02 -0.17128693797E+03 -0.32816394141E+03  0.39779809131E+03  0.12509064027E+03 0.  0.
         23    2    1    2    0    0 -0.74598026810E+02  0.17128693797E+03 -0.25949933781E+03  0.33284411951E+03  0.92418725609E+02 0.  0.
          5    1    3    3  502    0  0.66122055606E+02 -0.17544521805E+02 -0.76261704704E+02  0.10253417229E+03  0.41800000000E+01 0.  1.
         -5    1    3    3    0  502  0.84759712043E+01 -0.15374241616E+03 -0.25190223671E+03  0.29526391902E+03  0.41800000000E+01 0.  1.
        -11    1    4    4    0    0  0.51108875072E+01  0.19444375583E+02 -0.88167412361E+02  0.90430622664E+02  0.00000000000E+00 0.  1.
         11    1    4    4    0    0 -0.79708914317E+02  0.15184256238E+03 -0.17133192545E+03  0.24241349684E+03  0.00000000000E+00 0. -1.
</event>
<event>
 8    1  0.6493926E-009  0.1203713E+03  0.7561462E-02  0.1242486E+00
          2   -1    0    0  501    0  0.00000000000E+00  0.00000000000E+00  0.96522450284E+02  0.96522450284E+02  0.00000000000E+00 0. -1.
         -2   -1    0    0    0  501 -0.00000000000E+00 -0.00000000000E+00 -0.21058748579E+03  0.21058748579E+03  0.00000000000E+00 0.  1.
         25    2    1    2    0    0  0.81616995293E+02  0.28597515671E+02 -0.27623804567E+02  0.15456402644E+03  0.12509121419E+03 0.  0.
         23    2    1    2    0    0 -0.81616995293E+02 -0.28597515671E+02 -0.86441230942E+02  0.15254590964E+03  0.91208641683E+02 0.  0.
          5    1    3    3  502    0  0.59990423254E+02 -0.44556804940E+02 -0.21748517445E+02  0.77939913777E+02  0.41800000000E+01 0.  1.
         -5    1    3    3    0  502  0.21626572040E+02  0.73154320610E+02 -0.58752871226E+01  0.76624112660E+02  0.41800000000E+01 0.  1.
        -11    1    4    4    0    0 -0.65606470997E+02 -0.12482062544E+02 -0.10416368933E+03  0.12373392864E+03  0.00000000000E+00 0.  1.
         11    1    4    4    0    0 -0.16010524296E+02 -0.16115453127E+02  0.17722458388E+02  0.28811980999E+02  0.00000000000E+00 0. -1.
</event>
<event>
 8    1  0.6493926E-009  0.1196885E+03  0.7561462E-02  0.1243612E+00
         -4   -1    0    0    0  501 -0.00000000000E+00  0.00000000000E+00  0.40897428423E+02  0.40897428423E+02  0.00000000000E+00 0.  1.
          4   -1    0    0  501    0  0.00000000000E+00 -0.00000000000E+00 -0.55355388415E+03  0.55355388415E+03  0.00000000000E+00 0. -1.
         25    2    1    2    0    0  0.98085439665E+02  0.90782260219E+01 -0.34574450771E+03  0.38064463560E+03  0.12509159180E+03 0.  0.
         23    2    1    2    0    0 -0.98085439665E+02 -0.90782260219E+01 -0.16691194802E+03  0.21380667697E+03  0.90280280591E+02 0.  0.
          5    1    3    3  502    0  0.98642243561E+02 -0.21373437156E+02 -0.33189314631E+03  0.34692599931E+03  0.41800000000E+01 0.  1.
         -5    1    3    3    0  502 -0.55680389563E+00  0.30451663178E+02 -0.13851361403E+02  0.33718636295E+02  0.41800000000E+01 0.  1.
        -11    1    4    4    0    0 -0.27160132262E+02  0.17008580722E+02 -0.16532802039E+01  0.32088906776E+02  0.00000000000E+00 0.  1.
         11    1    4    4    0    0 -0.70925307404E+02 -0.26086806744E+02 -0.16525866782E+03  0.18171777019E+03  0.00000000000E+00 0. -1.
</event>
<event>
 8    1  0.6493926E-009  0.1157298E+03  0.7561462E-02  0.1250312E+00
          1   -1    0    0  501    0  0.00000000000E+00  0.00000000000E+00  0.22431237107E+03  0.22431237107E+03  0.00000000000E+00 0. -1.
         -1   -1    0    0    0  501 -0.00000000000E+00 -0.00000000000E+00 -0.75112866427E+02  0.75112866427E+02  0.00000000000E+00 0.  1.
         25    2    1    2    0    0 -0.45537477017E+02  0.27313883026E+02  0.13819126439E+03  0.19381647795E+03  0.12509313151E+03 0.  0.
         23    2    1    2    0    0  0.45537477017E+02 -0.27313883026E+02  0.11008240252E+02  0.10560875955E+03  0.90621844616E+02 0.  0.
          5    1    3    3  502    0  0.37792563163E+02 -0.17859641974E+01  0.12288264726E+02  0.39999266849E+02  0.41800000000E+01 0. -1.
         -5    1    3    3    0  502 -0.83330040179E+02  0.29099847223E+02  0.12590299967E+03  0.15381721110E+03  0.41800000000E+01 0. -1.
        -11    1    4    4    0    0 -0.32461241403E+01  0.29767200435E+02  0.28045026202E+01  0.30074719926E+02  0.00000000000E+00 0. -1.
         11    1    4    4    0    0  0.48783601157E+02 -0.57081083461E+02  0.82037376319E+01  0.75534039625E+02  0.00000000000E+00 0.  1.
</event>
<event>
 8    1  0.6493926E-009  0.1734980E+03  0.7561462E-02  0.1174248E+00
         -2   -1    0    0    0  501 -0.00000000000E+00  0.00000000000E+00  0.13266439180E+03  0.13266439180E+03  0.00000000000E+00 0. -1.
          2   -1    0    0  501    0  0.00000000000E+00 -0.00000000000E+00 -0.24164852382E+03  0.24164852382E+03  0.00000000000E+00 0.  1.
         25    2    1    2    0    0 -0.12706570664E+03  0.65916271244E+02 -0.48096584068E+02  0.19609017114E+03  0.12508966864E+03 0.  0.
         23    2    1    2    0    0  0.12706570664E+03 -0.65916271244E+02 -0.60887547952E+02  0.17822274448E+03  0.86979333961E+02 0.  0.
          5    1    3    3  502    0 -0.71946519872E+02  0.99514255691E+02 -0.16091471514E+02  0.12391850815E+03  0.41800000000E+01 0. -1.
         -5    1    3    3    0  502 -0.55119186768E+02 -0.33597984448E+02 -0.32005112554E+02  0.72171662988E+02  0.41800000000E+01 0. -1.
        -11    1    4    4    0    0 -0.32829256804E+01 -0.21473219826E+02 -0.30077213951E+02  0.37101422746E+02  0.00000000000E+00 0.  1.
         11    1    4    4    0    0  0.13034863232E+03 -0.44443051418E+02 -0.30810334001E+02  0.14112132174E+03  0.00000000000E+00 0. -1.
</event>
<event>
 8    1  0.6493926E-009  0.9441953E+02  0.7561462E-02  0.1292489E+00
          1   -1    0    0  501    0  0.00000000000E+00  0.00000000000E+00  0.25674876262E+03  0.25674876262E+03  0.00000000000E+00 0. -1.
         -1   -1    0    0    0  501 -0.00000000000E+00 -0.00000000000E+00 -0.98272799792E+02  0.98272799792E+02  0.00000000000E+00 0.  1.
         25    2    1    2    0    0 -0.72889524952E+01 -0.54137872422E+02 -0.29131948829E+02  0.13956047977E+03  0.12507765193E+03 0.  0.
         23    2    1    2    0    0  0.72889524952E+01  0.54137872422E+02  0.18760791166E+03  0.21546108265E+03  0.90789380213E+02 0.  0.
          5    1    3    3  502    0 -0.50332480835E+02 -0.58220176090E+02 -0.49482816267E+02  0.91591315291E+02  0.41800000000E+01 0. -1.
         -5    1    3    3    0  502  0.43043528340E+02  0.40823036685E+01  0.20350867438E+02  0.47969164477E+02  0.41800000000E+01 0. -1.
        -11    1    4    4    0    0 -0.60515083187E+01  0.54642606338E+02  0.19328689693E+03  0.20095337695E+03  0.00000000000E+00 0. -1.
         11    1    4    4    0    0  0.13340460814E+02 -0.50473391655E+00 -0.56789852708E+01  0.14507705703E+02  0.00000000000E+00 0.  1.
</event>
<event>
 8    1  0.6493926E-009  0.1308906E+03  0.7561462E-02  0.1226140E+00
          2   -1    0    0  501    0  0.00000000000E+00  0.00000000000E+00  0.35191086296E+02  0.35191086296E+02  0.00000000000E+00 0. -1.
         -2   -1    0    0    0  501 -0.00000000000E+00 -0.00000000000E+00 -0.69970733647E+03  0.69970733647E+03  0.00000000000E+00 0.  1.
         25    2    1    2    0    0  0.17509832921E+02 -0.95699593867E+02 -0.49232062950E+03  0.51719846639E+03  0.12509854072E+03 0.  0.
         23    2    1    2    0    0 -0.17509832921E+02  0.95699593867E+02 -0.17219562067E+03  0.21769995637E+03  0.90977649513E+02 0.  0.
          5    1    3    3  502    0  0.69426479231E+02 -0.50980059655E+02 -0.21844749585E+03  0.23485268434E+03  0.41800000000E+01 0.  1.
         -5    1    3    3    0  502 -0.51916646310E+02 -0.44719534211E+02 -0.27387313365E+03  0.28234578205E+03  0.41800000000E+01 0.  1.
        -11    1    4    4    0    0  0.12938698281E+02  0.52334974994E+02 -0.15151513703E+03  0.16082038512E+03  0.00000000000E+00 0.  1.
         11    1    4    4    0    0 -0.30448531202E+02  0.43364618873E+02 -0.20680483644E+02  0.56879571255E+02  0.00000000000E+00 0. -1.
</event>
<event>
 8    1  0.6493926E-009  0.1027021E+03  0.7561462E-02  0.1274714E+00
         -1   -1    0    0    0  501 -0.00000000000E+00  0.00000000000E+00  0.12360877532E+03  0.12360877532E+03  0.00000000000E+00 0.  1.
          1   -1    0    0  501    0  0.00000000000E+00 -0.00000000000E+00 -0.11425132248E+03  0.11425132248E+03  0.00000000000E+00 0. -1.
         25    2    1    2    0    0  0.37378425604E+02  0.18759497704E+02 -0.18461979604E+02  0.13318001312E+03  0.12508799202E+03 0.  0.
         23    2    1    2    0    0 -0.37378425604E+02 -0.18759497704E+02  0.27819432441E+02  0.10468008468E+03  0.91841895958E+02 0.  0.
          5    1    3    3  502    0  0.51424144477E+02 -0.41772788514E+02  0.51259343528E+01  0.66581950244E+02  0.41800000000E+01 0.  1.
         -5    1    3    3    0  502 -0.14045718873E+02  0.60532286218E+02 -0.23587913957E+02  0.66598062871E+02  0.41800000000E+01 0.  1.
        -11    1    4    4    0    0  0.14708266943E+01  0.21057792683E+02 -0.21648870715E+02  0.30236857758E+02  0.00000000000E+00 0.  1.
         11    1    4    4    0    0 -0.38849252298E+02 -0.39817290387E+02  0.49468303156E+02  0.74443226925E+02  0.00000000000E+00 0. -1.
</event>
<event>
 8    1  0.6493926E-009  0.1092488E+03  0.7561462E-02  0.1261967E+00
          1   -1    0    0  501    0  0.00000000000E+00  0.00000000000E+00  0.15161493230E+04  0.15161493230E+04  0.00000000000E+00 0. -1.
         -1   -1    0    0    0  501 -0.00000000000E+00 -0.00000000000E+00 -0.25015276597E+02  0.25015276597E+02  0.00000000000E+00 0.  1.
         25    2    1    2    0    0 -0.41243050386E+02 -0.35233037784E+02  0.13861089969E+04  0.13927986087E+04  0.12508979587E+03 0.  0.
         23    2    1    2    0    0  0.41243050386E+02  0.35233037784E+02  0.10502504957E+03  0.14836599093E+03  0.89665211050E+02 0.  0.
          5    1    3    3  502    0  0.27982253449E+01 -0.71786230948E+02  0.98228087043E+03  0.98491333316E+03  0.41800000000E+01 0. -1.
         -5    1    3    3    0  502 -0.44041275731E+02  0.36553193164E+02  0.40382812645E+03  0.40788527555E+03  0.41800000000E+01 0. -1.
        -11    1    4    4    0    0  0.31933380322E+02 -0.16942097615E+02  0.83818564955E+02  0.91281582378E+02  0.00000000000E+00 0. -1.
         11    1    4    4    0    0  0.93096700636E+01  0.52175135399E+02  0.21206484613E+02  0.57084408557E+02  0.00000000000E+00 0.  1.
</event>
<event>
 8    1  0.6493926E-009  0.1164727E+03  0.7561462E-02  0.1249032E+00
          2   -1    0    0  501    0  0.00000000000E+00  0.00000000000E+00  0.28665479402E+03  0.28665479402E+03  0.00000000000E+00 0. -1.
         -2   -1    0    0    0  501 -0.00000000000E+00 -0.00000000000E+00 -0.60081054192E+02  0.60081054192E+02  0.00000000000E+00 0.  1.
         25    2    1    2    0    0 -0.49376432887E+02 -0.29456467469E+02  0.18455124101E+03  0.23024537837E+03  0.12509219842E+03 0.  0.
         23    2    1    2    0    0  0.49376432887E+02  0.29456467469E+02  0.42022498815E+02  0.11649046983E+03  0.92186894702E+02 0.  0.
          5    1    3    3  502    0 -0.81909691506E+02 -0.13800531605E+01  0.16188602353E+03  0.18148184240E+03  0.41800000000E+01 0.  1.
         -5    1    3    3    0  502  0.32533258619E+02 -0.28076414309E+02  0.22665217483E+02  0.48763535970E+02  0.41800000000E+01 0.  1.
        -11    1    4    4    0    0 -0.26579119736E+02  0.14674140380E+02  0.52292270480E+01  0.30807869406E+02  0.00000000000E+00 0. -1.
         11    1    4    4    0    0  0.75955552624E+02  0.14782327089E+02  0.36793271767E+02  0.85682600427E+02  0.00000000000E+00 0.  1.
</event>
<event>
 8    1  0.6493926E-009  0.9713947E+02  0.7561462E-02  0.1286429E+00
          3   -1    0    0  501    0  0.00000000000E+00  0.00000000000E+00  0.45988287153E+03  0.45988287153E+03  0.00000000000E+00 0. -1.
         -3   -1    0    0    0  501 -0.00000000000E+00 -0.00000000000E+00 -0.29703374044E+02  0.29703374044E+02  0.00000000000E+00 0.  1.
         25    2    1    2    0    0 -0.37974395285E+01  0.41046369568E+02  0.24492731428E+03  0.27809413597E+03  0.12509090365E+03 0.  0.
         23    2    1    2    0    0  0.37974395285E+01 -0.41046369568E+02  0.18525218321E+03  0.21149210961E+03  0.93334431179E+02 0.  0.
          5    1    3    3  502    0  0.54130362414E+02  0.39901365360E+02  0.17287986779E+03  0.18554550973E+03  0.41800000000E+01 0. -1.
         -5    1    3    3    0  502 -0.57927801943E+02  0.11450042079E+01  0.72047446495E+02  0.92548626241E+02  0.41800000000E+01 0. -1.
        -11    1    4    4    0    0  0.23315008295E+02 -0.43286674151E+02  0.18543832322E+03  0.19184550422E+03  0.00000000000E+00 0. -1.
         11    1    4    4    0    0 -0.19517568766E+02  0.22403045836E+01 -0.18614001680E+00  0.19646605388E+02  0.00000000000E+00 0.  1.
</event>
<event>
 7    1  0.6493926E-009  0.1021776E+03  0.7561462E-02  0.1275782E+00
         -2   -1    0    0    0  501 -0.00000000000E+00  0.00000000000E+00  0.56101959168E+02  0.56101959168E+02  0.00000000000E+00 0.  1.
          2   -1    0    0  501    0  0.00000000000E+00 -0.00000000000E+00 -0.25289673534E+03  0.25289673534E+03  0.00000000000E+00 0. -1.
         23    2    1    2    0    0  0.14406814452E+02 -0.16225511252E+02 -0.14313992578E+03  0.17134659343E+03  0.91650385758E+02 0.  0.
          5    1    1    2  502    0  0.54609166060E+02  0.17525678622E+02 -0.27156476435E+02  0.63594473355E+02  0.41800000000E+01 0.  1.
         -5    1    1    2    0  502 -0.69015980512E+02 -0.13001673710E+01 -0.26498373954E+02  0.74057627719E+02  0.41800000000E+01 0.  1.
        -11    1    3    3    0    0  0.66011987275E+00 -0.45421114983E+02 -0.12776671745E+03  0.13560179768E+03  0.00000000000E+00 0. -1.
         11    1    3    3    0    0  0.13746694579E+02  0.29195603732E+02 -0.15373208326E+02  0.35744795752E+02  0.00000000000E+00 0.  1.
</event>
<event>
 8    1  0.6493926E-009  0.1315670E+03  0.7561462E-02  0.1225149E+00
          2   -1    0    0  501    0  0.00000000000E+00  0.00000000000E+00  0.47406390506E+03  0.47406390506E+03  0.00000000000E+00 0. -1.
         -2   -1    0    0    0  501 -0.00000000000E+00 -0.00000000000E+00 -0.77000057010E+02  0.77000057010E+02  0.00000000000E+00 0.  1.
         25    2    1    2    0    0 -0.83737243170E+02 -0.17484231197E+02  0.19978322820E+02  0.15285343814E+03  0.12508963161E+03 0.  0.
         23    2    1    2    0    0  0.83737243170E+02  0.17484231197E+02  0.37708552523E+03  0.39821052392E+03  0.95186678658E+02 0.  0.
          5    1    3    3  502    0 -0.66071259884E+01  0.47670588734E+02 -0.55519225887E+01  0.48625460291E+02  0.41800000000E+01 0. -1.
         -5    1    3    3    0  502 -0.77130117181E+02 -0.65154819931E+02  0.25530245409E+02  0.10422797785E+03  0.41800000000E+01 0. -1.
        -11    1    4    4    0    0  0.15623390589E+02  0.39267564790E+02  0.23898346742E+03  0.24269142894E+03  0.00000000000E+00 0. -1.
         11    1    4    4    0    0  0.68113852581E+02 -0.21783333593E+02  0.13810205780E+03  0.15551909499E+03  0.00000000000E+00 0.  1.
</event>
<event>
 8    1  0.6493926E-009  0.1340810E+03  0.7561462E-02  0.1221523E+00
          2   -1    0    0  501    0  0.00000000000E+00  0.00000000000E+00  0.12698224817E+04  0.12698224817E+04  0.00000000000E+00 0. -1.
         -2   -1    0    0    0  501 -0.00000000000E+00 -0.00000000000E+00 -0.22871491383E+02  0.22871491383E+02  0.00000000000E+00 0.  1.
         25    2    1    2    0    0  0.12779497977E+03  0.65430723282E+01  0.56573363170E+03  0.59336029161E+03  0.12509006746E+03 0.  0.
         23    2    1    2    0    0 -0.12779497977E+03 -0.65430723282E+01  0.68121735861E+03  0.69933368147E+03  0.92930832928E+02 0.  0.
          5    1    3    3  502    0  0.70686159175E+02  0.16261047768E+00  0.50387342715E+03  0.50882458916E+03  0.41800000000E+01 0. -1.
         -5    1    3    3    0  502  0.57108820591E+02  0.63804618505E+01  0.61860204545E+02  0.84535702452E+02  0.41800000000E+01 0. -1.
        -11    1    4    4    0    0 -0.51056501268E+00  0.11208311611E+02  0.75650774130E+01  0.13532084912E+02  0.00000000000E+00 0.  1.
         11    1    4    4    0    0 -0.12728441475E+03 -0.17751383939E+02  0.67365228120E+03  0.68580159655E+03  0.00000000000E+00 0. -1.
</event>
<event>
 8    1  0.6493926E-009  0.1124830E+03  0.7561462E-02  0.1256040E+00
         -1   -1    0    0    0  501 -0.00000000000E+00  0.00000000000E+00  0.60507405212E+02  0.60507405212E+02  0.00000000000E+00 0.  1.
          1   -1    0    0  501    0  0.00000000000E+00 -0.00000000000E+00 -0.32894267718E+03  0.32894267718E+03  0.00000000000E+00 0. -1.
         25    2    1    2    0    0 -0.30518580445E+02 -0.53999056520E+02 -0.53249632058E+02  0.14942891652E+03  0.12508475495E+03 0.  0.
         23    2    1    2    0    0  0.30518580445E+02  0.53999056520E+02 -0.21518563991E+03  0.24002116587E+03  0.86359820426E+02 0.  0.
          5    1    3    3  502    0 -0.48660807971E+01  0.39992181998E+02 -0.55906226261E+01  0.40887416458E+02  0.41800000000E+01 0. -1.
         -5    1    3    3    0  502 -0.25652499648E+02 -0.93991238518E+02 -0.47659009432E+02  0.10854150006E+03  0.41800000000E+01 0. -1.
        -11    1    4    4    0    0 -0.99226319162E+01 -0.81194376032E+01 -0.42432343757E+00  0.12828247796E+02  0.00000000000E+00 0.  1.
         11    1    4    4    0    0  0.40441212362E+02  0.62118494123E+02 -0.21476131647E+03  0.22719291807E+03  0.00000000000E+00 0. -1.
</event>
<event>
 8    1  0.6493926E-009  0.8753592E+02  0.7561462E-02  0.1308931E+00
          1   -1    0    0  501    0  0.00000000000E+00  0.00000000000E+00  0.83431876429E+02  0.83431876429E+02  0.00000000000E+00 0. -1.
         -1   -1    0    0    0  501 -0.00000000000E+00 -0.00000000000E+00 -0.20629201788E+03  0.20629201788E+03  0.00000000000E+00 0.  1.
         25    2    1    2    0    0  0.50973166272E+02 -0.40175533169E+02 -0.10777949727E+03  0.17741711539E+03  0.12509226857E+03 0.  0.
         23    2    1    2    0    0 -0.50973166272E+02  0.40175533169E+02 -0.15080644180E+02  0.11230677892E+03  0.90404920314E+02 0.  0.
          5    1    3    3  502    0 -0.17670325416E+02 -0.35262710278E+02 -0.10055375016E+03  0.10809360854E+03  0.41800000000E+01 0.  1.
         -5    1    3    3    0  502  0.68643491688E+02 -0.49128228907E+01 -0.72257471056E+01  0.69323506843E+02  0.41800000000E+01 0.  1.
        -11    1    4    4    0    0 -0.30611538785E+02  0.32647404923E+02  0.35590967658E+02  0.57180733939E+02  0.00000000000E+00 0. -1.
         11    1    4    4    0    0 -0.20361627487E+02  0.75281282462E+01 -0.50671611838E+02  0.55126044980E+02  0.00000000000E+00 0.  1.
</event>
<event>
 8    1  0.6493926E-009  0.9573264E+02  0.7561462E-02  0.1289534E+00
         -2   -1    0    0    0  501 -0.00000000000E+00  0.00000000000E+00  0.27286893401E+02  0.27286893401E+02  0.00000000000E+00 0.  1.
          2   -1    0    0  501    0  0.00000000000E+00 -0.00000000000E+00 -0.48030159732E+03  0.48030159732E+03  0.00000000000E+00 0. -1.
         25    2    1    2    0    0  0.54280938478E+01 -0.20728471010E+02 -0.19076866973E+03  0.22912568687E+03  0.12508701498E+03 0.  0.
         23    2    1    2    0    0 -0.54280938478E+01  0.20728471010E+02 -0.26224603419E+03  0.27846280386E+03  0.91156003477E+02 0.  0.
          5    1    3    3  502    0  0.50151503814E+02  0.17991717776E+02 -0.38940120451E+02  0.66126247618E+02  0.41800000000E+01 0. -1.
         -5    1    3    3    0  502 -0.44723409967E+02 -0.38720188786E+02 -0.15182854928E+03  0.16299943925E+03  0.41800000000E+01 0. -1.
        -11    1    4    4    0    0  0.30355169136E+02 -0.95715037439E+01 -0.38967892639E+02  0.50314477379E+02  0.00000000000E+00 0.  1.
         11    1    4    4    0    0 -0.35783262984E+02  0.30299974754E+02 -0.22327814155E+03  0.22814832648E+03  0.00000000000E+00 0. -1.
</event>
<event>
 8    1  0.6493926E-009  0.1322667E+03  0.7561462E-02  0.1224131E+00
          2   -1    0    0  501    0  0.00000000000E+00  0.00000000000E+00  0.80348663877E+03  0.80348663877E+03  0.00000000000E+00 0. -1.
         -2   -1    0    0    0  501 -0.00000000000E+00 -0.00000000000E+00 -0.23366724703E+02  0.23366724703E+02  0.00000000000E+00 0.  1.
         25    2    1    2    0    0 -0.32946580847E+01  0.83998863359E+02  0.44465493963E+03  0.46950401439E+03  0.12509732360E+03 0.  0.
         23    2    1    2    0    0  0.32946580847E+01 -0.83998863359E+02  0.33546497443E+03  0.35734934908E+03  0.89973020396E+02 0.  0.
          5    1    3    3  502    0 -0.84020141705E+00 -0.29430617014E+02  0.44248938536E+02  0.53313301510E+02  0.41800000000E+01 0.  1.
         -5    1    3    3    0  502 -0.24544566676E+01  0.11342948037E+03  0.40040600109E+03  0.41619071288E+03  0.41800000000E+01 0.  1.
        -11    1    4    4    0    0 -0.25277863591E+02  0.67155511851E+01  0.10093772843E+03  0.10427125220E+03  0.00000000000E+00 0. -1.
         11    1    4    4    0    0  0.28572521676E+02 -0.90714414544E+02  0.23452724600E+03  0.25307809688E+03  0.00000000000E+00 0.  1.
</event>
<event>
 8    1  0.6493926E-009  0.8441895E+02  0.7561462E-02  0.1316959E+00
          2   -1    0    0  501    0  0.00000000000E+00  0.00000000000E+00  0.11830354143E+04  0.11830354143E+04  0.00000000000E+00 0. -1.
         -2   -1    0    0    0  501 -0.00000000000E+00 -0.00000000000E+00 -0.13773724322E+02  0.13773724322E+02  0.00000000000E+00 0.  1.
         25    2    1    2    0    0  0.22261498389E+02  0.13283316135E+02  0.96150310341E+03  0.96995213667E+03  0.12508760435E+03 0.  0.
         23    2    1    2    0    0 -0.22261498389E+02 -0.13283316135E+02  0.20775858655E+03  0.22685700193E+03  0.87340988338E+02 0.  0.
          5    1    3    3  502    0 -0.15332948269E+02  0.50630225514E+02  0.21106301790E+03  0.21763177379E+03  0.41800000000E+01 0.  1.
         -5    1    3    3    0  502  0.37594446658E+02 -0.37346909379E+02  0.75044008551E+03  0.75232036288E+03  0.41800000000E+01 0.  1.
        -11    1    4    4    0    0 -0.35238487157E+02  0.94105144470E+01  0.19383775968E+03  0.19723941249E+03  0.00000000000E+00 0. -1.
         11    1    4    4    0    0  0.12976988768E+02 -0.22693830582E+02  0.13920826863E+02  0.29617589445E+02  0.00000000000E+00 0.  1.
</event>
<event>
 8    1  0.6493926E-009  0.3601559E+03  0.7561462E-02  0.1058522E+00
          2   -1    0    0  501    0  0.00000000000E+00  0.00000000000E+00  0.19154053923E+03  0.19154053923E+03  0.00000000000E+00 0. -1.
         -2   -1    0    0    0  501 -0.00000000000E+00 -0.00000000000E+00 -0.70182488962E+03  0.70182488962E+03  0.00000000000E+00 0.  1.
         25    2    1    2    0    0 -0.12124289833E+03  0.32716807824E+03 -0.22287937785E+03  0.43250447591E+03  0.12508442266E+03 0.  0.
         23    2    1    2    0    0  0.12124289833E+03 -0.32716807824E+03 -0.28740497254E+03  0.46086095295E+03  0.89735209924E+02 0.  0.
          5    1    3    3  502    0 -0.24449318103E+02  0.19921225783E+03 -0.75109055001E+02  0.21434116582E+03  0.41800000000E+01 0.  1.
         -5    1    3    3    0  502 -0.96793580224E+02  0.12795582042E+03 -0.14777032285E+03  0.21816331008E+03  0.41800000000E+01 0.  1.
        -11    1    4    4    0    0  0.12336656043E+03 -0.22279745244E+03 -0.18636123740E+03  0.31557649446E+03  0.00000000000E+00 0. -1.
         11    1    4    4    0    0 -0.21236620994E+01 -0.10437062580E+03 -0.10104373513E+03  0.14528445849E+03  0.00000000000E+00 0.  1.
</event>
<event>
 8    1  0.6493926E-009  0.1058104E+03  0.7561462E-02  0.1268531E+00
         -3   -1    0    0    0  501 -0.00000000000E+00  0.00000000000E+00  0.16049568929E+02  0.16049568929E+02  0.00000000000E+00 0.  1.
          3   -1    0    0  501    0  0.00000000000E+00 -0.00000000000E+00 -0.96929782747E+03  0.96929782747E+03  0.00000000000E+00 0. -1.
         25    2    1    2    0    0  0.18965799998E+02  0.43710981241E+02 -0.69541941156E+03  0.70818152641E+03  0.12507023997E+03 0.  0.
         23    2    1    2    0    0 -0.18965799998E+02 -0.43710981241E+02 -0.25782884698E+03  0.27716586999E+03  0.89860189737E+02 0.  0.
          5    1    3    3  502    0 -0.62617777227E+01  0.79426335487E+02 -0.30361275634E+03  0.31392026192E+03  0.41800000000E+01 0. -1.
         -5    1    3    3    0  502  0.25227577721E+02 -0.35715354247E+02 -0.39180665522E+03  0.39426126449E+03  0.41800000000E+01 0. -1.
        -11    1    4    4    0    0  0.27074169846E+02 -0.28776853887E+02 -0.18860418603E+03  0.19269835750E+03  0.00000000000E+00 0. -1.
         11    1    4    4    0    0 -0.46039969844E+02 -0.14934127353E+02 -0.69224660949E+02  0.84467512492E+02  0.00000000000E+00 0.  1.
</event>
<event>
 8    1  0.6493926E-009  0.1566416E+03  0.7561462E-02  0.1192541E+00
         -2   -1    0    0    0  501 -0.00000000000E+00  0.00000000000E+00  0.28730817555E+03  0.28730817555E+03  0.00000000000E+00 0.  1.
          2   -1    0    0  501    0  0.00000000000E+00 -0.00000000000E+00 -0.95235747562E+02  0.95235747562E+02  0.00000000000E+00 0. -1.
         25    2    1    2    0    0 -0.71693835947E+02 -0.84436155420E+02  0.15450314054E+03  0.22757033449E+03  0.12509023242E+03 0.  0.
         23    2    1    2    0    0  0.71693835947E+02  0.84436155420E+02  0.37569287451E+02  0.15497358863E+03  0.10166558591E+03 0.  0.
          5    1    3    3  502    0 -0.10118949255E+03 -0.36697719132E+02  0.79863874376E+02  0.13409603582E+03  0.41800000000E+01 0.  1.
         -5    1    3    3    0  502  0.29495656603E+02 -0.47738436288E+02  0.74639266166E+02  0.93474298668E+02  0.41800000000E+01 0.  1.
        -11    1    4    4    0    0  0.79539371040E+02  0.16916138889E+02  0.11299193937E+02  0.82099568110E+02  0.00000000000E+00 0.  1.
         11    1    4    4    0    0 -0.78455350926E+01  0.67520016532E+02  0.26270093514E+02  0.72874020519E+02  0.00000000000E+00 0. -1.
</event>
<event>
 8    1  0.6493926E-009  0.1341108E+03  0.7561462E-02  0.1221480E+00
          3   -1    0    0  501    0  0.00000000000E+00  0.00000000000E+00  0.14583135309E+03  0.14583135309E+03  0.00000000000E+00 0. -1.
         -3   -1    0    0    0  501 -0.00000000000E+00 -0.00000000000E+00 -0.16132897749E+03  0.16132897749E+03  0.00000000000E+00 0.  1.
         25    2    1    2    0    0  0.81745241107E+02  0.53947936111E+02  0.43117538950E+02  0.16461902645E+03  0.12509051703E+03 0.  0.
         23    2    1    2    0    0 -0.81745241107E+02 -0.53947936111E+02 -0.58615163350E+02  0.14254130414E+03  0.85379281777E+02 0.  0.
          5    1    3    3  502    0 -0.12595362454E+02  0.61195673529E+02  0.60383514645E+01  0.62908566208E+02  0.41800000000E+01 0.  1.
         -5    1    3    3    0  502  0.94340603561E+02 -0.72477374176E+01  0.37079187486E+02  0.10171046024E+03  0.41800000000E+01 0.  1.
        -11    1    4    4    0    0 -0.17525723493E+02  0.10071809576E+02 -0.46948254725E+02  0.51114879965E+02  0.00000000000E+00 0.  1.
         11    1    4    4    0    0 -0.64219517613E+02 -0.64019745687E+02 -0.11666908625E+02  0.91426424174E+02  0.00000000000E+00 0. -1.
</event>
<event>
 8    1  0.6493926E-009  0.1538923E+03  0.7561462E-02  0.1195770E+00
         -1   -1    0    0    0  501 -0.00000000000E+00  0.00000000000E+00  0.76463714033E+02  0.76463714033E+02  0.00000000000E+00 0.  1.
          1   -1    0    0  501    0  0.00000000000E+00 -0.00000000000E+00 -0.51242283798E+03  0.51242283798E+03  0.00000000000E+00 0. -1.
         25    2    1    2    0    0  0.77338466583E+02 -0.11213070579E+03 -0.36988489836E+03  0.41354258913E+03  0.12509237146E+03 0.  0.
         23    2    1    2    0    0 -0.77338466583E+02  0.11213070579E+03 -0.66074225586E+02  0.17534396288E+03  0.88459982127E+02 0.  0.
          5    1    3    3  502    0  0.12982608298E+02  0.24785069580E+01  0.61572602723E+01  0.15168235528E+02  0.41800000000E+01 0. -1.
         -5    1    3    3    0  502  0.64355858285E+02 -0.11460921274E+03 -0.37604215863E+03  0.39837435361E+03  0.41800000000E+01 0. -1.
        -11    1    4    4    0    0  0.20014209210E+02  0.22055001782E+02 -0.11631818297E+02  0.31973283704E+02  0.00000000000E+00 0. -1.
         11    1    4    4    0    0 -0.97352675793E+02  0.90075704003E+02 -0.54442407289E+02  0.14337067918E+03  0.00000000000E+00 0.  1.
</event>
<event>
 8    1  0.6493926E-009  0.9374740E+02  0.7561462E-02  0.1294022E+00
          1   -1    0    0  501    0  0.00000000000E+00  0.00000000000E+00  0.71778110453E+03  0.71778110453E+03  0.00000000000E+00 0. -1.
         -1   -1    0    0    0  501 -0.00000000000E+00 -0.00000000000E+00 -0.18160407824E+02  0.18160407824E+02  0.00000000000E+00 0.  1.
         25    2    1    2    0    0 -0.12998498386E+02  0.21117073495E+02  0.32812862839E+03  0.35203789151E+03  0.12508952208E+03 0.  0.
         23    2    1    2    0    0  0.12998498386E+02 -0.21117073495E+02  0.37149206832E+03  0.38390362085E+03  0.93598832917E+02 0.  0.
          5    1    3    3  502    0 -0.29168569597E+01 -0.34052153193E+02  0.26606796418E+03  0.26828658400E+03  0.41800000000E+01 0.  1.
         -5    1    3    3    0  502 -0.10081641426E+02  0.55169226688E+02  0.62060664215E+02  0.83751307512E+02  0.41800000000E+01 0.  1.
        -11    1    4    4    0    0 -0.36035445016E+02 -0.30126956224E+02  0.18170894241E+03  0.18768144964E+03  0.00000000000E+00 0.  1.
         11    1    4    4    0    0  0.49033943402E+02  0.90098827293E+01  0.18978312591E+03  0.19622217120E+03  0.00000000000E+00 0. -1.
</event>
<event>
 8    1  0.6493926E-009  0.2177791E+03  0.7561462E-02  0.1135550E+00
          3   -1    0    0  501    0  0.00000000000E+00  0.00000000000E+00  0.35824139515E+02  0.35824139515E+02  0.00000000000E+00 0. -1.
         -3   -1    0    0    0  501 -0.00000000000E+00 -0.00000000000E+00 -0.16823685061E+04  0.16823685061E+04  0.00000000000E+00 0.  1.
         25    2    1    2    0    0  0.15351107550E+03  0.11199545654E+03 -0.12376795852E+04  0.12584146820E+04  0.12509246114E+03 0.  0.
         23    2    1    2    0    0 -0.15351107550E+03 -0.11199545654E+03 -0.40886478144E+03  0.45977796360E+03  0.90092917177E+02 0.  0.
          5    1    3    3  502    0  0.91010691353E+02  0.13196426677E+03 -0.93792247652E+03  0.95153221596E+03  0.41800000000E+01 0.  1.
         -5    1    3    3    0  502  0.62500384147E+02 -0.19968810233E+02 -0.29975710866E+03  0.30688246609E+03  0.41800000000E+01 0.  1.
        -11    1    4    4    0    0 -0.12048085215E+03 -0.12531608397E+03 -0.35377516171E+03  0.39417841351E+03  0.00000000000E+00 0. -1.
         11    1    4    4    0    0 -0.33030223350E+02  0.13320627434E+02 -0.55089619732E+02  0.65599550090E+02  0.00000000000E+00 0.  1.
</event>
<event>
 8    1  0.6493926E-009  0.2641592E+03  0.7561462E-02  0.1104670E+00
          2   -1    0    0  501    0  0.00000000000E+00  0.00000000000E+00  0.26017018478E+03  0.26017018478E+03  0.00000000000E+00 0. -1.
         -2   -1    0    0    0  501 -0.00000000000E+00 -0.00000000000E+00 -0.27438044319E+03  0.27438044319E+03  0.00000000000E+00 0.  1.
         25    2    1    2    0    0  0.22957423817E+03 -0.81730913664E+02 -0.33306715468E+01  0.27394046262E+03  0.12509200856E+03 0.  0.
         23    2    1    2    0    0 -0.22957423817E+03  0.81730913664E+02 -0.10879586863E+02  0.26061016535E+03  0.91733416997E+02 0.  0.
          5    1    3    3  502    0 -0.15008389135E+01 -0.33443305779E+02  0.15419397407E+02  0.37093630656E+02  0.41800000000E+01 0.  1.
         -5    1    3    3    0  502  0.23107507708E+03 -0.48287607884E+02 -0.18750068954E+02  0.23684683196E+03  0.41800000000E+01 0.  1.
        -11    1    4    4    0    0 -0.22176827186E+03  0.52059114499E+02  0.75209196719E+00  0.22779790044E+03  0.00000000000E+00 0. -1.
         11    1    4    4    0    0 -0.78059663114E+01  0.29671799164E+02 -0.11631678830E+02  0.32812264904E+02  0.00000000000E+00 0.  1.
</event>
<event>
 8    1  0.6493926E-009  0.1265338E+03  0.7561462E-02  0.1232691E+00
          1   -1    0    0  501    0  0.00000000000E+00  0.00000000000E+00  0.12804107184E+04  0.12804107184E+04  0.00000000000E+00 0. -1.
         -1   -1    0    0    0  501 -0.00000000000E+00 -0.00000000000E+00 -0.17600458145E+02  0.17600458145E+02  0.00000000000E+00 0.  1.
         25    2    1    2    0    0  0.25559472143E+02 -0.86010532106E+02  0.89977110226E+03  0.91284677020E+03  0.12510032439E+03 0.  0.
         23    2    1    2    0    0 -0.25559472143E+02  0.86010532106E+02  0.36303915803E+03  0.38516440637E+03  0.92212208654E+02 0.  0.
          5    1    3    3  502    0  0.48795502055E+02 -0.10746961537E+03  0.61025829304E+03  0.62158135097E+03  0.41800000000E+01 0. -1.
         -5    1    3    3    0  502 -0.23236029911E+02  0.21459083263E+02  0.28951280922E+03  0.29126541923E+03  0.41800000000E+01 0. -1.
        -11    1    4    4    0    0  0.12334222660E+02  0.47334669940E+02  0.60415644402E+02  0.77735153666E+02  0.00000000000E+00 0.  1.
         11    1    4    4    0    0 -0.37893694804E+02  0.38675862166E+02  0.30262351363E+03  0.30742925271E+03  0.00000000000E+00 0. -1.
</event>
<event>
 8    1  0.6493926E-009  0.2095963E+03  0.7561462E-02  0.1141886E+00
         -2   -1    0    0    0  501 -0.00000000000E+00  0.00000000000E+00  0.89970752175E+02  0.89970752175E+02  0.00000000000E+00 0. -1.
          2   -1    0    0  501    0  0.00000000000E+00 -0.00000000000E+00 -0.60058963937E+03  0.60058963937E+03  0.00000000000E+00 0.  1.
         25    2    1    2    0    0 -0.16606506536E+03 -0.10620049250E+03 -0.18938544212E+03  0.30061685542E+03  0.12508995776E+03 0.  0.
         23    2    1    2    0    0  0.16606506536E+03  0.10620049250E+03 -0.32123344507E+03  0.38994353612E+03  0.10004441310E+03 0.  0.
          5    1    3    3  502    0 -0.16076951446E+03 -0.67369910314E+02 -0.95522992736E+02  0.19881563353E+03  0.41800000000E+01 0.  1.
         -5    1    3    3    0  502 -0.52955508979E+01 -0.38830582187E+02 -0.93862449388E+02  0.10180122189E+03  0.41800000000E+01 0.  1.
        -11    1    4    4    0    0  0.13277177415E+03  0.53639632378E+02 -0.28231665321E+03  0.31655686196E+03  0.00000000000E+00 0.  1.
         11    1    4    4    0    0  0.33293291206E+02  0.52560860122E+02 -0.38916791855E+02  0.73386674161E+02  0.00000000000E+00 0. -1.
</event>
<event>
 8    1  0.6493926E-009  0.1006628E+03  0.7561462E-02  0.1278908E+00
          2   -1    0    0  501    0  0.00000000000E+00  0.00000000000E+00  0.22944449534E+03  0.22944449534E+03  0.00000000000E+00 0.  1.
         -2   -1    0    0    0  501 -0.00000000000E+00 -0.00000000000E+00 -0.58731206747E+02  0.58731206747E+02  0.00000000000E+00 0. -1.
         25    2    1    2    0    0 -0.43830067929E+02  0.77795889730E+01  0.10311934259E+03  0.16811550501E+03  0.12509047666E+03 0.  0.
         23    2    1    2    0    0  0.43830067929E+02 -0.77795889730E+01  0.67593945999E+02  0.12006019707E+03  0.88678703902E+02 0.  0.
          5    1    3    3  502    0 -0.85818490556E+02 -0.68901181051E+01  0.80931499664E+02  0.11823564220E+03  0.41800000000E+01 0.  1.
         -5    1    3    3    0  502  0.41988422627E+02  0.14669707078E+02  0.22187842929E+02  0.49879862814E+02  0.41800000000E+01 0.  1.
        -11    1    4    4    0    0  0.56798093481E+02 -0.86782657918E+01  0.67607414503E+01  0.57853637269E+02  0.00000000000E+00 0. -1.
         11    1    4    4    0    0 -0.12968025552E+02  0.89867681881E+00  0.60833204549E+02  0.62206559802E+02  0.00000000000E+00 0.  1.
</event>
<event>
 8    1  0.6493926E-009  0.1363157E+03  0.7561462E-02  0.1218374E+00
          2   -1    0    0  501    0  0.00000000000E+00  0.00000000000E+00  0.11709362793E+04  0.11709362793E+04  0.00000000000E+00 0. -1.
         -2   -1    0    0    0  501 -0.00000000000E+00 -0.00000000000E+00 -0.20399380379E+02  0.20399380379E+02  0.00000000000E+00 0.  1.
         25    2    1    2    0    0  0.10695728711E+03 -0.14313911745E+02  0.76946418932E+03  0.78699901724E+03  0.12509022803E+03 0.  0.
         23    2    1    2    0    0 -0.10695728711E+03  0.14313911745E+02  0.38107270958E+03  0.40433664242E+03  0.81406148934E+02 0.  0.
          5    1    3    3  502    0 -0.15814742226E+02  0.28787012651E+02  0.20953509879E+03  0.21213492922E+03  0.41800000000E+01 0. -1.
         -5    1    3    3    0  502  0.12277202933E+03 -0.43100924397E+02  0.55992909053E+03  0.57486408801E+03  0.41800000000E+01 0. -1.
        -11    1    4    4    0    0 -0.51641700510E+02  0.15788023427E+02  0.70146828859E+02  0.88525163170E+02  0.00000000000E+00 0.  1.
         11    1    4    4    0    0 -0.55315586599E+02 -0.14741116820E+01  0.31092588072E+03  0.31581147925E+03  0.00000000000E+00 0. -1.
</event>
<event>
 8    1  0.6493926E-009  0.1723655E+03  0.7561462E-02  0.1175403E+00
         -1   -1    0    0    0  501 -0.00000000000E+00  0.00000000000E+00  0.18054759383E+02  0.18054759383E+02  0.00000000000E+00 0.  1.
          1   -1    0    0  501    0  0.00000000000E+00 -0.00000000000E+00 -0.20370314825E+04  0.20370314825E+04  0.00000000000E+00 0. -1.
         25    2    1    2    0    0 -0.56318506642E+02 -0.13446379504E+03 -0.13834842378E+04  0.13967559315E+04  0.12508481009E+03 0.  0.
         23    2    1    2    0    0  0.56318506642E+02  0.13446379504E+03 -0.63549248534E+03  0.65833031035E+03  0.91081349583E+02 0.  0.
          5    1    3    3  502    0  0.25051019058E+02 -0.10076929345E+03 -0.74940552187E+03  0.75657657423E+03  0.41800000000E+01 0. -1.
         -5    1    3    3    0  502 -0.81369525700E+02 -0.33694501593E+02 -0.63407871592E+03  0.64017935731E+03  0.41800000000E+01 0. -1.
        -11    1    4    4    0    0  0.12534240651E+02  0.14634934461E+01 -0.70038155038E+01  0.14432686284E+02  0.00000000000E+00 0.  1.
         11    1    4    4    0    0  0.43784265991E+02  0.13300030159E+03 -0.62848866983E+03  0.64389762407E+03  0.00000000000E+00 0. -1.
</event>
<event>
 8    1  0.6493926E-009  0.1223083E+03  0.7561462E-02  0.1239337E+00
         -2   -1    0    0    0  501 -0.00000000000E+00  0.00000000000E+00  0.29493183357E+02  0.29493183357E+02  0.00000000000E+00 0.  1.
          2   -1    0    0  501    0  0.00000000000E+00 -0.00000000000E+00 -0.60568860218E+03  0.60568860218E+03  0.00000000000E+00 0. -1.
         25    2    1    2    0    0  0.58493147547E+02 -0.30766999729E+02 -0.40686429352E+03  0.43076134120E+03  0.12509485658E+03 0.  0.
         23    2    1    2    0    0 -0.58493147547E+02  0.30766999729E+02 -0.16933112530E+03  0.20442044434E+03  0.93523427475E+02 0.  0.
          5    1    3    3  502    0  0.95357701282E+02 -0.39605495977E+02 -0.29627080765E+03  0.31377627439E+03  0.41800000000E+01 0.  1.
         -5    1    3    3    0  502 -0.36864553735E+02  0.88384962483E+01 -0.11059348588E+03  0.11698506681E+03  0.41800000000E+01 0.  1.
        -11    1    4    4    0    0 -0.34704399190E+02 -0.24825103209E+02 -0.11669790396E+03  0.12425410199E+03  0.00000000000E+00 0. -1.
         11    1    4    4    0    0 -0.23788748358E+02  0.55592102938E+02 -0.52633221342E+02  0.80166342353E+02  0.00000000000E+00 0.  1.
</event>
<event>
 8    1  0.6493926E-009  0.1106428E+03  0.7561462E-02  0.1259384E+00
          1   -1    0    0  501    0  0.00000000000E+00  0.00000000000E+00  0.22550093018E+03  0.22550093018E+03  0.00000000000E+00 0. -1.
         -1   -1    0    0    0  501 -0.00000000000E+00 -0.00000000000E+00 -0.58936557804E+02  0.58936557804E+02  0.00000000000E+00 0.  1.
         25    2    1    2    0    0 -0.15515013012E+02  0.72330135356E+01  0.57106643355E+02  0.13856785206E+03  0.12508736465E+03 0.  0.
         23    2    1    2    0    0  0.15515013012E+02 -0.72330135356E+01  0.10945772903E+03  0.14586963593E+03  0.94889009529E+02 0.  0.
          5    1    3    3  502    0 -0.70525558366E+02  0.61023119651E+01  0.28645210675E+02  0.76479494564E+02  0.41800000000E+01 0.  1.
         -5    1    3    3    0  502  0.55010545354E+02  0.11307015705E+01  0.28461432680E+02  0.62088357495E+02  0.41800000000E+01 0.  1.
        -11    1    4    4    0    0 -0.36036504380E+02 -0.21164213880E+02  0.36703755348E+02  0.55621212264E+02  0.00000000000E+00 0.  1.
         11    1    4    4    0    0  0.51551517392E+02  0.13931200345E+02  0.72753973677E+02  0.90248423666E+02  0.00000000000E+00 0. -1.
</event>
<event>
 8    1  0.6493926E-009  0.1057907E+03  0.7561462E-02  0.1268570E+00
          1   -1    0    0  501    0  0.00000000000E+00  0.00000000000E+00  0.17820146403E+03  0.17820146403E+03  0.00000000000E+00 0. -1.
         -1   -1    0    0    0  501 -0.00000000000E+00 -0.00000000000E+00 -0.10211201864E+03  0.10211201864E+03  0.00000000000E+00 0.  1.
         25    2    1    2    0    0 -0.21266810963E+02 -0.31619032132E+02 -0.41210765310E+02  0.13710321111E+03  0.12508766077E+03 0.  0.
         23    2    1    2    0    0  0.21266810963E+02  0.31619032132E+02  0.11730021070E+03  0.14321027156E+03  0.72786001453E+02 0.  0.
          5    1    3    3  502    0  0.22221893653E+02  0.40005469907E+02 -0.22401982386E+02  0.51123100403E+02  0.41800000000E+01 0. -1.
         -5    1    3    3    0  502 -0.43488704616E+02 -0.71624502039E+02 -0.18808782924E+02  0.85980110703E+02  0.41800000000E+01 0. -1.
        -11    1    4    4    0    0 -0.20398582503E+02  0.34377153326E+02  0.64674986509E+02  0.76031208848E+02  0.00000000000E+00 0.  1.
         11    1    4    4    0    0  0.41665393466E+02 -0.27581211948E+01  0.52625224190E+02  0.67179062707E+02  0.00000000000E+00 0. -1.
</event>
<event>
 8    1  0.6493926E-009  0.2148708E+03  0.7561462E-02  0.1137766E+00
         -1   -1    0    0    0  501 -0.00000000000E+00  0.00000000000E+00  0.28217191922E+03  0.28217191922E+03  0.00000000000E+00 0.  1.
          1   -1    0    0  501    0  0.00000000000E+00 -0.00000000000E+00 -0.22549089440E+03  0.22549089440E+03  0.00000000000E+00 0. -1.
         25    2    1    2    0    0  0.77159648499E+02 -0.19454881682E+03  0.11886624966E+03  0.27125573903E+03  0.12509051588E+03 0.  0.
         23    2    1    2    0    0 -0.77159648499E+02  0.19454881682E+03 -0.62185224848E+02  0.23640707460E+03  0.90655663071E+02 0.  0.
          5    1    3    3  502    0  0.29943121217E+02 -0.14046928429E+02  0.71236871572E+02  0.78651579627E+02  0.41800000000E+01 0. -1.
         -5    1    3    3    0  502  0.47216527282E+02 -0.18050188839E+03  0.47629378093E+02  0.19260415940E+03  0.41800000000E+01 0. -1.
        -11    1    4    4    0    0 -0.21173748738E+02  0.72031285336E+02  0.21160917707E+02  0.78003962341E+02  0.00000000000E+00 0.  1.
         11    1    4    4    0    0 -0.55985899761E+02  0.12251753148E+03 -0.83346142555E+02  0.15840311225E+03  0.00000000000E+00 0. -1.
</event>
<event>
 8    1  0.6493926E-009  0.3349905E+03  0.7561462E-02  0.1068950E+00
         -2   -1    0    0    0  501 -0.00000000000E+00  0.00000000000E+00  0.20278255322E+04  0.20278255322E+04  0.00000000000E+00 0.  1.
          2   -1    0    0  501    0  0.00000000000E+00 -0.00000000000E+00 -0.56026808698E+02  0.56026808698E+02  0.00000000000E+00 0. -1.
         25    2    1    2    0    0  0.15917916620E+03 -0.27580822766E+03  0.10574028800E+04  0.11113765347E+04  0.12509502741E+03 0.  0.
         23    2    1    2    0    0 -0.15917916620E+03  0.27580822766E+03  0.91439584354E+03  0.97247580622E+03  0.90450260404E+02 0.  0.
          5    1    3    3  502    0  0.87375940027E+02 -0.24604090727E+03  0.87299910641E+03  0.91121654679E+03  0.41800000000E+01 0. -1.
         -5    1    3    3    0  502  0.71803226177E+02 -0.29767320388E+02  0.18440377360E+03  0.20015998794E+03  0.41800000000E+01 0. -1.
        -11    1    4    4    0    0 -0.10579941083E+03  0.25051949847E+03  0.75633929124E+03  0.80374290536E+03  0.00000000000E+00 0.  1.
         11    1    4    4    0    0 -0.53379755378E+02  0.25288729189E+02  0.15805655230E+03  0.16873290086E+03  0.00000000000E+00 0. -1.
</event>
<event>
 8    1  0.6493926E-009  0.1005211E+03  0.7561462E-02  0.1279204E+00
          2   -1    0    0  501    0  0.00000000000E+00  0.00000000000E+00  0.46784747876E+03  0.46784747876E+03  0.00000000000E+00 0. -1.
         -2   -1    0    0    0  501 -0.00000000000E+00 -0.00000000000E+00 -0.30390804181E+02  0.30390804181E+02  0.00000000000E+00 0.  1.
         25    2    1    2    0    0  0.11374155987E+02  0.38541540382E+02  0.30905367952E+03  0.33582143700E+03  0.12508812478E+03 0.  0.
         23    2    1    2    0    0 -0.11374155987E+02 -0.38541540382E+02  0.12840299506E+03  0.16241684595E+03  0.90978464196E+02 0.  0.
          5    1    3    3  502    0  0.65146155710E+02  0.67612013421E+00  0.14450393397E+03  0.15856650994E+03  0.41800000000E+01 0.  1.
         -5    1    3    3    0  502 -0.53771999723E+02  0.37865420248E+02  0.16454974555E+03  0.17725492705E+03  0.41800000000E+01 0.  1.
        -11    1    4    4    0    0 -0.31561077001E+01  0.15184211910E+02 -0.66222118094E+01  0.16863421847E+02  0.00000000000E+00 0.  1.
         11    1    4    4    0    0 -0.82180482864E+01 -0.53725752292E+02  0.13502520687E+03  0.14555342410E+03  0.00000000000E+00 0. -1.
</event>
<event>
 8    1  0.6493926E-009  0.1012549E+03  0.7561462E-02  0.1277679E+00
          1   -1    0    0  501    0  0.00000000000E+00  0.00000000000E+00  0.14853124981E+04  0.14853124981E+04  0.00000000000E+00 0.  1.
         -1   -1    0    0    0  501 -0.00000000000E+00 -0.00000000000E+00 -0.13837467097E+02  0.13837467097E+02  0.00000000000E+00 0. -1.
         25    2    1    2    0    0  0.40690204349E+02 -0.69630608526E+02  0.10470830253E+04  0.10576066278E+04  0.12507918652E+03 0.  0.
         23    2    1    2    0    0 -0.40690204349E+02  0.69630608526E+02  0.42439200567E+03  0.44154333738E+03  0.91366459539E+02 0.  0.
          5    1    3    3  502    0  0.37986554299E+02 -0.65710697291E+02  0.26996887888E+03  0.28046665044E+03  0.41800000000E+01 0.  1.
         -5    1    3    3    0  502  0.27036500505E+01 -0.39199112351E+01  0.77711414641E+03  0.77713997734E+03  0.41800000000E+01 0.  1.
        -11    1    4    4    0    0 -0.31870793575E+02 -0.14890811193E+02  0.93058154530E+02  0.99485194203E+02  0.00000000000E+00 0.  1.
         11    1    4    4    0    0 -0.88194107737E+01  0.84521419720E+02  0.33133385114E+03  0.34205814317E+03  0.00000000000E+00 0. -1.
</event>
<event>
 8    1  0.6493926E-009  0.9998535E+02  0.7561462E-02  0.1280327E+00
         -1   -1    0    0    0  501 -0.00000000000E+00  0.00000000000E+00  0.16368195997E+03  0.16368195997E+03  0.00000000000E+00 0.  1.
          1   -1    0    0  501    0  0.00000000000E+00 -0.00000000000E+00 -0.19131191118E+03  0.19131191118E+03  0.00000000000E+00 0. -1.
         25    2    1    2    0    0  0.40800871619E+02 -0.11746338167E+02  0.11971815491E+03  0.17827867062E+03  0.12509260648E+03 0.  0.
         23    2    1    2    0    0 -0.40800871619E+02  0.11746338167E+02 -0.14734810613E+03  0.17671520053E+03  0.87830007024E+02 0.  0.
          5    1    3    3  502    0  0.75143034996E+02 -0.18087712008E+02  0.31971536771E+02  0.83745403442E+02  0.41800000000E+01 0.  1.
         -5    1    3    3    0  502 -0.34342163377E+02  0.63413738407E+01  0.87746618141E+02  0.94533267175E+02  0.41800000000E+01 0.  1.
        -11    1    4    4    0    0 -0.43989801830E+02 -0.24942617773E+02 -0.44105364660E+02  0.67100819952E+02  0.00000000000E+00 0.  1.
         11    1    4    4    0    0  0.31889302112E+01  0.36688955940E+02 -0.10324274147E+03  0.10961438058E+03  0.00000000000E+00 0. -1.
</event>
<event>
 8    1  0.6493926E-009  0.9204835E+02  0.7561462E-02  0.1297966E+00
          2   -1    0    0  501    0  0.00000000000E+00  0.00000000000E+00  0.93905709116E+02  0.93905709116E+02  0.00000000000E+00 0.  1.
         -2   -1    0    0    0  501 -0.00000000000E+00 -0.00000000000E+00 -0.15788443262E+03  0.15788443262E+03  0.00000000000E+00 0. -1.
         25    2    1    2    0    0 -0.30547989993E+02  0.32050967407E+02 -0.25408877389E+01  0.13272128079E+03  0.12509211829E+03 0.  0.
         23    2    1    2    0    0  0.30547989993E+02 -0.32050967407E+02 -0.61437835766E+02  0.11906886095E+03  0.91882216887E+02 0.  0.
          5    1    3    3  502    0  0.32852542020E+02  0.22811748210E+02 -0.41364103703E+02  0.57689919819E+02  0.41800000000E+01 0. -1.
         -5    1    3    3    0  502 -0.63400532013E+02  0.92392191973E+01  0.38823215965E+02  0.75031360968E+02  0.41800000000E+01 0. -1.
        -11    1    4    4    0    0 -0.17586052076E+02 -0.25677612207E+02 -0.63237749496E+02  0.70481358937E+02  0.00000000000E+00 0. -1.
         11    1    4    4    0    0  0.48134042070E+02 -0.63733551997E+01  0.17999137301E+01  0.48587502013E+02  0.00000000000E+00 0.  1.
</event>
<event>
 8    1  0.6493926E-009  0.6644292E+02  0.7561462E-02  0.1372625E+00
          2   -1    0    0  501    0  0.00000000000E+00  0.00000000000E+00  0.18559417390E+03  0.18559417390E+03  0.00000000000E+00 0.  1.
         -2   -1    0    0    0  501 -0.00000000000E+00 -0.00000000000E+00 -0.93699382370E+02  0.93699382370E+02  0.00000000000E+00 0. -1.
         25    2    1    2    0    0  0.80116437835E+00 -0.21806632094E+02 -0.24241240573E+02  0.12927710400E+03  0.12509500712E+03 0.  0.
         23    2    1    2    0    0 -0.80116437835E+00  0.21806632094E+02  0.11613603210E+03  0.15001645227E+03  0.92418542137E+02 0.  0.
          5    1    3    3  502    0  0.11750462255E+02 -0.28861275186E+02  0.47103557222E+02  0.56632712027E+02  0.41800000000E+01 0.  1.
         -5    1    3    3    0  502 -0.10949297877E+02  0.70546430913E+01 -0.71344797795E+02  0.72644391976E+02  0.41800000000E+01 0.  1.
        -11    1    4    4    0    0 -0.41054910984E+02  0.23814366507E+02  0.90671061131E+02  0.10234193224E+03  0.00000000000E+00 0.  1.
         11    1    4    4    0    0  0.40253746605E+02 -0.20077344130E+01  0.25464970973E+02  0.47674520028E+02  0.00000000000E+00 0. -1.
</event>
<event>
 8    1  0.6493926E-009  0.9915189E+02  0.7561462E-02  0.1282090E+00
         -2   -1    0    0    0  501 -0.00000000000E+00  0.00000000000E+00  0.13135275681E+03  0.13135275681E+03  0.00000000000E+00 0.  1.
          2   -1    0    0  501    0  0.00000000000E+00 -0.00000000000E+00 -0.10093975722E+03  0.10093975722E+03  0.00000000000E+00 0. -1.
         25    2    1    2    0    0  0.14433725644E+01  0.24824926375E+02 -0.37364113957E+02  0.13290024992E+03  0.12509212255E+03 0.  0.
         23    2    1    2    0    0 -0.14433725644E+01 -0.24824926375E+02  0.67777113547E+02  0.99392264104E+02  0.68313430225E+02 0.  0.
          5    1    3    3  502    0 -0.25074754989E+02  0.70165770193E+02 -0.18057390459E+02  0.76782292195E+02  0.41800000000E+01 0.  1.
         -5    1    3    3    0  502  0.26518127553E+02 -0.45340843818E+02 -0.19306723498E+02  0.56117957726E+02  0.41800000000E+01 0.  1.
        -11    1    4    4    0    0  0.12427703051E+02  0.20284488300E+02  0.33397636782E+02  0.41003785329E+02  0.00000000000E+00 0.  1.
         11    1    4    4    0    0 -0.13871075615E+02 -0.45109414675E+02  0.34379476765E+02  0.58388478775E+02  0.00000000000E+00 0. -1.
</event>
<event>
 8    1  0.6493926E-009  0.1072088E+03  0.7561462E-02  0.1265828E+00
          2   -1    0    0  501    0  0.00000000000E+00  0.00000000000E+00  0.78769922949E+03  0.78769922949E+03  0.00000000000E+00 0. -1.
         -2   -1    0    0    0  501 -0.00000000000E+00 -0.00000000000E+00 -0.27074263077E+02  0.27074263077E+02  0.00000000000E+00 0.  1.
         25    2    1    2    0    0 -0.27286008494E+02 -0.91396235414E+02  0.46654887246E+03  0.49235367961E+03  0.12508595975E+03 0.  0.
         23    2    1    2    0    0  0.27286008494E+02  0.91396235414E+02  0.29407609395E+03  0.32241981295E+03  0.91520427465E+02 0.  0.
          5    1    3    3  502    0  0.10694321569E+02 -0.82562627296E+01  0.31505100950E+03  0.31536826945E+03  0.41800000000E+01 0. -1.
         -5    1    3    3    0  502 -0.37980330063E+02 -0.83139972684E+02  0.15149786296E+03  0.17698541016E+03  0.41800000000E+01 0. -1.
        -11    1    4    4    0    0 -0.93182121208E+01  0.59496069605E+02  0.66473199016E+02  0.89695582740E+02  0.00000000000E+00 0.  1.
         11    1    4    4    0    0  0.36604220615E+02  0.31900165809E+02  0.22760289493E+03  0.23272423021E+03  0.00000000000E+00 0. -1.
</event>
<event>
 8    1  0.6493926E-009  0.6468404E+02  0.7561462E-02  0.1379164E+00
         -2   -1    0    0    0  501 -0.00000000000E+00  0.00000000000E+00  0.20199116400E+02  0.20199116400E+02  0.00000000000E+00 0.  1.
          2   -1    0    0  501    0  0.00000000000E+00 -0.00000000000E+00 -0.73148686121E+03  0.73148686121E+03  0.00000000000E+00 0. -1.
         25    2    1    2    0    0  0.30138189956E+02  0.18143904833E+02 -0.64857110282E+03  0.66145995473E+03  0.12508910631E+03 0.  0.
         23    2    1    2    0    0 -0.30138189956E+02 -0.18143904833E+02 -0.62716641987E+02  0.90226022881E+02  0.54496295712E+02 0.  0.
          5    1    3    3  502    0 -0.80409218309E+01  0.26948936000E+02 -0.59106907511E+03  0.59175250360E+03  0.41800000000E+01 0.  1.
         -5    1    3    3    0  502  0.38179111787E+02 -0.88050311668E+01 -0.57502027714E+02  0.69707451122E+02  0.41800000000E+01 0.  1.
        -11    1    4    4    0    0 -0.22261562549E+02 -0.35823893600E+02 -0.28465245827E+02  0.50884169835E+02  0.00000000000E+00 0. -1.
         11    1    4    4    0    0 -0.78766274067E+01  0.17679988768E+02 -0.34251396160E+02  0.39341853046E+02  0.00000000000E+00 0.  1.
</event>
<event>
 8    1  0.6493926E-009  0.2246865E+03  0.7561462E-02  0.1130437E+00
          2   -1    0    0  501    0  0.00000000000E+00  0.00000000000E+00  0.87049255771E+03  0.87049255771E+03  0.00000000000E+00 0. -1.
         -2   -1    0    0    0  501 -0.00000000000E+00 -0.00000000000E+00 -0.65201362479E+02  0.65201362479E+02  0.00000000000E+00 0.  1.
         25    2    1    2    0    0 -0.19266354231E+03 -0.86750702868E+02  0.43310445778E+03  0.49786750033E+03  0.12509057341E+03 0.  0.
         23    2    1    2    0    0  0.19266354231E+03  0.86750702868E+02  0.37218673745E+03  0.43782641985E+03  0.92325951963E+02 0.  0.
          5    1    3    3  502    0 -0.16584088803E+03 -0.47305523662E+02  0.40976974987E+03  0.44460064442E+03  0.41800000000E+01 0. -1.
         -5    1    3    3    0  502 -0.26822654280E+02 -0.39445179206E+02  0.23334707906E+02  0.53266855908E+02  0.41800000000E+01 0. -1.
        -11    1    4    4    0    0  0.13618843708E+03  0.14031599274E+02  0.19676402730E+03  0.23970869532E+03  0.00000000000E+00 0. -1.
         11    1    4    4    0    0  0.56475105225E+02  0.72719103594E+02  0.17542271015E+03  0.19811772453E+03  0.00000000000E+00 0.  1.
</event>
<event>
 8    1  0.6493926E-009  0.1814724E+03  0.7561462E-02  0.1166386E+00
         -2   -1    0    0    0  501 -0.00000000000E+00  0.00000000000E+00  0.14880264904E+03  0.14880264904E+03  0.00000000000E+00 0.  1.
          2   -1    0    0  501    0  0.00000000000E+00 -0.00000000000E+00 -0.30681372559E+03  0.30681372559E+03  0.00000000000E+00 0. -1.
         25    2    1    2    0    0  0.24201971457E+02 -0.15434096880E+03  0.21803674189E+02  0.20132015509E+03  0.12509010578E+03 0.  0.
         23    2    1    2    0    0 -0.24201971457E+02  0.15434096880E+03 -0.17981475073E+03  0.25429621953E+03  0.89030065792E+02 0.  0.
          5    1    3    3  502    0  0.62692125143E+02 -0.12663703875E+03  0.45007442943E+02  0.14835897161E+03  0.41800000000E+01 0.  1.
         -5    1    3    3    0  502 -0.38490153685E+02 -0.27703930056E+02 -0.23203768754E+02  0.52961183481E+02  0.41800000000E+01 0.  1.
        -11    1    4    4    0    0 -0.21100240168E+02  0.15602843475E+01 -0.43192914290E+01  0.21594233045E+02  0.00000000000E+00 0.  1.
         11    1    4    4    0    0 -0.31017312898E+01  0.15278068446E+03 -0.17549545930E+03  0.23270198649E+03  0.00000000000E+00 0. -1.
</event>
<event>
 8    1  0.6493926E-009  0.2242466E+03  0.7561462E-02  0.1130756E+00
         -2   -1    0    0    0  501 -0.00000000000E+00  0.00000000000E+00  0.46588867615E+02  0.46588867615E+02  0.00000000000E+00 0.  1.
          2   -1    0    0  501    0  0.00000000000E+00 -0.00000000000E+00 -0.12724453636E+04  0.12724453636E+04  0.00000000000E+00 0. -1.
         25    2    1    2    0    0 -0.14292246756E+03  0.15434272820E+03 -0.78083545608E+03  0.81829077672E+03  0.12508907351E+03 0.  0.
         23    2    1    2    0    0  0.14292246756E+03 -0.15434272820E+03 -0.44502103991E+03  0.50074345450E+03  0.91933518261E+02 0.  0.
          5    1    3    3  502    0 -0.89812351507E+02  0.14294629119E+03 -0.70482438081E+03  0.72477222686E+03  0.41800000000E+01 0. -1.
         -5    1    3    3    0  502 -0.53110116053E+02  0.11396437008E+02 -0.76011075274E+02  0.93518549860E+02  0.41800000000E+01 0. -1.
        -11    1    4    4    0    0  0.51485030220E+02 -0.11422450668E+03 -0.19808605208E+03  0.23438436443E+03  0.00000000000E+00 0. -1.
         11    1    4    4    0    0  0.91437437339E+02 -0.40118221521E+02 -0.24693498783E+03  0.26635909007E+03  0.00000000000E+00 0.  1.
</event>
<event>
 8    1  0.6493926E-009  0.2167213E+03  0.7561462E-02  0.1136351E+00
         -1   -1    0    0    0  501 -0.00000000000E+00  0.00000000000E+00  0.18334713078E+03  0.18334713078E+03  0.00000000000E+00 0.  1.
          1   -1    0    0  501    0  0.00000000000E+00 -0.00000000000E+00 -0.27274415177E+03  0.27274415177E+03  0.00000000000E+00 0. -1.
         25    2    1    2    0    0  0.13871195405E+03 -0.13359115408E+03 -0.13407399704E+02  0.23003381926E+03  0.12509275355E+03 0.  0.
         23    2    1    2    0    0 -0.13871195405E+03  0.13359115408E+03 -0.75989621285E+02  0.22605746330E+03  0.90774178733E+02 0.  0.
          5    1    3    3  502    0  0.70917038244E+02  0.35584036127E+00 -0.33442079110E+02  0.78518774766E+02  0.41800000000E+01 0. -1.
         -5    1    3    3    0  502  0.67794915803E+02 -0.13394699444E+03  0.20034679405E+02  0.15151504449E+03  0.41800000000E+01 0. -1.
        -11    1    4    4    0    0 -0.67698242577E+02  0.83065336074E+01 -0.16039984954E+02  0.70066623052E+02  0.00000000000E+00 0.  1.
         11    1    4    4    0    0 -0.71013711470E+02  0.12528462047E+03 -0.59949636332E+02  0.15599084024E+03  0.00000000000E+00 0. -1.
</event>
<event>
 8    1  0.6493926E-009  0.4490101E+02  0.7561462E-02  0.1474961E+00
          4   -1    0    0  501    0  0.00000000000E+00  0.00000000000E+00  0.28606294006E+03  0.28606294006E+03  0.00000000000E+00 0.  1.
         -4   -1    0    0    0  501 -0.00000000000E+00 -0.00000000000E+00 -0.49003892443E+02  0.49003892443E+02  0.00000000000E+00 0. -1.
         25    2    1    2    0    0 -0.29659620603E+02 -0.31984562264E+02  0.10142829840E+03  0.16684736598E+03  0.12509052123E+03 0.  0.
         23    2    1    2    0    0  0.29659620603E+02  0.31984562264E+02  0.13563074922E+03  0.16821946652E+03  0.89439272495E+02 0.  0.
          5    1    3    3  502    0 -0.26914886327E+02 -0.30212662957E+02  0.13081087302E+03  0.13698968213E+03  0.41800000000E+01 0.  1.
         -5    1    3    3    0  502 -0.27447342759E+01 -0.17718993070E+01 -0.29382574627E+02  0.29857683854E+02  0.41800000000E+01 0.  1.
        -11    1    4    4    0    0  0.20952677269E+02  0.19683078997E+02  0.14671899379E+03  0.14950886737E+03  0.00000000000E+00 0.  1.
         11    1    4    4    0    0  0.87069433342E+01  0.12301483267E+02 -0.11088244571E+02  0.18710599148E+02  0.00000000000E+00 0. -1.
</event>
<event>
 8    1  0.6493926E-009  0.1639956E+03  0.7561462E-02  0.1184258E+00
          3   -1    0    0  501    0  0.00000000000E+00  0.00000000000E+00  0.53564653266E+03  0.53564653266E+03  0.00000000000E+00 0. -1.
         -3   -1    0    0    0  501 -0.00000000000E+00 -0.00000000000E+00 -0.59101658357E+02  0.59101658357E+02  0.00000000000E+00 0.  1.
         25    2    1    2    0    0  0.10113643010E+03  0.97099805242E+02  0.26149106899E+03  0.32199514392E+03  0.12508534636E+03 0.  0.
         23    2    1    2    0    0 -0.10113643010E+03 -0.97099805242E+02  0.21505380531E+03  0.27275304709E+03  0.92136506612E+02 0.  0.
          5    1    3    3  502    0 -0.29379013603E+02  0.12545481890E+02  0.40870812922E+02  0.52042399109E+02  0.41800000000E+01 0. -1.
         -5    1    3    3    0  502  0.13051544370E+03  0.84554323352E+02  0.22062025607E+03  0.26995274481E+03  0.41800000000E+01 0. -1.
        -11    1    4    4    0    0 -0.60326226236E+02 -0.57310260139E+02  0.47593310206E+02  0.95858451194E+02  0.00000000000E+00 0.  1.
         11    1    4    4    0    0 -0.40810203862E+02 -0.39789545103E+02  0.16746049510E+03  0.17689459590E+03  0.00000000000E+00 0. -1.
</event>
<event>
 8    1  0.6493926E-009  0.9774210E+02  0.7561462E-02  0.1285117E+00
          2   -1    0    0  501    0  0.00000000000E+00  0.00000000000E+00  0.11442015839E+04  0.11442015839E+04  0.00000000000E+00 0. -1.
         -2   -1    0    0    0  501 -0.00000000000E+00 -0.00000000000E+00 -0.12773211739E+02  0.12773211739E+02  0.00000000000E+00 0.  1.
         25    2    1    2    0    0  0.47407212474E+02 -0.75065321329E+01  0.77756417062E+03  0.78902293660E+03  0.12508942090E+03 0.  0.
         23    2    1    2    0    0 -0.47407212474E+02  0.75065321329E+01  0.35386420151E+03  0.36795185901E+03  0.88684303133E+02 0.  0.
          5    1    3    3  502    0  0.25737066758E+02 -0.48748094740E+02  0.66267158926E+03  0.66497359418E+03  0.41800000000E+01 0.  1.
         -5    1    3    3    0  502  0.21670145716E+02  0.41241562607E+02  0.11489258137E+03  0.12404934242E+03  0.41800000000E+01 0.  1.
        -11    1    4    4    0    0 -0.21482202840E+02  0.43822917134E+02  0.25291614227E+03  0.25758204154E+03  0.00000000000E+00 0. -1.
         11    1    4    4    0    0 -0.25925009634E+02 -0.36316385002E+02  0.10094805924E+03  0.11036981747E+03  0.00000000000E+00 0.  1.
</event>
<event>
 8    1  0.6493926E-009  0.1147456E+03  0.7561462E-02  0.1252026E+00
         -1   -1    0    0    0  501 -0.00000000000E+00  0.00000000000E+00  0.88992336125E+02  0.88992336125E+02  0.00000000000E+00 0.  1.
          1   -1    0    0  501    0  0.00000000000E+00 -0.00000000000E+00 -0.33098879281E+03  0.33098879281E+03  0.00000000000E+00 0. -1.
         25    2    1    2    0    0 -0.78605616836E+01  0.95655242480E+02 -0.16862812661E+02  0.15857106421E+03  0.12509482048E+03 0.  0.
         23    2    1    2    0    0  0.78605616836E+01 -0.95655242480E+02 -0.22513364402E+03  0.26141006472E+03  0.91860494360E+02 0.  0.
          5    1    3    3  502    0  0.85618507538E+01  0.51965843223E+02 -0.70014887870E+02  0.87711521898E+02  0.41800000000E+01 0. -1.
         -5    1    3    3    0  502 -0.16422412437E+02  0.43689399257E+02  0.53152075208E+02  0.70859542312E+02  0.41800000000E+01 0. -1.
        -11    1    4    4    0    0  0.45337437959E+02 -0.73218132785E+02 -0.17410722294E+03  0.19424135329E+03  0.00000000000E+00 0. -1.
         11    1    4    4    0    0 -0.37476876275E+02 -0.22437109695E+02 -0.51026421085E+02  0.67168711433E+02  0.00000000000E+00 0.  1.
</event>
<event>
 8    1  0.6493926E-009  0.9906544E+02  0.7561462E-02  0.1282274E+00
          2   -1    0    0  501    0  0.00000000000E+00  0.00000000000E+00  0.12743207559E+03  0.12743207559E+03  0.00000000000E+00 0. -1.
         -2   -1    0    0    0  501 -0.00000000000E+00 -0.00000000000E+00 -0.10743664164E+03  0.10743664164E+03  0.00000000000E+00 0.  1.
         25    2    1    2    0    0 -0.36567581495E+02 -0.14458009971E+02  0.34499267912E+02  0.13558657919E+03  0.12508916380E+03 0.  0.
         23    2    1    2    0    0  0.36567581495E+02  0.14458009971E+02 -0.14503833962E+02  0.99282138042E+02  0.90001998122E+02 0.  0.
          5    1    3    3  502    0 -0.75940627333E+02 -0.22709672643E+02  0.48225753023E+02  0.92875743690E+02  0.41800000000E+01 0. -1.
         -5    1    3    3    0  502  0.39373045838E+02  0.82516626725E+01 -0.13726485111E+02  0.42710835498E+02  0.41800000000E+01 0. -1.
        -11    1    4    4    0    0 -0.65544135185E+01  0.31329062229E+02 -0.36051055146E+02  0.48209429097E+02  0.00000000000E+00 0.  1.
         11    1    4    4    0    0  0.43121995013E+02 -0.16871052259E+02  0.21547221184E+02  0.51072708945E+02  0.00000000000E+00 0. -1.
</event>
<event>
 8    1  0.6493926E-009  0.2031234E+03  0.7561462E-02  0.1147130E+00
          2   -1    0    0  501    0  0.00000000000E+00  0.00000000000E+00  0.88772497758E+03  0.88772497758E+03  0.00000000000E+00 0.  1.
         -2   -1    0    0    0  501 -0.00000000000E+00 -0.00000000000E+00 -0.55737794940E+02  0.55737794940E+02  0.00000000000E+00 0. -1.
         25    2    1    2    0    0  0.38066482464E+02 -0.17049950428E+03  0.61330424109E+03  0.64985286674E+03  0.12509004048E+03 0.  0.
         23    2    1    2    0    0 -0.38066482464E+02  0.17049950428E+03  0.21868294155E+03  0.29360990578E+03  0.88687145631E+02 0.  0.
          5    1    3    3  502    0  0.34498509791E+02 -0.19006409725E+03  0.53046597109E+03  0.56455834696E+03  0.41800000000E+01 0. -1.
         -5    1    3    3    0  502  0.35679726727E+01  0.19564592977E+02  0.82838270003E+02  0.85294519780E+02  0.41800000000E+01 0. -1.
        -11    1    4    4    0    0  0.21291794467E+02  0.91217402899E+02  0.13284729107E+03  0.16254955505E+03  0.00000000000E+00 0.  1.
         11    1    4    4    0    0 -0.59358276930E+02  0.79282101378E+02  0.85835650484E+02  0.13106035073E+03  0.00000000000E+00 0. -1.
</event>
<event>
 8    1  0.6493926E-009  0.9957000E+02  0.7561462E-02  0.1281203E+00
         -2   -1    0    0    0  501 -0.00000000000E+00  0.00000000000E+00  0.90867543907E+01  0.90867543907E+01  0.00000000000E+00 0.  1.
          2   -1    0    0  501    0  0.00000000000E+00 -0.00000000000E+00 -0.15323847926E+04  0.15323847926E+04  0.00000000000E+00 0. -1.
         25    2    1    2    0    0 -0.23474618793E+02 -0.11804282340E+02 -0.11190490521E+04  0.11263250029E+04  0.12508729944E+03 0.  0.
         23    2    1    2    0    0  0.23474618793E+02  0.11804282340E+02 -0.40424898611E+03  0.41514654403E+03  0.90769000432E+02 0.  0.
          5    1    3    3  502    0 -0.57989916994E+02 -0.30688122046E+02 -0.96634360482E+03  0.96857732075E+03  0.41800000000E+01 0. -1.
         -5    1    3    3    0  502  0.34515298201E+02  0.18883839705E+02 -0.15270544725E+03  0.15774768217E+03  0.41800000000E+01 0. -1.
        -11    1    4    4    0    0 -0.34764675843E+02  0.24946561760E+01 -0.12715540538E+03  0.13184575500E+03  0.00000000000E+00 0.  1.
         11    1    4    4    0    0  0.58239294636E+02  0.93096261643E+01 -0.27709358073E+03  0.28330078902E+03  0.00000000000E+00 0. -1.
</event>
<event>
 8    1  0.6493926E-009  0.2052981E+03  0.7561462E-02  0.1145344E+00
          2   -1    0    0  501    0  0.00000000000E+00  0.00000000000E+00  0.20024817566E+04  0.20024817566E+04  0.00000000000E+00 0. -1.
         -2   -1    0    0    0  501 -0.00000000000E+00 -0.00000000000E+00 -0.25500695359E+02  0.25500695359E+02  0.00000000000E+00 0.  1.
         25    2    1    2    0    0 -0.18460454074E+03 -0.55898164346E+02  0.84500718542E+03  0.87572175876E+03  0.12509202260E+03 0.  0.
         23    2    1    2    0    0  0.18460454074E+03  0.55898164346E+02  0.11319738758E+04  0.11522606932E+04  0.95584561011E+02 0.  0.
          5    1    3    3  502    0 -0.10955341135E+03 -0.16363420275E+02  0.23500531987E+03  0.25983587941E+03  0.41800000000E+01 0.  1.
         -5    1    3    3    0  502 -0.75051129396E+02 -0.39534744071E+02  0.61000186556E+03  0.61588587936E+03  0.41800000000E+01 0.  1.
        -11    1    4    4    0    0  0.10494581765E+03  0.79588444262E+02  0.72972573167E+03  0.74151708582E+03  0.00000000000E+00 0. -1.
         11    1    4    4    0    0  0.79658723090E+02 -0.23690279916E+02  0.40224814415E+03  0.41074360738E+03  0.00000000000E+00 0.  1.
</event>
<event>
 8    1  0.6493926E-009  0.9824768E+02  0.7561462E-02  0.1284025E+00
          1   -1    0    0  501    0  0.00000000000E+00  0.00000000000E+00  0.46255823946E+02  0.46255823946E+02  0.00000000000E+00 0. -1.
         -1   -1    0    0    0  501 -0.00000000000E+00 -0.00000000000E+00 -0.39709623795E+03  0.39709623795E+03  0.00000000000E+00 0.  1.
         25    2    1    2    0    0  0.29503827903E+02  0.71021116470E+02 -0.16538627546E+03  0.22116440081E+03  0.12508635908E+03 0.  0.
         23    2    1    2    0    0 -0.29503827903E+02 -0.71021116470E+02 -0.18545413855E+03  0.22218766109E+03  0.95182164247E+02 0.  0.
          5    1    3    3  502    0 -0.23903781024E+02  0.55911337916E+02 -0.15221749446E+03  0.16396678467E+03  0.41800000000E+01 0. -1.
         -5    1    3    3    0  502  0.53407608927E+02  0.15109778554E+02 -0.13168781002E+02  0.57197616141E+02  0.41800000000E+01 0. -1.
        -11    1    4    4    0    0 -0.25072073574E+02 -0.32195895942E+02 -0.94353048191E+01  0.41883285041E+02  0.00000000000E+00 0. -1.
         11    1    4    4    0    0 -0.44317543291E+01 -0.38825220528E+02 -0.17601883373E+03  0.18030437605E+03  0.00000000000E+00 0.  1.
</event>
<event>
 8    1  0.6493926E-009  0.1150390E+03  0.7561462E-02  0.1251513E+00
          1   -1    0    0  501    0  0.00000000000E+00  0.00000000000E+00  0.53347193797E+02  0.53347193797E+02  0.00000000000E+00 0. -1.
         -1   -1    0    0    0  501 -0.00000000000E+00 -0.00000000000E+00 -0.32661946658E+03  0.32661946658E+03  0.00000000000E+00 0.  1.
         25    2    1    2    0    0  0.27539899127E+02  0.67285207814E+02 -0.16352569615E+03  0.21834320331E+03  0.12508939162E+03 0.  0.
         23    2    1    2    0    0 -0.27539899127E+02 -0.67285207814E+02 -0.10974657663E+03  0.16162345706E+03  0.93766121587E+02 0.  0.
          5    1    3    3  502    0 -0.30380694122E+02  0.14635582246E+02 -0.12772768333E+03  0.13217042155E+03  0.41800000000E+01 0. -1.
         -5    1    3    3    0  502  0.57920593249E+02  0.52649625568E+02 -0.35798012823E+02  0.86172781764E+02  0.41800000000E+01 0. -1.
        -11    1    4    4    0    0 -0.18855493095E+02  0.21446573433E+02 -0.35785875977E+02  0.45783338141E+02  0.00000000000E+00 0.  1.
         11    1    4    4    0    0 -0.86844060324E+01 -0.88731781248E+02 -0.73960700652E+02  0.11584011892E+03  0.00000000000E+00 0. -1.
</event>
<event>
 8    1  0.6493926E-009  0.8698519E+02  0.7561462E-02  0.1310321E+00
          2   -1    0    0  501    0  0.00000000000E+00  0.00000000000E+00  0.24142316696E+03  0.24142316696E+03  0.00000000000E+00 0. -1.
         -2   -1    0    0    0  501 -0.00000000000E+00 -0.00000000000E+00 -0.80151088300E+02  0.80151088300E+02  0.00000000000E+00 0.  1.
         25    2    1    2    0    0 -0.56495413605E+02 -0.26817090846E+02  0.15790649922E+03  0.21093395165E+03  0.12509109219E+03 0.  0.
         23    2    1    2    0    0  0.56495413605E+02  0.26817090846E+02  0.33655794419E+01  0.11064030361E+03  0.91208889573E+02 0.  0.
          5    1    3    3  502    0 -0.81808394108E+02 -0.21499950888E+02  0.16350965226E+03  0.18414054419E+03  0.41800000000E+01 0.  1.
         -5    1    3    3    0  502  0.25312980503E+02 -0.53171399585E+01 -0.56031530403E+01  0.26793407459E+02  0.41800000000E+01 0.  1.
        -11    1    4    4    0    0  0.31651099153E+02  0.10461918245E+02  0.47128238126E+02  0.57726204100E+02  0.00000000000E+00 0. -1.
         11    1    4    4    0    0  0.24844314452E+02  0.16355172602E+02 -0.43762658684E+02  0.52914099505E+02  0.00000000000E+00 0.  1.
</event>
<event>
 8    1  0.6493926E-009  0.2631513E+03  0.7561462E-02  0.1105265E+00
         -2   -1    0    0    0  501 -0.00000000000E+00  0.00000000000E+00  0.70222948868E+02  0.70222948868E+02  0.00000000000E+00 0.  1.
          2   -1    0    0  501    0  0.00000000000E+00 -0.00000000000E+00 -0.10477404926E+04  0.10477404926E+04  0.00000000000E+00 0. -1.
         25    2    1    2    0    0  0.85075511189E+02 -0.23280019605E+03 -0.46232045784E+03  0.53927935813E+03  0.12509295140E+03 0.  0.
         23    2    1    2    0    0 -0.85075511189E+02  0.23280019605E+03 -0.51519708594E+03  0.57868408338E+03  0.89517915028E+02 0.  0.
          5    1    3    3  502    0  0.77856562843E+02 -0.80197182787E+02 -0.11812076751E+03  0.16267519978E+03  0.41800000000E+01 0.  1.
         -5    1    3    3    0  502  0.72189483463E+01 -0.15260301326E+03 -0.34419969033E+03  0.37660415836E+03  0.41800000000E+01 0.  1.
        -11    1    4    4    0    0 -0.73045081357E+02  0.79936012029E+02 -0.24812034942E+03  0.27071951856E+03  0.00000000000E+00 0. -1.
         11    1    4    4    0    0 -0.12030429833E+02  0.15286418402E+03 -0.26707673651E+03  0.30796456482E+03  0.00000000000E+00 0.  1.
</event>
<event>
 8    1  0.6493926E-009  0.1005075E+03  0.7561462E-02  0.1279232E+00
          1   -1    0    0  501    0  0.00000000000E+00  0.00000000000E+00  0.77348501713E+03  0.77348501713E+03  0.00000000000E+00 0. -1.
         -1   -1    0    0    0  501 -0.00000000000E+00 -0.00000000000E+00 -0.23909458046E+02  0.23909458046E+02  0.00000000000E+00 0.  1.
         25    2    1    2    0    0  0.31542067383E+02  0.37985764448E+02  0.59784914508E+03  0.61278905096E+03  0.12509596474E+03 0.  0.
         23    2    1    2    0    0 -0.31542067383E+02 -0.37985764448E+02  0.15172641401E+03  0.18460542421E+03  0.92846311860E+02 0.  0.
          5    1    3    3  502    0  0.25954867733E+02  0.81673789826E+02  0.31394636852E+03  0.32545976373E+03  0.41800000000E+01 0. -1.
         -5    1    3    3    0  502  0.55871996505E+01 -0.43688025378E+02  0.28390277656E+03  0.28732928723E+03  0.41800000000E+01 0. -1.
        -11    1    4    4    0    0 -0.23800048957E+02 -0.50744620210E+02  0.15857216733E+03  0.16818617976E+03  0.00000000000E+00 0. -1.
         11    1    4    4    0    0 -0.77420184269E+01  0.12758855762E+02 -0.68457533269E+01  0.16419244449E+02  0.00000000000E+00 0.  1.
</event>
<event>
 8    1  0.6493926E-009  0.1115259E+03  0.7561462E-02  0.1257770E+00
         -2   -1    0    0    0  501 -0.00000000000E+00  0.00000000000E+00  0.26887678111E+03  0.26887678111E+03  0.00000000000E+00 0.  1.
          2   -1    0    0  501    0  0.00000000000E+00 -0.00000000000E+00 -0.85376181397E+02  0.85376181397E+02  0.00000000000E+00 0. -1.
         25    2    1    2    0    0 -0.21615886355E+02 -0.75969631236E+02  0.15507891923E+03  0.21432750543E+03  0.12509267358E+03 0.  0.
         23    2    1    2    0    0  0.21615886355E+02  0.75969631236E+02  0.28421680484E+02  0.13992545707E+03  0.11194958777E+03 0.  0.
          5    1    3    3  502    0  0.49822794607E+01 -0.43371743050E+02 -0.91010774312E+01  0.44790994790E+02  0.41800000000E+01 0.  1.
         -5    1    3    3    0  502 -0.26598165816E+02 -0.32597888185E+02  0.16417999666E+03  0.16953651064E+03  0.41800000000E+01 0.  1.
        -11    1    4    4    0    0  0.22803639542E+02 -0.26203006577E+02  0.49790833534E+01  0.35091235389E+02  0.00000000000E+00 0. -1.
         11    1    4    4    0    0 -0.11877531870E+01  0.10217263781E+03  0.23442597131E+02  0.10483422168E+03  0.00000000000E+00 0.  1.
</event>
<event>
 8    1  0.6493926E-009  0.8137285E+02  0.7561462E-02  0.1325200E+00
          1   -1    0    0  501    0  0.00000000000E+00  0.00000000000E+00  0.55734543512E+03  0.55734543512E+03  0.00000000000E+00 0. -1.
         -1   -1    0    0    0  501 -0.00000000000E+00 -0.00000000000E+00 -0.22168442620E+02  0.22168442620E+02  0.00000000000E+00 0.  1.
         25    2    1    2    0    0  0.21020698184E+02  0.20495082205E+02  0.33555244698E+03  0.35931148585E+03  0.12508949214E+03 0.  0.
         23    2    1    2    0    0 -0.21020698184E+02 -0.20495082205E+02  0.19962454552E+03  0.22020239189E+03  0.88188525745E+02 0.  0.
          5    1    3    3  502    0  0.33980221965E+02 -0.29159118892E+02  0.27992060949E+03  0.28351001696E+03  0.41800000000E+01 0.  1.
         -5    1    3    3    0  502 -0.12959523781E+02  0.49654201097E+02  0.55631837481E+02  0.75801468883E+02  0.41800000000E+01 0.  1.
        -11    1    4    4    0    0 -0.16657471515E+02 -0.41560697378E+02  0.19235075898E+03  0.19749323382E+03  0.00000000000E+00 0. -1.
         11    1    4    4    0    0 -0.43632266689E+01  0.21065615173E+02  0.72737865380E+01  0.22709158069E+02  0.00000000000E+00 0.  1.
</event>
<event>
 8    1  0.6493926E-009  0.1058341E+03  0.7561462E-02  0.1268485E+00
          2   -1    0    0  501    0  0.00000000000E+00  0.00000000000E+00  0.12526830526E+04  0.12526830526E+04  0.00000000000E+00 0. -1.
         -2   -1    0    0    0  501 -0.00000000000E+00 -0.00000000000E+00 -0.15244720848E+02  0.15244720848E+02  0.00000000000E+00 0.  1.
         25    2    1    2    0    0  0.19355218147E+02 -0.36405875672E+02  0.10288087558E+04  0.10372064341E+04  0.12509883539E+03 0.  0.
         23    2    1    2    0    0 -0.19355218147E+02  0.36405875672E+02  0.20862957593E+03  0.23072133936E+03  0.89476389221E+02 0.  0.
          5    1    3    3  502    0 -0.45394990808E+02 -0.46586842152E+02  0.57159821456E+03  0.57530255548E+03  0.41800000000E+01 0. -1.
         -5    1    3    3    0  502  0.64750208955E+02  0.10180966480E+02  0.45721054123E+03  0.46190387859E+03  0.41800000000E+01 0. -1.
        -11    1    4    4    0    0 -0.22614767851E+02 -0.16379117607E+02  0.14647170370E+03  0.14910956778E+03  0.00000000000E+00 0. -1.
         11    1    4    4    0    0  0.32595497049E+01  0.52784993279E+02  0.62157872235E+02  0.81611771580E+02  0.00000000000E+00 0.  1.
</event>
<event>
 8    1  0.6493926E-009  0.1042531E+03  0.7561462E-02  0.1271598E+00
          2   -1    0    0  501    0  0.00000000000E+00  0.00000000000E+00  0.84176674122E+03  0.84176674122E+03  0.00000000000E+00 0.  1.
         -2   -1    0    0    0  501 -0.00000000000E+00 -0.00000000000E+00 -0.23247267929E+02  0.23247267929E+02  0.00000000000E+00 0. -1.
         25    2    1    2    0    0 -0.55262828122E+02 -0.64546737267E+02  0.51530897256E+03  0.53703700046E+03  0.12508053885E+03 0.  0.
         23    2    1    2    0    0  0.55262828122E+02  0.64546737267E+02  0.30321050073E+03  0.32797700869E+03  0.91717223092E+02 0.  0.
          5    1    3    3  502    0 -0.32180381263E+02 -0.33011532544E+02  0.48551670061E+03  0.48771844049E+03  0.41800000000E+01 0.  1.
         -5    1    3    3    0  502 -0.23082446859E+02 -0.31535204723E+02  0.29792271950E+02  0.49318559974E+02  0.41800000000E+01 0.  1.
        -11    1    4    4    0    0 -0.10404735859E+02 -0.15940453249E+02  0.72542371359E+02  0.74998348119E+02  0.00000000000E+00 0.  1.
         11    1    4    4    0    0  0.65667563981E+02  0.80487190516E+02  0.23066812937E+03  0.25297866057E+03  0.00000000000E+00 0. -1.
</event>
<event>
 8    1  0.6493926E-009  0.1589433E+03  0.7561462E-02  0.1189895E+00
         -2   -1    0    0    0  501 -0.00000000000E+00  0.00000000000E+00  0.61388896089E+03  0.61388896089E+03  0.00000000000E+00 0.  1.
          2   -1    0    0  501    0  0.00000000000E+00 -0.00000000000E+00 -0.61230810339E+02  0.61230810339E+02  0.00000000000E+00 0. -1.
         25    2    1    2    0    0  0.23259765483E+02  0.13305618853E+03  0.14176507601E+03  0.23235737416E+03  0.12509055341E+03 0.  0.
         23    2    1    2    0    0 -0.23259765483E+02 -0.13305618853E+03  0.41089307454E+03  0.44276239707E+03  0.94659682854E+02 0.  0.
          5    1    3    3  502    0  0.54438622762E+02  0.13467255313E+03  0.87546841258E+02  0.16965312266E+03  0.41800000000E+01 0. -1.
         -5    1    3    3    0  502 -0.31178857279E+02 -0.16163646054E+01  0.54218234751E+02  0.62704251493E+02  0.41800000000E+01 0. -1.
        -11    1    4    4    0    0 -0.34561108856E+02 -0.11143306792E+03  0.39883073326E+03  0.41554512711E+03  0.00000000000E+00 0.  1.
         11    1    4    4    0    0  0.11301343373E+02 -0.21623120610E+02  0.12062341279E+02  0.27217269960E+02  0.00000000000E+00 0. -1.
</event>
<event>
 8    1  0.6493926E-009  0.1849810E+03  0.7561462E-02  0.1163068E+00
         -2   -1    0    0    0  501 -0.00000000000E+00  0.00000000000E+00  0.22831192527E+03  0.22831192527E+03  0.00000000000E+00 0.  1.
          2   -1    0    0  501    0  0.00000000000E+00 -0.00000000000E+00 -0.16378966874E+03  0.16378966874E+03  0.00000000000E+00 0. -1.
         25    2    1    2    0    0  0.33149178848E+02 -0.15182388067E+03  0.62098435516E+02  0.20893468390E+03  0.12509247636E+03 0.  0.
         23    2    1    2    0    0 -0.33149178848E+02  0.15182388067E+03  0.24238210188E+01  0.18316691011E+03  0.96927205923E+02 0.  0.
          5    1    3    3  502    0 -0.38180038960E+02 -0.56036490543E+02  0.58059076599E+02  0.89365163363E+02  0.41800000000E+01 0.  1.
         -5    1    3    3    0  502  0.71329217808E+02 -0.95787390130E+02  0.40393589171E+01  0.11956952054E+03  0.41800000000E+01 0.  1.
        -11    1    4    4    0    0 -0.43647024012E+02  0.16294318308E+02 -0.59815692724E+01  0.46971764765E+02  0.00000000000E+00 0.  1.
         11    1    4    4    0    0  0.10497845164E+02  0.13552956237E+03  0.84053902913E+01  0.13619514534E+03  0.00000000000E+00 0. -1.
</event>
<event>
 8    1  0.6493926E-009  0.1063701E+03  0.7561462E-02  0.1267443E+00
          1   -1    0    0  501    0  0.00000000000E+00  0.00000000000E+00  0.36358003073E+02  0.36358003073E+02  0.00000000000E+00 0. -1.
         -1   -1    0    0    0  501 -0.00000000000E+00 -0.00000000000E+00 -0.33814320161E+03  0.33814320161E+03  0.00000000000E+00 0.  1.
         25    2    1    2    0    0 -0.58858715983E+01  0.85070569033E+01 -0.22283621620E+03  0.25575467556E+03  0.12508981301E+03 0.  0.
         23    2    1    2    0    0  0.58858715983E+01 -0.85070569033E+01 -0.78948982335E+02  0.11874652912E+03  0.88095305577E+02 0.  0.
          5    1    3    3  502    0  0.43255296666E+02 -0.37432038198E+02 -0.88535583068E+02  0.10549028411E+03  0.41800000000E+01 0.  1.
         -5    1    3    3    0  502 -0.49141168264E+02  0.45939095101E+02 -0.13430063313E+03  0.15026439144E+03  0.41800000000E+01 0.  1.
        -11    1    4    4    0    0 -0.40780895515E+02 -0.16224063519E+01 -0.44174605141E+02  0.60142409170E+02  0.00000000000E+00 0.  1.
         11    1    4    4    0    0  0.46666767113E+02 -0.68846505514E+01 -0.34774377194E+02  0.58604119951E+02  0.00000000000E+00 0. -1.
</event>
<event>
 8    1  0.6493926E-009  0.1191247E+03  0.7561462E-02  0.1244548E+00
          1   -1    0    0  501    0  0.00000000000E+00  0.00000000000E+00  0.27442379685E+03  0.27442379685E+03  0.00000000000E+00 0. -1.
         -1   -1    0    0    0  501 -0.00000000000E+00 -0.00000000000E+00 -0.66625763125E+02  0.66625763125E+02  0.00000000000E+00 0.  1.
         25    2    1    2    0    0 -0.31894353105E+02  0.71415421543E+02  0.10588927562E+03  0.18160090902E+03  0.12509572043E+03 0.  0.
         23    2    1    2    0    0  0.31894353105E+02 -0.71415421543E+02  0.10190875810E+03  0.15944865095E+03  0.94451390244E+02 0.  0.
          5    1    3    3  502    0 -0.71731024023E+02  0.51703689721E+02  0.10447631355E+03  0.13693569232E+03  0.41800000000E+01 0.  1.
         -5    1    3    3    0  502  0.39836670918E+02  0.19711731822E+02  0.14129620762E+01  0.44665216702E+02  0.41800000000E+01 0.  1.
        -11    1    4    4    0    0  0.53545196512E+02 -0.39583606938E+02  0.10095790152E+03  0.12093985236E+03  0.00000000000E+00 0. -1.
         11    1    4    4    0    0 -0.21650843407E+02 -0.31831814604E+02  0.95085657744E+00  0.38508798598E+02  0.00000000000E+00 0.  1.
</event>
<event>
 8    1  0.6493926E-009  0.1027679E+03  0.7561462E-02  0.1274581E+00
          1   -1    0    0  501    0  0.00000000000E+00  0.00000000000E+00  0.78229382111E+02  0.78229382111E+02  0.00000000000E+00 0. -1.
         -1   -1    0    0    0  501 -0.00000000000E+00 -0.00000000000E+00 -0.20289813034E+03  0.20289813034E+03  0.00000000000E+00 0.  1.
         25    2    1    2    0    0  0.10511479592E+02  0.17483273123E+02 -0.13715658570E+03  0.18675148076E+03  0.12509208817E+03 0.  0.
         23    2    1    2    0    0 -0.10511479592E+02 -0.17483273123E+02  0.12487837470E+02  0.94376031693E+02  0.91294760152E+02 0.  0.
          5    1    3    3  502    0 -0.38973142579E+02 -0.36144743360E+02 -0.64623509175E+02  0.83779583749E+02  0.41800000000E+01 0.  1.
         -5    1    3    3    0  502  0.49484622171E+02  0.53628016483E+02 -0.72533076523E+02  0.10297189701E+03  0.41800000000E+01 0.  1.
        -11    1    4    4    0    0  0.26437456939E+02 -0.30120626138E+02  0.31470191006E+02  0.50956492915E+02  0.00000000000E+00 0.  1.
         11    1    4    4    0    0 -0.36948936531E+02  0.12637353015E+02 -0.18982353535E+02  0.43419538778E+02  0.00000000000E+00 0. -1.
</event>
<event>
 8    1  0.6493926E-009  0.7651879E+02  0.7561462E-02  0.1339231E+00
          4   -1    0    0  501    0  0.00000000000E+00  0.00000000000E+00  0.46182469394E+02  0.46182469394E+02  0.00000000000E+00 0. -1.
         -4   -1    0    0    0  501 -0.00000000000E+00 -0.00000000000E+00 -0.28306671755E+03  0.28306671755E+03  0.00000000000E+00 0.  1.
         25    2    1    2    0    0 -0.10052752297E+02  0.29158188852E+02 -0.10883403734E+03  0.16865304310E+03  0.12509094075E+03 0.  0.
         23    2    1    2    0    0  0.10052752297E+02 -0.29158188852E+02 -0.12805021082E+03  0.16059614385E+03  0.91885837441E+02 0.  0.
          5    1    3    3  502    0  0.17337125055E+02  0.16220780925E+01  0.24141786364E+02  0.30058364748E+02  0.41800000000E+01 0.  1.
         -5    1    3    3    0  502 -0.27389877352E+02  0.27536110759E+02 -0.13297582371E+03  0.13859467835E+03  0.41800000000E+01 0.  1.
        -11    1    4    4    0    0  0.43185069353E+02  0.10446926587E+02 -0.48682817699E+02  0.65909826500E+02  0.00000000000E+00 0. -1.
         11    1    4    4    0    0 -0.33132317056E+02 -0.39605115438E+02 -0.79367393116E+02  0.94686317345E+02  0.00000000000E+00 0.  1.
</event>
<event>
 8    1  0.6493926E-009  0.1643089E+03  0.7561462E-02  0.1183916E+00
         -1   -1    0    0    0  501 -0.00000000000E+00  0.00000000000E+00  0.45968822910E+02  0.45968822910E+02  0.00000000000E+00 0.  1.
          1   -1    0    0  501    0  0.00000000000E+00 -0.00000000000E+00 -0.67990350409E+03  0.67990350409E+03  0.00000000000E+00 0. -1.
         25    2    1    2    0    0 -0.12645634519E+03 -0.37210132218E+02 -0.44002023093E+03  0.47606938393E+03  0.12509377883E+03 0.  0.
         23    2    1    2    0    0  0.12645634519E+03  0.37210132218E+02 -0.19391445025E+03  0.24980294308E+03  0.86156225396E+02 0.  0.
          5    1    3    3  502    0 -0.14602695644E+03 -0.22806922615E+02 -0.41661135635E+03  0.44207072100E+03  0.41800000000E+01 0.  1.
         -5    1    3    3    0  502  0.19570611247E+02 -0.14403209603E+02 -0.23408874581E+02  0.33998662924E+02  0.41800000000E+01 0.  1.
        -11    1    4    4    0    0  0.14729897742E+02  0.41764400931E+02 -0.70595437951E+02  0.83336372204E+02  0.00000000000E+00 0.  1.
         11    1    4    4    0    0  0.11172644745E+03 -0.45542687126E+01 -0.12331901230E+03  0.16646657087E+03  0.00000000000E+00 0. -1.
</event>
<event>
 8    1  0.6493926E-009  0.1275091E+03  0.7561462E-02  0.1231199E+00
          2   -1    0    0  501    0  0.00000000000E+00  0.00000000000E+00  0.25505383107E+03  0.25505383107E+03  0.00000000000E+00 0. -1.
         -2   -1    0    0    0  501 -0.00000000000E+00 -0.00000000000E+00 -0.73895096638E+02  0.73895096638E+02  0.00000000000E+00 0.  1.
         25    2    1    2    0    0 -0.55440904940E+02 -0.56750252737E+02  0.12842713174E+03  0.19604670636E+03  0.12508596156E+03 0.  0.
         23    2    1    2    0    0  0.55440904940E+02  0.56750252737E+02  0.52731602689E+02  0.13290222135E+03  0.92671966589E+02 0.  0.
          5    1    3    3  502    0  0.37990718336E+02 -0.14763697502E+02  0.16239125940E+02  0.44073155717E+02  0.41800000000E+01 0.  1.
         -5    1    3    3    0  502 -0.93431623276E+02 -0.41986555235E+02  0.11218800580E+03  0.15197355064E+03  0.41800000000E+01 0.  1.
        -11    1    4    4    0    0  0.65483478264E+02  0.13155302095E+02  0.42397998235E+01  0.66926256442E+02  0.00000000000E+00 0.  1.
         11    1    4    4    0    0 -0.10042573324E+02  0.43594950642E+02  0.48491802865E+02  0.65975964908E+02  0.00000000000E+00 0. -1.
</event>
<event>
 8    1  0.6493926E-009  0.1302092E+03  0.7561462E-02  0.1227146E+00
         -2   -1    0    0    0  501 -0.00000000000E+00  0.00000000000E+00  0.52103718229E+02  0.52103718229E+02  0.00000000000E+00 0.  1.
          2   -1    0    0  501    0  0.00000000000E+00 -0.00000000000E+00 -0.37617826696E+03  0.37617826696E+03  0.00000000000E+00 0. -1.
         25    2    1    2    0    0 -0.86053331526E+02  0.69112125469E+01 -0.20869993642E+03  0.25817877219E+03  0.12509066401E+03 0.  0.
         23    2    1    2    0    0  0.86053331526E+02 -0.69112125469E+01 -0.11537461232E+03  0.17010321300E+03  0.90392815982E+02 0.  0.
          5    1    3    3  502    0  0.11603117348E+02  0.33762646940E+02 -0.11372607030E+03  0.11927128794E+03  0.41800000000E+01 0.  1.
         -5    1    3    3    0  502 -0.97656448873E+02 -0.26851434393E+02 -0.94973866114E+02  0.13890748425E+03  0.41800000000E+01 0.  1.
        -11    1    4    4    0    0  0.58579328107E+02  0.38452243331E+02 -0.50840645509E+02  0.86572997721E+02  0.00000000000E+00 0.  1.
         11    1    4    4    0    0  0.27474003419E+02 -0.45363455878E+02 -0.64533966806E+02  0.83530215281E+02  0.00000000000E+00 0. -1.
</event>
<event>
 8    1  0.6493926E-009  0.1062642E+03  0.7561462E-02  0.1267649E+00
         -2   -1    0    0    0  501 -0.00000000000E+00  0.00000000000E+00  0.10444160865E+03  0.10444160865E+03  0.00000000000E+00 0.  1.
          2   -1    0    0  501    0  0.00000000000E+00 -0.00000000000E+00 -0.15740805632E+03  0.15740805632E+03  0.00000000000E+00 0. -1.
         25    2    1    2    0    0 -0.37913216668E+02  0.42565034121E+02 -0.66663101747E+02  0.15277513509E+03  0.12508828338E+03 0.  0.
         23    2    1    2    0    0  0.37913216668E+02 -0.42565034121E+02  0.13696654076E+02  0.10907452988E+03  0.91980762163E+02 0.  0.
          5    1    3    3  502    0  0.23968691570E+02  0.35572433247E+02 -0.78211847108E+02  0.89299841045E+02  0.41800000000E+01 0. -1.
         -5    1    3    3    0  502 -0.61881908238E+02  0.69926008740E+01  0.11548745361E+02  0.63475294040E+02  0.41800000000E+01 0. -1.
        -11    1    4    4    0    0 -0.26593807991E+02  0.47519614333E+01  0.10581865552E+02  0.29013576813E+02  0.00000000000E+00 0.  1.
         11    1    4    4    0    0  0.64507024659E+02 -0.47316995555E+02  0.31147885245E+01  0.80060953069E+02  0.00000000000E+00 0. -1.
</event>
<event>
 8    1  0.6493926E-009  0.1054883E+03  0.7561462E-02  0.1269161E+00
          3   -1    0    0  501    0  0.00000000000E+00  0.00000000000E+00  0.18137082329E+03  0.18137082329E+03  0.00000000000E+00 0. -1.
         -3   -1    0    0    0  501 -0.00000000000E+00 -0.00000000000E+00 -0.12710357137E+03  0.12710357137E+03  0.00000000000E+00 0.  1.
         25    2    1    2    0    0 -0.52576227003E+02 -0.67310789868E+02 -0.34610777511E+02  0.15537295202E+03  0.12509135150E+03 0.  0.
         23    2    1    2    0    0  0.52576227003E+02  0.67310789868E+02  0.88878029436E+02  0.15310144264E+03  0.90806087592E+02 0.  0.
          5    1    3    3  502    0  0.16406098585E+02 -0.44311495961E+02 -0.61556282824E+02  0.77713043308E+02  0.41800000000E+01 0.  1.
         -5    1    3    3    0  502 -0.68982325589E+02 -0.22999293907E+02  0.26945505313E+02  0.77659908707E+02  0.41800000000E+01 0.  1.
        -11    1    4    4    0    0  0.36424904730E+02  0.21885091856E+02 -0.95019888728E+01  0.43543297104E+02  0.00000000000E+00 0.  1.
         11    1    4    4    0    0  0.16151322273E+02  0.45425698011E+02  0.98380018309E+02  0.10955814554E+03  0.00000000000E+00 0. -1.
</event>
<event>
 8    1  0.6493926E-009  0.1376490E+03  0.7561462E-02  0.1216528E+00
          1   -1    0    0  501    0  0.00000000000E+00  0.00000000000E+00  0.18404436327E+03  0.18404436327E+03  0.00000000000E+00 0. -1.
         -1   -1    0    0    0  501 -0.00000000000E+00 -0.00000000000E+00 -0.14918817363E+03  0.14918817363E+03  0.00000000000E+00 0.  1.
         25    2    1    2    0    0 -0.40280983308E+02  0.10918732720E+03 -0.27371810252E+02  0.17303588973E+03  0.12509105923E+03 0.  0.
         23    2    1    2    0    0  0.40280983308E+02 -0.10918732720E+03  0.62227999887E+02  0.16019664717E+03  0.90808654632E+02 0.  0.
          5    1    3    3  502    0  0.84486405701E+01  0.10949155882E+03 -0.48040994415E+02  0.11993827798E+03  0.41800000000E+01 0.  1.
         -5    1    3    3    0  502 -0.48729623878E+02 -0.30423161218E+00  0.20669184163E+02  0.53097611755E+02  0.41800000000E+01 0.  1.
        -11    1    4    4    0    0  0.28395635040E+02 -0.83293288123E+02 -0.40090978655E+01  0.88091752176E+02  0.00000000000E+00 0.  1.
         11    1    4    4    0    0  0.11885348268E+02 -0.25894039081E+02  0.66237097752E+02  0.72104894993E+02  0.00000000000E+00 0. -1.
</event>
<event>
 8    1  0.6493926E-009  0.1583121E+03  0.7561462E-02  0.1190616E+00
         -1   -1    0    0    0  501 -0.00000000000E+00  0.00000000000E+00  0.42487594320E+02  0.42487594320E+02  0.00000000000E+00 0.  1.
          1   -1    0    0  501    0  0.00000000000E+00 -0.00000000000E+00 -0.74745048633E+03  0.74745048633E+03  0.00000000000E+00 0. -1.
         25    2    1    2    0    0 -0.12399330162E+03  0.60423737231E+02 -0.32637670192E+03  0.37575785070E+03  0.12508734523E+03 0.  0.
         23    2    1    2    0    0  0.12399330162E+03 -0.60423737231E+02 -0.37858619010E+03  0.41418022996E+03  0.95876966405E+02 0.  0.
          5    1    3    3  502    0 -0.94251212779E+02  0.10002574577E+02 -0.29357617184E+03  0.30852517512E+03  0.41800000000E+01 0. -1.
         -5    1    3    3    0  502 -0.29742088845E+02  0.50421162654E+02 -0.32800530078E+02  0.67232675580E+02  0.41800000000E+01 0. -1.
        -11    1    4    4    0    0 -0.13602897808E+02 -0.28010206424E+01 -0.11818542778E+02  0.18236296192E+02  0.00000000000E+00 0.  1.
         11    1    4    4    0    0  0.13759619943E+03 -0.57622716589E+02 -0.36676764732E+03  0.39594393376E+03  0.00000000000E+00 0. -1.
</event>
<event>
 8    1  0.6493926E-009  0.1431037E+03  0.7561462E-02  0.1209213E+00
          2   -1    0    0  501    0  0.00000000000E+00  0.00000000000E+00  0.58513582043E+03  0.58513582043E+03  0.00000000000E+00 0. -1.
         -2   -1    0    0    0  501 -0.00000000000E+00 -0.00000000000E+00 -0.39699183423E+02  0.39699183423E+02  0.00000000000E+00 0.  1.
         25    2    1    2    0    0 -0.10058556561E+03  0.35546536417E+02  0.28882252544E+03  0.33233510427E+03  0.12508860086E+03 0.  0.
         23    2    1    2    0    0  0.10058556561E+03 -0.35546536417E+02  0.25661411156E+03  0.29249989958E+03  0.91238022454E+02 0.  0.
          5    1    3    3  502    0  0.22063399176E+02  0.34873429649E+02  0.65966971589E+02  0.77923445889E+02  0.41800000000E+01 0. -1.
         -5    1    3    3    0  502 -0.12264896479E+03  0.67310676887E+00  0.22285555385E+03  0.25441165838E+03  0.41800000000E+01 0. -1.
        -11    1    4    4    0    0  0.75200747054E+02 -0.52293862016E+02  0.11181680492E+03  0.14454341294E+03  0.00000000000E+00 0.  1.
         11    1    4    4    0    0  0.25384818557E+02  0.16747325598E+02  0.14479730665E+03  0.14795648664E+03  0.00000000000E+00 0. -1.
</event>
<event>
 8    1  0.6493926E-009  0.1111319E+03  0.7561462E-02  0.1258488E+00
          3   -1    0    0  501    0  0.00000000000E+00  0.00000000000E+00  0.17595398524E+03  0.17595398524E+03  0.00000000000E+00 0. -1.
         -3   -1    0    0    0  501 -0.00000000000E+00 -0.00000000000E+00 -0.22269705559E+03  0.22269705559E+03  0.00000000000E+00 0.  1.
         25    2    1    2    0    0  0.56570359982E+02  0.47245769606E+02  0.12430006504E+03  0.19112962507E+03  0.12509060331E+03 0.  0.
         23    2    1    2    0    0 -0.56570359982E+02 -0.47245769606E+02 -0.17104313540E+03  0.20752141576E+03  0.91526037043E+02 0.  0.
          5    1    3    3  502    0  0.74618185050E+02 -0.10510849752E+02  0.10115941139E+03  0.12621034195E+03  0.41800000000E+01 0. -1.
         -5    1    3    3    0  502 -0.18047825068E+02  0.57756619358E+02  0.23140653650E+02  0.64919283119E+02  0.41800000000E+01 0. -1.
        -11    1    4    4    0    0 -0.17509957915E+02  0.73653213312E+01  0.45465882813E+01  0.19532487028E+02  0.00000000000E+00 0. -1.
         11    1    4    4    0    0 -0.39060402067E+02 -0.54611090938E+02 -0.17558972368E+03  0.18798892873E+03  0.00000000000E+00 0.  1.
</event>
<event>
 8    1  0.6493926E-009  0.9369812E+02  0.7561462E-02  0.1294135E+00
          1   -1    0    0  501    0  0.00000000000E+00  0.00000000000E+00  0.55439251187E+02  0.55439251187E+02  0.00000000000E+00 0. -1.
         -1   -1    0    0    0  501 -0.00000000000E+00 -0.00000000000E+00 -0.39329909706E+03  0.39329909706E+03  0.00000000000E+00 0.  1.
         25    2    1    2    0    0  0.22017463961E+02 -0.84382746944E+01 -0.32556584924E+03  0.34956790825E+03  0.12509447265E+03 0.  0.
         23    2    1    2    0    0 -0.22017463961E+02  0.84382746944E+01 -0.12293996636E+02  0.99170440002E+02  0.95538791168E+02 0.  0.
          5    1    3    3  502    0 -0.66200189377E+01 -0.47153015109E+02 -0.47694756038E+02  0.67524022675E+02  0.41800000000E+01 0. -1.
         -5    1    3    3    0  502  0.28637482898E+02  0.38714740415E+02 -0.27787109320E+03  0.28204388557E+03  0.41800000000E+01 0. -1.
        -11    1    4    4    0    0 -0.54049548927E+02  0.19369353042E+02  0.10496072724E+02  0.58366883753E+02  0.00000000000E+00 0. -1.
         11    1    4    4    0    0  0.32032084966E+02 -0.10931078348E+02 -0.22790069360E+02  0.40803556249E+02  0.00000000000E+00 0.  1.
</event>
<event>
 8    1  0.6493926E-009  0.1350756E+03  0.7561462E-02  0.1220113E+00
         -1   -1    0    0    0  501 -0.00000000000E+00  0.00000000000E+00  0.44402003011E+02  0.44402003011E+02  0.00000000000E+00 0.  1.
          1   -1    0    0  501    0  0.00000000000E+00 -0.00000000000E+00 -0.57751742218E+03  0.57751742218E+03  0.00000000000E+00 0. -1.
         25    2    1    2    0    0 -0.11455909415E+03 -0.98665882453E+01 -0.24607870364E+03  0.29903656350E+03  0.12508797826E+03 0.  0.
         23    2    1    2    0    0  0.11455909415E+03  0.98665882453E+01 -0.28703671553E+03  0.32288286169E+03  0.92963060924E+02 0.  0.
          5    1    3    3  502    0 -0.86776095417E+02  0.39036995715E+02 -0.82496049903E+02  0.12600416033E+03  0.41800000000E+01 0.  1.
         -5    1    3    3    0  502 -0.27782998737E+02 -0.48903583960E+02 -0.16358265374E+03  0.17303240317E+03  0.41800000000E+01 0.  1.
        -11    1    4    4    0    0  0.74784236548E+02  0.20097683674E+02 -0.78228468852E+02  0.11007403083E+03  0.00000000000E+00 0. -1.
         11    1    4    4    0    0  0.39774857607E+02 -0.10231095429E+02 -0.20880824668E+03  0.21280883086E+03  0.00000000000E+00 0.  1.
</event>
<event>
 8    1  0.6493926E-009  0.2091266E+03  0.7561462E-02  0.1142259E+00
         -2   -1    0    0    0  501 -0.00000000000E+00  0.00000000000E+00  0.49779944189E+02  0.49779944189E+02  0.00000000000E+00 0.  1.
          2   -1    0    0  501    0  0.00000000000E+00 -0.00000000000E+00 -0.10517437877E+04  0.10517437877E+04  0.00000000000E+00 0. -1.
         25    2    1    2    0    0  0.12368655296E+03  0.15203701754E+03 -0.62787019999E+03  0.66953994599E+03  0.12509649537E+03 0.  0.
         23    2    1    2    0    0 -0.12368655296E+03 -0.15203701754E+03 -0.37409364355E+03  0.43198378593E+03  0.90831267050E+02 0.  0.
          5    1    3    3  502    0 -0.91190871327E+01  0.31370749441E+02 -0.23885374222E+03  0.24111379936E+03  0.41800000000E+01 0.  1.
         -5    1    3    3    0  502  0.13280564009E+03  0.12066626810E+03 -0.38901645776E+03  0.42842614662E+03  0.41800000000E+01 0.  1.
        -11    1    4    4    0    0 -0.74431923156E+02 -0.42453427323E+02 -0.93912912851E+02  0.12713001171E+03  0.00000000000E+00 0.  1.
         11    1    4    4    0    0 -0.49254629804E+02 -0.10958359022E+03 -0.28018073070E+03  0.30485377422E+03  0.00000000000E+00 0. -1.
</event>
<event>
 8    1  0.6493926E-009  0.1125169E+03  0.7561462E-02  0.1255979E+00
         -1   -1    0    0    0  501 -0.00000000000E+00  0.00000000000E+00  0.29642813430E+03  0.29642813430E+03  0.00000000000E+00 0.  1.
          1   -1    0    0  501    0  0.00000000000E+00 -0.00000000000E+00 -0.74828702759E+02  0.74828702759E+02  0.00000000000E+00 0. -1.
         25    2    1    2    0    0  0.22293431838E+02  0.72403474613E+02  0.20269003836E+03  0.24994130140E+03  0.12509253477E+03 0.  0.
         23    2    1    2    0    0 -0.22293431838E+02 -0.72403474613E+02  0.18909393186E+02  0.12131553567E+03  0.92847368323E+02 0.  0.
          5    1    3    3  502    0 -0.23522149534E+02 -0.37374171551E+01  0.13760644708E+03  0.13971494724E+03  0.41800000000E+01 0. -1.
         -5    1    3    3    0  502  0.45815581372E+02  0.76140891768E+02  0.65083591278E+02  0.11022635415E+03  0.41800000000E+01 0. -1.
        -11    1    4    4    0    0  0.19128187400E+02  0.85535812583E+01 -0.13326808370E+02  0.24832541692E+02  0.00000000000E+00 0. -1.
         11    1    4    4    0    0 -0.41421619239E+02 -0.80957055871E+02  0.32236201556E+02  0.96482993976E+02  0.00000000000E+00 0.  1.
</event>
<event>
 8    1  0.6493926E-009  0.1246235E+03  0.7561462E-02  0.1235659E+00
          1   -1    0    0  501    0  0.00000000000E+00  0.00000000000E+00  0.19170879346E+03  0.19170879346E+03  0.00000000000E+00 0. -1.
         -1   -1    0    0    0  501 -0.00000000000E+00 -0.00000000000E+00 -0.11068515060E+03  0.11068515060E+03  0.00000000000E+00 0.  1.
         25    2    1    2    0    0  0.56434907872E+02 -0.78956130055E+02  0.41495156621E+02  0.16366876509E+03  0.12508655941E+03 0.  0.
         23    2    1    2    0    0 -0.56434907872E+02  0.78956130055E+02  0.39528486239E+02  0.13872517896E+03  0.90902171340E+02 0.  0.
          5    1    3    3  502    0  0.39938303871E+02  0.24385736957E+02 -0.82863390024E+01  0.47706059333E+02  0.41800000000E+01 0. -1.
         -5    1    3    3    0  502  0.16496604001E+02 -0.10334186701E+03  0.49781495623E+02  0.11596270576E+03  0.41800000000E+01 0. -1.
        -11    1    4    4    0    0 -0.10381434531E+02  0.87919361659E+01 -0.27916921614E+02  0.31055222377E+02  0.00000000000E+00 0.  1.
         11    1    4    4    0    0 -0.46053473341E+02  0.70164193889E+02  0.67445407854E+02  0.10766995659E+03  0.00000000000E+00 0. -1.
</event>
<event>
 8    1  0.6493926E-009  0.6862748E+02  0.7561462E-02  0.1364824E+00
         -1   -1    0    0    0  501 -0.00000000000E+00  0.00000000000E+00  0.37034618025E+03  0.37034618025E+03  0.00000000000E+00 0.  1.
          1   -1    0    0  501    0  0.00000000000E+00 -0.00000000000E+00 -0.38441358973E+02  0.38441358973E+02  0.00000000000E+00 0. -1.
         25    2    1    2    0    0 -0.37953252086E+02  0.36885515712E+01  0.13117044851E+03  0.18522242536E+03  0.12509038947E+03 0.  0.
         23    2    1    2    0    0  0.37953252086E+02 -0.36885515712E+01  0.20073437277E+03  0.22356511386E+03  0.90735973948E+02 0.  0.
          5    1    3    3  502    0 -0.23983921990E+02  0.37722815746E+01  0.15518458803E+03  0.15712793317E+03  0.41800000000E+01 0.  1.
         -5    1    3    3    0  502 -0.13969330097E+02 -0.83730003470E-01 -0.24014139523E+02  0.28094492184E+02  0.41800000000E+01 0.  1.
        -11    1    4    4    0    0 -0.27777969142E+02 -0.14640606436E+02  0.73803127499E+02  0.80205140453E+02  0.00000000000E+00 0.  1.
         11    1    4    4    0    0  0.65731221228E+02  0.10952054865E+02  0.12693124527E+03  0.14335997341E+03  0.00000000000E+00 0. -1.
</event>
<event>
 8    1  0.6493926E-009  0.1303446E+03  0.7561462E-02  0.1226945E+00
         -3   -1    0    0    0  501 -0.00000000000E+00  0.00000000000E+00  0.32521860687E+03  0.32521860687E+03  0.00000000000E+00 0.  1.
          3   -1    0    0  501    0  0.00000000000E+00 -0.00000000000E+00 -0.86629386930E+02  0.86629386930E+02  0.00000000000E+00 0. -1.
         25    2    1    2    0    0  0.12769884278E+03 -0.62640675739E+01  0.10964915709E+03  0.20980161220E+03  0.12509015085E+03 0.  0.
         23    2    1    2    0    0 -0.12769884278E+03  0.62640675739E+01  0.12894006285E+03  0.20204638160E+03  0.88605685592E+02 0.  0.
          5    1    3    3  502    0  0.79603232123E+02 -0.38663484637E+00 -0.10292116560E+02  0.80375519371E+02  0.41800000000E+01 0.  1.
         -5    1    3    3    0  502  0.48095610661E+02 -0.58774327275E+01  0.11994127365E+03  0.12942609283E+03  0.41800000000E+01 0.  1.
        -11    1    4    4    0    0 -0.66362779500E+02  0.20343242191E+02  0.11979926553E+03  0.13845479417E+03  0.00000000000E+00 0.  1.
         11    1    4    4    0    0 -0.61336063283E+02 -0.14079174617E+02  0.91407973226E+01  0.63591587437E+02  0.00000000000E+00 0. -1.
</event>
<event>
 8    1  0.6493926E-009  0.9440953E+02  0.7561462E-02  0.1292512E+00
          4   -1    0    0  501    0  0.00000000000E+00  0.00000000000E+00  0.23671556624E+03  0.23671556624E+03  0.00000000000E+00 0. -1.
         -4   -1    0    0    0  501 -0.00000000000E+00 -0.00000000000E+00 -0.52308391137E+02  0.52308391137E+02  0.00000000000E+00 0.  1.
         25    2    1    2    0    0 -0.30653718965E+02  0.19391113891E+01  0.87905392231E+02  0.15594211639E+03  0.12508866872E+03 0.  0.
         23    2    1    2    0    0  0.30653718965E+02 -0.19391113891E+01  0.96501782874E+02  0.13308184099E+03  0.86341019585E+02 0.  0.
          5    1    3    3  502    0 -0.55674355704E+02 -0.34927975363E+02  0.10722069469E+02  0.66723552960E+02  0.41800000000E+01 0.  1.
         -5    1    3    3    0  502  0.25020636739E+02  0.36867086752E+02  0.77183322762E+02  0.89218563433E+02  0.41800000000E+01 0.  1.
        -11    1    4    4    0    0 -0.13384000311E+02 -0.25106633052E+02  0.72404974902E+02  0.77794311348E+02  0.00000000000E+00 0. -1.
         11    1    4    4    0    0  0.44037719276E+02  0.23167521663E+02  0.24096807972E+02  0.55287529638E+02  0.00000000000E+00 0.  1.
</event>
<event>
 8    1  0.6493926E-009  0.1152048E+03  0.7561462E-02  0.1251224E+00
         -1   -1    0    0    0  501 -0.00000000000E+00  0.00000000000E+00  0.48346831494E+03  0.48346831494E+03  0.00000000000E+00 0.  1.
          1   -1    0    0  501    0  0.00000000000E+00 -0.00000000000E+00 -0.28295421859E+02  0.28295421859E+02  0.00000000000E+00 0. -1.
         25    2    1    2    0    0  0.31859422739E+02  0.23855861382E+02  0.21769708336E+03  0.25421176532E+03  0.12508987403E+03 0.  0.
         23    2    1    2    0    0 -0.31859422739E+02 -0.23855861382E+02  0.23747580973E+03  0.25755197148E+03  0.91400945675E+02 0.  0.
          5    1    3    3  502    0  0.35000553711E+02 -0.47573803206E+02  0.88253934958E+02  0.10627574957E+03  0.41800000000E+01 0. -1.
         -5    1    3    3    0  502 -0.31411309718E+01  0.71429664588E+02  0.12944314840E+03  0.14793601574E+03  0.41800000000E+01 0. -1.
        -11    1    4    4    0    0 -0.26097510381E+02  0.33202120652E+02  0.10677370770E+03  0.11482197315E+03  0.00000000000E+00 0. -1.
         11    1    4    4    0    0 -0.57619123583E+01 -0.57057982034E+02  0.13070210203E+03  0.14272999833E+03  0.00000000000E+00 0.  1.
</event>
<event>
 8    1  0.6493926E-009  0.9956774E+02  0.7561462E-02  0.1281208E+00
          2   -1    0    0  501    0  0.00000000000E+00  0.00000000000E+00  0.80851138371E+03  0.80851138371E+03  0.00000000000E+00 0. -1.
         -2   -1    0    0    0  501 -0.00000000000E+00 -0.00000000000E+00 -0.20608251362E+02  0.20608251362E+02  0.00000000000E+00 0.  1.
         25    2    1    2    0    0  0.33397307684E+02 -0.27489003321E+02  0.61183742582E+03  0.62598983336E+03  0.12508880990E+03 0.  0.
         23    2    1    2    0    0 -0.33397307684E+02  0.27489003321E+02  0.17606570652E+03  0.20312980172E+03  0.91605446714E+02 0.  0.
          5    1    3    3  502    0 -0.18390447326E+02  0.39256944568E+02  0.13955963893E+03  0.14619740582E+03  0.41800000000E+01 0. -1.
         -5    1    3    3    0  502  0.51787755009E+02 -0.66745947889E+02  0.47227778690E+03  0.47979242754E+03  0.41800000000E+01 0. -1.
        -11    1    4    4    0    0 -0.30859812769E+02  0.44304858777E+02  0.17800484882E+03  0.18601337253E+03  0.00000000000E+00 0. -1.
         11    1    4    4    0    0 -0.25374949143E+01 -0.16815855457E+02 -0.19391423012E+01  0.17116429185E+02  0.00000000000E+00 0.  1.
</event>
<event>
 8    1  0.6493926E-009  0.1309785E+03  0.7561462E-02  0.1226011E+00
         -1   -1    0    0    0  501 -0.00000000000E+00  0.00000000000E+00  0.83042909526E+03  0.83042909526E+03  0.00000000000E+00 0.  1.
          1   -1    0    0  501    0  0.00000000000E+00 -0.00000000000E+00 -0.25331684904E+02  0.25331684904E+02  0.00000000000E+00 0. -1.
         25    2    1    2    0    0 -0.67300048956E+02  0.33445753634E+02  0.26134384638E+03  0.29932570919E+03  0.12508940450E+03 0.  0.
         23    2    1    2    0    0  0.67300048956E+02 -0.33445753634E+02  0.54375356398E+03  0.55643507098E+03  0.91127025877E+02 0.  0.
          5    1    3    3  502    0 -0.43817409880E+02  0.81159604095E+02  0.15693976721E+03  0.18208352390E+03  0.41800000000E+01 0. -1.
         -5    1    3    3    0  502 -0.23482639076E+02 -0.47713850461E+02  0.10440407917E+03  0.11724218529E+03  0.41800000000E+01 0. -1.
        -11    1    4    4    0    0  0.47552951623E+02  0.25614061503E+02  0.30185467289E+03  0.30664899624E+03  0.00000000000E+00 0.  1.
         11    1    4    4    0    0  0.19747097333E+02 -0.59059815137E+02  0.24189889110E+03  0.24978607473E+03  0.00000000000E+00 0. -1.
</event>
<event>
 8    1  0.6493926E-009  0.1086278E+03  0.7561462E-02  0.1263132E+00
         -2   -1    0    0    0  501 -0.00000000000E+00  0.00000000000E+00  0.55879615442E+02  0.55879615442E+02  0.00000000000E+00 0.  1.
          2   -1    0    0  501    0  0.00000000000E+00 -0.00000000000E+00 -0.32981340259E+03  0.32981340259E+03  0.00000000000E+00 0. -1.
         25    2    1    2    0    0  0.64087954451E+02 -0.10689463266E+02 -0.84142488868E+02  0.16416082757E+03  0.12508912161E+03 0.  0.
         23    2    1    2    0    0 -0.64087954451E+02  0.10689463266E+02 -0.18979129828E+03  0.22153219046E+03  0.93990658986E+02 0.  0.
          5    1    3    3  502    0 -0.21344094101E+02  0.16249017471E+01  0.19473403167E+02  0.29238612990E+02  0.41800000000E+01 0.  1.
         -5    1    3    3    0  502  0.85432048553E+02 -0.12314365013E+02 -0.10361589203E+03  0.13492221458E+03  0.41800000000E+01 0.  1.
        -11    1    4    4    0    0 -0.22908211625E+02  0.48174288343E+02 -0.59910676716E+02  0.80217438265E+02  0.00000000000E+00 0.  1.
         11    1    4    4    0    0 -0.41179742827E+02 -0.37484825076E+02 -0.12988062156E+03  0.14131475219E+03  0.00000000000E+00 0. -1.
</event>
<event>
 8    1  0.6493926E-009  0.9932533E+02  0.7561462E-02  0.1281721E+00
          2   -1    0    0  501    0  0.00000000000E+00  0.00000000000E+00  0.53159737142E+03  0.53159737142E+03  0.00000000000E+00 0. -1.
         -2   -1    0    0    0  501 -0.00000000000E+00 -0.00000000000E+00 -0.68830297694E+02  0.68830297694E+02  0.00000000000E+00 0.  1.
         25    2    1    2    0    0  0.78066283771E+02  0.51274473135E+01  0.29070202828E+02  0.15037933693E+03  0.12509289710E+03 0.  0.
         23    2    1    2    0    0 -0.78066283771E+02 -0.51274473135E+01  0.43369687089E+03  0.45004833218E+03  0.91268231609E+02 0.  0.
          5    1    3    3  502    0  0.76987892187E+02  0.85022350478E+01  0.72756714002E+02  0.10635053068E+03  0.41800000000E+01 0. -1.
         -5    1    3    3    0  502  0.10783915839E+01 -0.33747877343E+01 -0.43686511173E+02  0.44028806242E+02  0.41800000000E+01 0. -1.
        -11    1    4    4    0    0 -0.63824392353E+02 -0.41778045756E+02  0.33968351197E+03  0.34814342802E+03  0.00000000000E+00 0.  1.
         11    1    4    4    0    0 -0.14241891418E+02  0.36650598443E+02  0.94013358918E+02  0.10190490416E+03  0.00000000000E+00 0. -1.
</event>
<event>
 8    1  0.6493926E-009  0.9923860E+02  0.7561462E-02  0.1281905E+00
          1   -1    0    0  501    0  0.00000000000E+00  0.00000000000E+00  0.14889960063E+03  0.14889960063E+03  0.00000000000E+00 0. -1.
         -1   -1    0    0    0  501 -0.00000000000E+00 -0.00000000000E+00 -0.12015262721E+03  0.12015262721E+03  0.00000000000E+00 0.  1.
         25    2    1    2    0    0  0.37978030788E+02 -0.35816885185E+01 -0.53619365687E+02  0.14134404544E+03  0.12509174029E+03 0.  0.
         23    2    1    2    0    0 -0.37978030788E+02  0.35816885185E+01  0.82366339104E+02  0.12770818240E+03  0.89833216130E+02 0.  0.
          5    1    3    3  502    0  0.53430609297E+02 -0.36263330889E+02 -0.75062717172E+02  0.99104707690E+02  0.41800000000E+01 0.  1.
         -5    1    3    3    0  502 -0.15452578508E+02  0.32681642371E+02  0.21443351485E+02  0.42239337749E+02  0.41800000000E+01 0.  1.
        -11    1    4    4    0    0 -0.13199972256E+02 -0.42800816740E+02  0.42180835405E+02  0.61525377339E+02  0.00000000000E+00 0.  1.
         11    1    4    4    0    0 -0.24778058533E+02  0.46382505259E+02  0.40185503699E+02  0.66182805065E+02  0.00000000000E+00 0. -1.
</event>
<event>
 8    1  0.6493926E-009  0.8541184E+02  0.7561462E-02  0.1314359E+00
          1   -1    0    0  501    0  0.00000000000E+00  0.00000000000E+00  0.22034276199E+03  0.22034276199E+03  0.00000000000E+00 0. -1.
         -1   -1    0    0    0  501 -0.00000000000E+00 -0.00000000000E+00 -0.53967795666E+02  0.53967795666E+02  0.00000000000E+00 0.  1.
         25    2    1    2    0    0 -0.14646573147E+02  0.92728945133E+00  0.10217429614E+03  0.16220358497E+03  0.12512007917E+03 0.  0.
         23    2    1    2    0    0  0.14646573147E+02 -0.92728945133E+00  0.64200670179E+02  0.11210697269E+03  0.90724116438E+02 0.  0.
          5    1    3    3  502    0  0.50235468226E+02 -0.17219277055E+02  0.68483115643E+02  0.86761254592E+02  0.41800000000E+01 0. -1.
         -5    1    3    3    0  502 -0.64882041373E+02  0.18146566506E+02  0.33691180500E+02  0.75442330374E+02  0.41800000000E+01 0. -1.
        -11    1    4    4    0    0 -0.17377242386E+02 -0.41553646744E+01 -0.17060238780E+02  0.24703994732E+02  0.00000000000E+00 0.  1.
         11    1    4    4    0    0  0.32023815534E+02  0.32280752231E+01  0.81260908958E+02  0.87402977957E+02  0.00000000000E+00 0. -1.
</event>
<event>
 8    1  0.6493926E-009  0.1186754E+03  0.7561462E-02  0.1245298E+00
         -1   -1    0    0    0  501 -0.00000000000E+00  0.00000000000E+00  0.24631439939E+03  0.24631439939E+03  0.00000000000E+00 0.  1.
          1   -1    0    0  501    0  0.00000000000E+00 -0.00000000000E+00 -0.71638885241E+02  0.71638885241E+02  0.00000000000E+00 0. -1.
         25    2    1    2    0    0 -0.69658703066E+02 -0.34830342382E+02  0.10028398790E+03  0.17824126823E+03  0.12509030261E+03 0.  0.
         23    2    1    2    0    0  0.69658703066E+02  0.34830342382E+02  0.74391526253E+02  0.13971201641E+03  0.88993599132E+02 0.  0.
          5    1    3    3  502    0 -0.40475927517E+02 -0.80330815616E+02  0.79685468253E+02  0.12024386428E+03  0.41800000000E+01 0.  1.
         -5    1    3    3    0  502 -0.29182775549E+02  0.45500473234E+02  0.20598519643E+02  0.57997403949E+02  0.41800000000E+01 0.  1.
        -11    1    4    4    0    0  0.58061781855E+02  0.48146748241E+02  0.13902007925E+02  0.76697755526E+02  0.00000000000E+00 0. -1.
         11    1    4    4    0    0  0.11596921211E+02 -0.13316405859E+02  0.60489518328E+02  0.63014260879E+02  0.00000000000E+00 0.  1.
</event>
<event>
 8    1  0.6493926E-009  0.5138504E+02  0.7561462E-02  0.1438011E+00
          2   -1    0    0  501    0  0.00000000000E+00  0.00000000000E+00  0.97168293056E+02  0.97168293056E+02  0.00000000000E+00 0. -1.
         -2   -1    0    0    0  501 -0.00000000000E+00 -0.00000000000E+00 -0.14352202328E+03  0.14352202328E+03  0.00000000000E+00 0.  1.
         25    2    1    2    0    0 -0.41348231532E+02  0.16983601666E+02 -0.13397171962E+02  0.13351328108E+03  0.12509273772E+03 0.  0.
         23    2    1    2    0    0  0.41348231532E+02 -0.16983601666E+02 -0.32956558261E+02  0.10717703526E+03  0.91666041573E+02 0.  0.
          5    1    3    3  502    0 -0.21136538635E+02  0.24640746531E+02 -0.67546890209E+02  0.75059805702E+02  0.41800000000E+01 0. -1.
         -5    1    3    3    0  502 -0.20211692898E+02 -0.76571448648E+01  0.54149718248E+02  0.58453475376E+02  0.41800000000E+01 0. -1.
        -11    1    4    4    0    0  0.33713509551E+02 -0.53890929774E+01 -0.64352738234E+02  0.72848596195E+02  0.00000000000E+00 0.  1.
         11    1    4    4    0    0  0.76347219807E+01 -0.11594508689E+02  0.31396179974E+02  0.34328439061E+02  0.00000000000E+00 0. -1.
</event>
<event>
 8    1  0.6493926E-009  0.1373852E+03  0.7561462E-02  0.1216891E+00
         -1   -1    0    0    0  501 -0.00000000000E+00  0.00000000000E+00  0.86797399895E+02  0.86797399895E+02  0.00000000000E+00 0.  1.
          1   -1    0    0  501    0  0.00000000000E+00 -0.00000000000E+00 -0.34526764287E+03  0.34526764287E+03  0.00000000000E+00 0. -1.
         25    2    1    2    0    0 -0.10593979928E+03  0.78703566230E+02 -0.21401641222E+03  0.28083522383E+03  0.12509158980E+03 0.  0.
         23    2    1    2    0    0  0.10593979928E+03 -0.78703566230E+02 -0.44453830762E+02  0.15122981894E+03  0.58964588172E+02 0.  0.
          5    1    3    3  502    0 -0.36952732279E+02 -0.10167447358E+01  0.51862757393E+01  0.37562055971E+02  0.41800000000E+01 0. -1.
         -5    1    3    3    0  502 -0.68987066998E+02  0.79720310966E+02 -0.21920268796E+03  0.24327316786E+03  0.41800000000E+01 0. -1.
        -11    1    4    4    0    0  0.64030981599E+02 -0.44678787939E+02  0.47038277522E+01  0.78219477701E+02  0.00000000000E+00 0. -1.
         11    1    4    4    0    0  0.41908817677E+02 -0.34024778291E+02 -0.49157658514E+02  0.73010341236E+02  0.00000000000E+00 0.  1.
</event>
<event>
 8    1  0.6493926E-009  0.1950177E+03  0.7561462E-02  0.1154012E+00
         -1   -1    0    0    0  501 -0.00000000000E+00  0.00000000000E+00  0.73067012502E+03  0.73067012502E+03  0.00000000000E+00 0.  1.
          1   -1    0    0  501    0  0.00000000000E+00 -0.00000000000E+00 -0.88697272602E+02  0.88697272602E+02  0.00000000000E+00 0. -1.
         25    2    1    2    0    0 -0.83133595265E+02 -0.17552219966E+03  0.12648852628E+03  0.26337453223E+03  0.12509020631E+03 0.  0.
         23    2    1    2    0    0  0.83133595265E+02  0.17552219966E+03  0.51548432613E+03  0.55599286539E+03  0.75397205782E+02 0.  0.
          5    1    3    3  502    0 -0.71095676359E+02 -0.16239693045E+03  0.49306609691E+02  0.18405426476E+03  0.41800000000E+01 0. -1.
         -5    1    3    3    0  502 -0.12037918906E+02 -0.13125269205E+02  0.77181916590E+02  0.79320267472E+02  0.41800000000E+01 0. -1.
        -11    1    4    4    0    0  0.45847290541E+02  0.86486399143E+02  0.15939807428E+03  0.18705511854E+03  0.00000000000E+00 0. -1.
         11    1    4    4    0    0  0.37286304724E+02  0.89035800513E+02  0.35608625185E+03  0.36893774685E+03  0.00000000000E+00 0.  1.
</event>
<event>
 8    1  0.6493926E-009  0.1127645E+03  0.7561462E-02  0.1255534E+00
          1   -1    0    0  501    0  0.00000000000E+00  0.00000000000E+00  0.11696780860E+04  0.11696780860E+04  0.00000000000E+00 0. -1.
         -1   -1    0    0    0  501 -0.00000000000E+00 -0.00000000000E+00 -0.11308160267E+02  0.11308160267E+02  0.00000000000E+00 0.  1.
         25    2    1    2    0    0  0.11533287850E+02 -0.28763905033E+02  0.77017516598E+03  0.78088413386E+03  0.12509942155E+03 0.  0.
         23    2    1    2    0    0 -0.11533287850E+02  0.28763905033E+02  0.38819475976E+03  0.40010211240E+03  0.91794062363E+02 0.  0.
          5    1    3    3  502    0 -0.39728795329E+02 -0.57399680132E+02  0.40430213554E+03  0.41030572707E+03  0.41800000000E+01 0.  1.
         -5    1    3    3    0  502  0.51262083179E+02  0.28635775098E+02  0.36587303043E+03  0.37057840680E+03  0.41800000000E+01 0.  1.
        -11    1    4    4    0    0 -0.42616627489E+02  0.44733528571E+02  0.23693296838E+03  0.24485607409E+03  0.00000000000E+00 0.  1.
         11    1    4    4    0    0  0.31083339639E+02 -0.15969623537E+02  0.15126179138E+03  0.15524603831E+03  0.00000000000E+00 0. -1.
</event>
<event>
 8    1  0.6493926E-009  0.2707210E+03  0.7561462E-02  0.1100868E+00
         -2   -1    0    0    0  501 -0.00000000000E+00  0.00000000000E+00  0.32879942430E+02  0.32879942430E+02  0.00000000000E+00 0.  1.
          2   -1    0    0  501    0  0.00000000000E+00 -0.00000000000E+00 -0.22697592890E+04  0.22697592890E+04  0.00000000000E+00 0. -1.
         25    2    1    2    0    0  0.87124603732E+02  0.23442005177E+03 -0.11014453568E+04  0.11363862063E+04  0.12509307982E+03 0.  0.
         23    2    1    2    0    0 -0.87124603732E+02 -0.23442005177E+03 -0.11354339898E+04  0.11662530251E+04  0.91609585932E+02 0.  0.
          5    1    3    3  502    0 -0.25632776327E+02  0.98639068425E+02 -0.45260315895E+03  0.46395452033E+03  0.41800000000E+01 0.  1.
         -5    1    3    3    0  502  0.11275738006E+03  0.13578098335E+03 -0.64884219782E+03  0.67243168595E+03  0.41800000000E+01 0.  1.
        -11    1    4    4    0    0  0.13431793965E+02 -0.60731262599E+02 -0.35612587049E+03  0.36151671466E+03  0.00000000000E+00 0. -1.
         11    1    4    4    0    0 -0.10055639770E+03 -0.17368878917E+03 -0.77930811929E+03  0.80473631047E+03  0.00000000000E+00 0.  1.
</event>
<event>
 8    1  0.6493926E-009  0.8335323E+02  0.7561462E-02  0.1319796E+00
          2   -1    0    0  501    0  0.00000000000E+00  0.00000000000E+00  0.16948959658E+03  0.16948959658E+03  0.00000000000E+00 0. -1.
         -2   -1    0    0    0  501 -0.00000000000E+00 -0.00000000000E+00 -0.78836513575E+02  0.78836513575E+02  0.00000000000E+00 0.  1.
         25    2    1    2    0    0  0.36486560408E+01  0.21977138798E+02  0.86487100661E+02  0.15370031026E+03  0.12508980562E+03 0.  0.
         23    2    1    2    0    0 -0.36486560408E+01 -0.21977138798E+02  0.41659823430E+01  0.94625799899E+02  0.91871536816E+02 0.  0.
          5    1    3    3  502    0  0.11088925318E+02 -0.47768068041E+02  0.10726860494E+02  0.50371524943E+02  0.41800000000E+01 0.  1.
         -5    1    3    3    0  502 -0.74402692769E+01  0.69745206839E+02  0.75760240167E+02  0.10332878531E+03  0.41800000000E+01 0.  1.
        -11    1    4    4    0    0  0.11747371348E+02 -0.28253800715E+02 -0.38299372959E+02  0.49021627446E+02  0.00000000000E+00 0.  1.
         11    1    4    4    0    0 -0.15396027388E+02  0.62766619173E+01  0.42465355302E+02  0.45604172453E+02  0.00000000000E+00 0. -1.
</event>
<event>
 8    1  0.6493926E-009  0.7452534E+02  0.7561462E-02  0.1345347E+00
         -1   -1    0    0    0  501 -0.00000000000E+00  0.00000000000E+00  0.28147862146E+02  0.28147862146E+02  0.00000000000E+00 0.  1.
          1   -1    0    0  501    0  0.00000000000E+00 -0.00000000000E+00 -0.50063507604E+03  0.50063507604E+03  0.00000000000E+00 0. -1.
         25    2    1    2    0    0 -0.64895339132E+01  0.34771615649E+02 -0.33158229894E+03  0.35615915611E+03  0.12510533244E+03 0.  0.
         23    2    1    2    0    0  0.64895339132E+01 -0.34771615649E+02 -0.14090491495E+03  0.17262378207E+03  0.93239453958E+02 0.  0.
          5    1    3    3  502    0  0.12950585104E+02  0.30020776426E+02 -0.33395513916E+03  0.33557781817E+03  0.41800000000E+01 0.  1.
         -5    1    3    3    0  502 -0.19440119018E+02  0.47508392236E+01  0.23728402255E+01  0.20581337942E+02  0.41800000000E+01 0.  1.
        -11    1    4    4    0    0 -0.21064340241E+02 -0.56664407455E+02 -0.63935208939E+02  0.87990183794E+02  0.00000000000E+00 0.  1.
         11    1    4    4    0    0  0.27553874154E+02  0.21892791806E+02 -0.76969706015E+02  0.84633598281E+02  0.00000000000E+00 0. -1.
</event>
<event>
 8    1  0.6493926E-009  0.1141961E+03  0.7561462E-02  0.1252991E+00
         -1   -1    0    0    0  501 -0.00000000000E+00  0.00000000000E+00  0.49472400500E+03  0.49472400500E+03  0.00000000000E+00 0.  1.
          1   -1    0    0  501    0  0.00000000000E+00 -0.00000000000E+00 -0.47395341686E+02  0.47395341686E+02  0.00000000000E+00 0. -1.
         25    2    1    2    0    0 -0.78983033427E+02 -0.57905988972E+02  0.16057857250E+03  0.22588736987E+03  0.12509277674E+03 0.  0.
         23    2    1    2    0    0  0.78983033427E+02  0.57905988972E+02  0.28675009081E+03  0.31623197682E+03  0.90474446408E+02 0.  0.
          5    1    3    3  502    0  0.16749036623E+01  0.17507521971E+02  0.96443762293E+02  0.98123342346E+02  0.41800000000E+01 0.  1.
         -5    1    3    3    0  502 -0.80657937089E+02 -0.75413510943E+02  0.64134810206E+02  0.12776402752E+03  0.41800000000E+01 0.  1.
        -11    1    4    4    0    0  0.27599515791E+02  0.94110039112E+01  0.10346714692E+02  0.30941150131E+02  0.00000000000E+00 0. -1.
         11    1    4    4    0    0  0.51383517636E+02  0.48494985061E+02  0.27640337612E+03  0.28529082668E+03  0.00000000000E+00 0.  1.
</event>
<event>
 8    1  0.6493926E-009  0.1696447E+03  0.7561462E-02  0.1178219E+00
          2   -1    0    0  501    0  0.00000000000E+00  0.00000000000E+00  0.15661800154E+04  0.15661800154E+04  0.00000000000E+00 0. -1.
         -2   -1    0    0    0  501 -0.00000000000E+00 -0.00000000000E+00 -0.20088024173E+02  0.20088024173E+02  0.00000000000E+00 0.  1.
         25    2    1    2    0    0  0.10999084979E+03  0.64144220119E+02  0.10348191474E+04  0.10501010320E+04  0.12509612888E+03 0.  0.
         23    2    1    2    0    0 -0.10999084979E+03 -0.64144220119E+02  0.51127284377E+03  0.53616700757E+03  0.99310982352E+02 0.  0.
          5    1    3    3  502    0  0.13742001148E+03  0.59034246485E+02  0.90118171266E+03  0.91351806411E+03  0.41800000000E+01 0. -1.
         -5    1    3    3    0  502 -0.27429161685E+02  0.51099736343E+01  0.13363743478E+03  0.13658296788E+03  0.41800000000E+01 0. -1.
        -11    1    4    4    0    0 -0.74495112722E+02  0.13842248891E+02  0.24448118251E+03  0.25595346896E+03  0.00000000000E+00 0.  1.
         11    1    4    4    0    0 -0.35495737072E+02 -0.77986469010E+02  0.26679166126E+03  0.28021353861E+03  0.00000000000E+00 0. -1.
</event>
<event>
 8    1  0.6493926E-009  0.1166657E+03  0.7561462E-02  0.1248701E+00
          2   -1    0    0  501    0  0.00000000000E+00  0.00000000000E+00  0.38657899562E+02  0.38657899562E+02  0.00000000000E+00 0. -1.
         -2   -1    0    0    0  501 -0.00000000000E+00 -0.00000000000E+00 -0.46445550198E+03  0.46445550198E+03  0.00000000000E+00 0.  1.
         25    2    1    2    0    0  0.29201760600E+02 -0.53978648217E+02 -0.32755224304E+03  0.35595270827E+03  0.12508165862E+03 0.  0.
         23    2    1    2    0    0 -0.29201760600E+02  0.53978648217E+02 -0.98245359380E+02  0.14716069327E+03  0.90761675379E+02 0.  0.
          5    1    3    3  502    0 -0.38602927207E+02 -0.38674778580E+02 -0.68611370936E+02  0.87811827841E+02  0.41800000000E+01 0. -1.
         -5    1    3    3    0  502  0.67804687807E+02 -0.15303869636E+02 -0.25894087210E+03  0.26814088043E+03  0.41800000000E+01 0. -1.
        -11    1    4    4    0    0 -0.59302497825E+02  0.17982165129E+02 -0.47772802679E+02  0.78245672001E+02  0.00000000000E+00 0. -1.
         11    1    4    4    0    0  0.30100737225E+02  0.35996483087E+02 -0.50472556701E+02  0.68915021266E+02  0.00000000000E+00 0.  1.
</event>
<event>
 8    1  0.6493926E-009  0.1037793E+03  0.7561462E-02  0.1272544E+00
          1   -1    0    0  501    0  0.00000000000E+00  0.00000000000E+00  0.16788765029E+03  0.16788765029E+03  0.00000000000E+00 0. -1.
         -1   -1    0    0    0  501 -0.00000000000E+00 -0.00000000000E+00 -0.12254381634E+03  0.12254381634E+03  0.00000000000E+00 0.  1.
         25    2    1    2    0    0  0.35238595702E+02  0.40624959205E+02 -0.46472724087E+02  0.14387263852E+03  0.12508987206E+03 0.  0.
         23    2    1    2    0    0 -0.35238595702E+02 -0.40624959205E+02  0.91816558031E+02  0.14655882811E+03  0.10078225951E+03 0.  0.
          5    1    3    3  502    0  0.56132653981E+02  0.54136076723E+02 -0.73255846255E+02  0.10707698659E+03  0.41800000000E+01 0.  1.
         -5    1    3    3    0  502 -0.20894058279E+02 -0.13511117518E+02  0.26783122168E+02  0.36795651931E+02  0.41800000000E+01 0.  1.
        -11    1    4    4    0    0 -0.12123742207E+02  0.28699358997E+02  0.26421804598E+01  0.31266906618E+02  0.00000000000E+00 0.  1.
         11    1    4    4    0    0 -0.23114853496E+02 -0.69324318202E+02  0.89174377572E+02  0.11529192149E+03  0.00000000000E+00 0. -1.
</event>
