<event>
 8    1  0.3654190E-009  0.1045652E+03  0.7561462E-02  0.1270979E+00
         -1   -1    0    0    0  501 -0.00000000000E+00  0.00000000000E+00  0.39113234131E+02  0.39113234131E+02  0.00000000000E+00 0.  1.
          1   -1    0    0  501    0  0.00000000000E+00 -0.00000000000E+00 -0.37836018074E+03  0.37836018074E+03  0.00000000000E+00 0. -1.
         25    2    1    2    0    0 -0.81861042121E+01  0.29245491125E+02 -0.26710553764E+03  0.29650918132E+03  0.12510002125E+03 0.  0.
         23    2    1    2    0    0  0.81861042121E+01 -0.29245491125E+02 -0.72141408964E+02  0.12096423354E+03  0.92226090973E+02 0.  0.
          5    1    3    3  502    0 -0.23999842768E+02  0.70099090779E+02 -0.10528047671E+03  0.12880732183E+03  0.41800000000E+01 0. -1.
         -5    1    3    3    0  502  0.15813738556E+02 -0.40853599654E+02 -0.16182506093E+03  0.16770185949E+03  0.41800000000E+01 0. -1.
        -11    1    4    4    0    0 -0.11129908927E+02 -0.56456278549E+02 -0.65051336486E+02  0.86849655376E+02  0.00000000000E+00 0. -1.
         11    1    4    4    0    0  0.19316013139E+02  0.27210787424E+02 -0.70900724780E+01  0.34114578168E+02  0.00000000000E+00 0.  1.
</event>
<event>
 8    1  0.3654190E-009  0.9929778E+02  0.7561462E-02  0.1281780E+00
          1   -1    0    0  501    0  0.00000000000E+00  0.00000000000E+00  0.43233181177E+03  0.43233181177E+03  0.00000000000E+00 0. -1.
         -1   -1    0    0    0  501 -0.00000000000E+00 -0.00000000000E+00 -0.49505860143E+02  0.49505860143E+02  0.00000000000E+00 0.  1.
         25    2    1    2    0    0  0.88309822868E+01  0.37103104087E+02  0.58925669061E+02  0.14343632095E+03  0.12508843716E+03 0.  0.
         23    2    1    2    0    0 -0.88309822868E+01 -0.37103104087E+02  0.32390028257E+03  0.33840135096E+03  0.90274330275E+02 0.  0.
          5    1    3    3  502    0 -0.38779843654E+02  0.51892223779E+02 -0.15673951907E+01  0.64935416301E+02  0.41800000000E+01 0. -1.
         -5    1    3    3    0  502  0.47610825941E+02 -0.14789119691E+02  0.60493064251E+02  0.78500904648E+02  0.41800000000E+01 0. -1.
        -11    1    4    4    0    0 -0.30579764129E+02  0.96656139015E+01  0.48045611765E+02  0.57766139530E+02  0.00000000000E+00 0.  1.
         11    1    4    4    0    0  0.21748781842E+02 -0.46768717989E+02  0.27585467080E+03  0.28063521144E+03  0.00000000000E+00 0. -1.
</event>
<event>
 8    1  0.3654190E-009  0.6978488E+02  0.7561462E-02  0.1360826E+00
         -1   -1    0    0    0  501 -0.00000000000E+00  0.00000000000E+00  0.30542667463E+03  0.30542667463E+03  0.00000000000E+00 0.  1.
          1   -1    0    0  501    0  0.00000000000E+00 -0.00000000000E+00 -0.54419246732E+02  0.54419246732E+02  0.00000000000E+00 0. -1.
         25    2    1    2    0    0  0.36800472261E+02  0.39730385167E+02  0.78360368225E+02  0.15722647714E+03  0.12508812710E+03 0.  0.
         23    2    1    2    0    0 -0.36800472261E+02 -0.39730385167E+02  0.17264705968E+03  0.20261944423E+03  0.91185819621E+02 0.  0.
          5    1    3    3  502    0  0.17045085501E+02  0.35820524992E+02 -0.28103077960E+02  0.48794470396E+02  0.41800000000E+01 0. -1.
         -5    1    3    3    0  502  0.19755386760E+02  0.39098601756E+01  0.10646344618E+03  0.10843200674E+03  0.41800000000E+01 0. -1.
        -11    1    4    4    0    0 -0.49044786903E+02 -0.14621594548E+02  0.16626663943E+03  0.17396487444E+03  0.00000000000E+00 0.  1.
         11    1    4    4    0    0  0.12244314642E+02 -0.25108790619E+02  0.63804202439E+01  0.28654569791E+02  0.00000000000E+00 0. -1.
</event>
<event>
 8    1  0.3654190E-009  0.1084784E+03  0.7561462E-02  0.1263414E+00
          1   -1    0    0  501    0  0.00000000000E+00  0.00000000000E+00  0.32491446527E+03  0.32491446527E+03  0.00000000000E+00 0. -1.
         -1   -1    0    0    0  501 -0.00000000000E+00 -0.00000000000E+00 -0.43580452571E+02  0.43580452571E+02  0.00000000000E+00 0.  1.
         25    2    1    2    0    0 -0.37908520881E+02  0.26475382847E+02  0.14417316876E+03  0.19639572252E+03  0.12508946951E+03 0.  0.
         23    2    1    2    0    0  0.37908520881E+02 -0.26475382847E+02  0.13716084394E+03  0.17209919533E+03  0.93096906866E+02 0.  0.
          5    1    3    3  502    0  0.76578850968E+01  0.59637065053E+02  0.26467186436E+02  0.65827099968E+02  0.41800000000E+01 0. -1.
         -5    1    3    3    0  502 -0.45566405978E+02 -0.33161682206E+02  0.11770598232E+03  0.13056862255E+03  0.41800000000E+01 0. -1.
        -11    1    4    4    0    0  0.29912092855E+02 -0.59285306899E+02  0.11114125146E+03  0.12946759706E+03  0.00000000000E+00 0.  1.
         11    1    4    4    0    0  0.79964280263E+01  0.32809924052E+02  0.26019592486E+02  0.42631598265E+02  0.00000000000E+00 0. -1.
</event>
<event>
 8    1  0.3654190E-009  0.9479065E+02  0.7561462E-02  0.1291648E+00
         -1   -1    0    0    0  501 -0.00000000000E+00  0.00000000000E+00  0.27673630564E+02  0.27673630564E+02  0.00000000000E+00 0.  1.
          1   -1    0    0  501    0  0.00000000000E+00 -0.00000000000E+00 -0.55180599773E+03  0.55180599773E+03  0.00000000000E+00 0. -1.
         25    2    1    2    0    0  0.20254402089E+02 -0.53292853470E+02 -0.33676601760E+03  0.36374404163E+03  0.12509199886E+03 0.  0.
         23    2    1    2    0    0 -0.20254402089E+02  0.53292853470E+02 -0.18736634957E+03  0.21573558666E+03  0.90472787987E+02 0.  0.
          5    1    3    3  502    0  0.56844796011E+02  0.10869377665E+02 -0.20004633566E+03  0.20829182177E+03  0.41800000000E+01 0. -1.
         -5    1    3    3    0  502 -0.36590393922E+02 -0.64162231135E+02 -0.13671968194E+03  0.15545221987E+03  0.41800000000E+01 0. -1.
        -11    1    4    4    0    0 -0.11310914032E+02  0.39889548451E+02 -0.19394775720E+03  0.19833014238E+03  0.00000000000E+00 0. -1.
         11    1    4    4    0    0 -0.89434880571E+01  0.13403305020E+02  0.65814076375E+01  0.17405444279E+02  0.00000000000E+00 0.  1.
</event>
<event>
 8    1  0.3654190E-009  0.1288198E+03  0.7561462E-02  0.1229218E+00
          2   -1    0    0  501    0  0.00000000000E+00  0.00000000000E+00  0.72325682804E+02  0.72325682804E+02  0.00000000000E+00 0. -1.
         -2   -1    0    0    0  501 -0.00000000000E+00 -0.00000000000E+00 -0.33536169843E+03  0.33536169843E+03  0.00000000000E+00 0.  1.
         25    2    1    2    0    0 -0.93565183914E+02 -0.37120896871E+02 -0.20606591390E+03  0.26123418533E+03  0.12509090329E+03 0.  0.
         23    2    1    2    0    0  0.93565183914E+02  0.37120896871E+02 -0.56970101729E+02  0.14645319591E+03  0.89836192459E+02 0.  0.
          5    1    3    3  502    0 -0.98178759203E+02 -0.14293887360E+02 -0.66117049441E+02  0.11929929003E+03  0.41800000000E+01 0. -1.
         -5    1    3    3    0  502  0.46135752891E+01 -0.22827009512E+02 -0.13994886446E+03  0.14193489530E+03  0.41800000000E+01 0. -1.
        -11    1    4    4    0    0  0.65847760444E+02 -0.21963624634E+02 -0.24984547888E+02  0.73773680915E+02  0.00000000000E+00 0. -1.
         11    1    4    4    0    0  0.27717423470E+02  0.59084521505E+02 -0.31985553841E+02  0.72679514995E+02  0.00000000000E+00 0.  1.
</event>
<event>
 8    1  0.3654190E-009  0.1344412E+03  0.7561462E-02  0.1221011E+00
         -2   -1    0    0    0  501 -0.00000000000E+00  0.00000000000E+00  0.39400919653E+02  0.39400919653E+02  0.00000000000E+00 0. -1.
          2   -1    0    0  501    0  0.00000000000E+00 -0.00000000000E+00 -0.76240092071E+03  0.76240092071E+03  0.00000000000E+00 0.  1.
         25    2    1    2    0    0 -0.73992594095E+02 -0.69709495890E+02 -0.18113858653E+03  0.24247039928E+03  0.12508552754E+03 0.  0.
         23    2    1    2    0    0  0.73992594095E+02  0.69709495890E+02 -0.54186141452E+03  0.55933144108E+03  0.94358627743E+02 0.  0.
          5    1    3    3  502    0  0.10080400528E+02 -0.49803626246E+02 -0.11820791227E+02  0.52337550260E+02  0.41800000000E+01 0.  1.
         -5    1    3    3    0  502 -0.84072994622E+02 -0.19905869644E+02 -0.16931779530E+03  0.19013284902E+03  0.41800000000E+01 0.  1.
        -11    1    4    4    0    0  0.65248013114E+02  0.42807201028E+01 -0.35932259388E+03  0.36522370440E+03  0.00000000000E+00 0.  1.
         11    1    4    4    0    0  0.87445809810E+01  0.65428775787E+02 -0.18253882064E+03  0.19410773668E+03  0.00000000000E+00 0. -1.
</event>
<event>
 8    1  0.3654190E-009  0.1547678E+03  0.7561462E-02  0.1194734E+00
         -1   -1    0    0    0  501 -0.00000000000E+00  0.00000000000E+00  0.36114899759E+02  0.36114899759E+02  0.00000000000E+00 0.  1.
          1   -1    0    0  501    0  0.00000000000E+00 -0.00000000000E+00 -0.97568374880E+03  0.97568374880E+03  0.00000000000E+00 0. -1.
         25    2    1    2    0    0  0.15167696239E+03  0.14416907963E+00 -0.53472952052E+03  0.56972657918E+03  0.12508714242E+03 0.  0.
         23    2    1    2    0    0 -0.15167696239E+03 -0.14416907963E+00 -0.40483932852E+03  0.44207206938E+03  0.92341274129E+02 0.  0.
          5    1    3    3  502    0  0.77250860695E+02  0.46067834739E+01 -0.45067762275E+03  0.45729280552E+03  0.41800000000E+01 0. -1.
         -5    1    3    3    0  502  0.74426101692E+02 -0.44626143943E+01 -0.84051897778E+02  0.11243377366E+03  0.41800000000E+01 0. -1.
        -11    1    4    4    0    0 -0.46266582847E+02 -0.19459607012E+02 -0.24188244774E+03  0.24703520299E+03  0.00000000000E+00 0.  1.
         11    1    4    4    0    0 -0.10541037954E+03  0.19315437933E+02 -0.16295688078E+03  0.19503686639E+03  0.00000000000E+00 0. -1.
</event>
<event>
 8    1  0.3654190E-009  0.2201537E+03  0.7561462E-02  0.1133768E+00
          2   -1    0    0  501    0  0.00000000000E+00  0.00000000000E+00  0.62701934186E+03  0.62701934186E+03  0.00000000000E+00 0.  1.
         -2   -1    0    0    0  501 -0.00000000000E+00 -0.00000000000E+00 -0.96517178575E+02  0.96517178575E+02  0.00000000000E+00 0. -1.
         25    2    1    2    0    0  0.20066196433E+03  0.61627776135E+02  0.17923983729E+03  0.30304619546E+03  0.12508745178E+03 0.  0.
         23    2    1    2    0    0 -0.20066196433E+03 -0.61627776135E+02  0.35126232599E+03  0.42049032497E+03  0.96766135696E+02 0.  0.
          5    1    3    3  502    0  0.39870143119E+02  0.11580257476E+01  0.11123067310E+03  0.11824002864E+03  0.41800000000E+01 0.  1.
         -5    1    3    3    0  502  0.16079182121E+03  0.60469750387E+02  0.68009164196E+02  0.18480616682E+03  0.41800000000E+01 0.  1.
        -11    1    4    4    0    0 -0.13624659306E+03 -0.84134742290E+02  0.27443698950E+03  0.31773802131E+03  0.00000000000E+00 0.  1.
         11    1    4    4    0    0 -0.64415371270E+02  0.22506966156E+02  0.76825336487E+02  0.10275230366E+03  0.00000000000E+00 0. -1.
</event>
<event>
 8    1  0.3654190E-009  0.1099394E+03  0.7561462E-02  0.1260682E+00
         -1   -1    0    0    0  501 -0.00000000000E+00  0.00000000000E+00  0.19532347164E+03  0.19532347164E+03  0.00000000000E+00 0.  1.
          1   -1    0    0  501    0  0.00000000000E+00 -0.00000000000E+00 -0.80957623370E+02  0.80957623370E+02  0.00000000000E+00 0. -1.
         25    2    1    2    0    0  0.20335440687E+02  0.53838876250E+02  0.45444296111E+02  0.14498211527E+03  0.12506988029E+03 0.  0.
         23    2    1    2    0    0 -0.20335440687E+02 -0.53838876250E+02  0.68921552161E+02  0.13129897974E+03  0.95797113652E+02 0.  0.
          5    1    3    3  502    0 -0.42759406284E+02 -0.27325251608E+01  0.41882281677E+02  0.60061896723E+02  0.41800000000E+01 0. -1.
         -5    1    3    3    0  502  0.63094846971E+02  0.56571401411E+02  0.35620144339E+01  0.84920218551E+02  0.41800000000E+01 0. -1.
        -11    1    4    4    0    0 -0.33208871092E+02 -0.66246313668E+02  0.80952754857E+02  0.10974858410E+03  0.00000000000E+00 0.  1.
         11    1    4    4    0    0  0.12873430405E+02  0.12407437419E+02 -0.12031202695E+02  0.21550395634E+02  0.00000000000E+00 0. -1.
</event>
<event>
 8    1  0.3654190E-009  0.2206572E+03  0.7561462E-02  0.1133394E+00
         -1   -1    0    0    0  501 -0.00000000000E+00  0.00000000000E+00  0.23842477809E+03  0.23842477809E+03  0.00000000000E+00 0.  1.
          1   -1    0    0  501    0  0.00000000000E+00 -0.00000000000E+00 -0.26007839902E+03  0.26007839902E+03  0.00000000000E+00 0. -1.
         25    2    1    2    0    0 -0.20432422787E+03 -0.10726918167E+02  0.77730522904E+02  0.25209656042E+03  0.12508870739E+03 0.  0.
         23    2    1    2    0    0  0.20432422787E+03  0.10726918167E+02 -0.99384143832E+02  0.24640661668E+03  0.94739410129E+02 0.  0.
          5    1    3    3  502    0 -0.13110889209E+03  0.47979691529E+02  0.74040729485E+02  0.15808571855E+03  0.41800000000E+01 0.  1.
         -5    1    3    3    0  502 -0.73215335777E+02 -0.58706609695E+02  0.36897934188E+01  0.94010841876E+02  0.41800000000E+01 0.  1.
        -11    1    4    4    0    0  0.16274988106E+03  0.22967177891E+02 -0.11471526690E+03  0.20043604343E+03  0.00000000000E+00 0. -1.
         11    1    4    4    0    0  0.41574346814E+02 -0.12240259724E+02  0.15331123067E+02  0.45970573257E+02  0.00000000000E+00 0.  1.
</event>
<event>
 8    1  0.3654190E-009  0.1225093E+03  0.7561462E-02  0.1239014E+00
          1   -1    0    0  501    0  0.00000000000E+00  0.00000000000E+00  0.38179256600E+03  0.38179256600E+03  0.00000000000E+00 0. -1.
         -1   -1    0    0    0  501 -0.00000000000E+00 -0.00000000000E+00 -0.48259207855E+02  0.48259207855E+02  0.00000000000E+00 0.  1.
         25    2    1    2    0    0  0.60829092578E+02 -0.33748786266E+02  0.11533409970E+03  0.18381582676E+03  0.12508854678E+03 0.  0.
         23    2    1    2    0    0 -0.60829092578E+02  0.33748786266E+02  0.21819925844E+03  0.24623594710E+03  0.90454774220E+02 0.  0.
          5    1    3    3  502    0 -0.35506518196E+02 -0.17034693136E+02  0.11740772523E+02  0.41306316031E+02  0.41800000000E+01 0.  1.
         -5    1    3    3    0  502  0.96335610773E+02 -0.16714093130E+02  0.10359332718E+03  0.14250951073E+03  0.41800000000E+01 0.  1.
        -11    1    4    4    0    0  0.13428294455E+02  0.30383209428E+02  0.11042450473E+03  0.11531274757E+03  0.00000000000E+00 0. -1.
         11    1    4    4    0    0 -0.74257387033E+02  0.33655768377E+01  0.10777475371E+03  0.13092319952E+03  0.00000000000E+00 0.  1.
</event>
<event>
 8    1  0.3654190E-009  0.1028204E+03  0.7561462E-02  0.1274474E+00
         -1   -1    0    0    0  501 -0.00000000000E+00  0.00000000000E+00  0.64613693084E+02  0.64613693084E+02  0.00000000000E+00 0.  1.
          1   -1    0    0  501    0  0.00000000000E+00 -0.00000000000E+00 -0.30852215550E+03  0.30852215550E+03  0.00000000000E+00 0. -1.
         25    2    1    2    0    0  0.73948403975E+02  0.52507417851E+02 -0.14108435283E+03  0.20923123323E+03  0.12509004343E+03 0.  0.
         23    2    1    2    0    0 -0.73948403975E+02 -0.52507417851E+02 -0.10282410959E+03  0.16390461535E+03  0.89813863307E+02 0.  0.
          5    1    3    3  502    0  0.52532919471E+02  0.29051152731E+01  0.53908331931E+01  0.53053565435E+02  0.41800000000E+01 0.  1.
         -5    1    3    3    0  502  0.21415484504E+02  0.49602302578E+02 -0.14647518603E+03  0.15617766780E+03  0.41800000000E+01 0.  1.
        -11    1    4    4    0    0 -0.23548242252E+02 -0.40521242830E+02 -0.10182076089E+03  0.11208906362E+03  0.00000000000E+00 0. -1.
         11    1    4    4    0    0 -0.50400161723E+02 -0.11986175021E+02 -0.10033486945E+01  0.51815551738E+02  0.00000000000E+00 0.  1.
</event>
<event>
 8    1  0.3654190E-009  0.1005815E+03  0.7561462E-02  0.1279078E+00
          1   -1    0    0  501    0  0.00000000000E+00  0.00000000000E+00  0.58347614654E+02  0.58347614654E+02  0.00000000000E+00 0. -1.
         -1   -1    0    0    0  501 -0.00000000000E+00 -0.00000000000E+00 -0.21470726911E+03  0.21470726911E+03  0.00000000000E+00 0.  1.
         25    2    1    2    0    0  0.14303320536E+02 -0.65548389716E+01 -0.59667437702E+02  0.13946909689E+03  0.12507547710E+03 0.  0.
         23    2    1    2    0    0 -0.14303320536E+02  0.65548389716E+01 -0.96692216753E+02  0.13358578688E+03  0.90819748858E+02 0.  0.
          5    1    3    3  502    0  0.18051663298E+02  0.52350746730E+02 -0.57962549827E+02  0.80271992709E+02  0.41800000000E+01 0. -1.
         -5    1    3    3    0  502 -0.37483427625E+01 -0.58905585702E+02 -0.17048878757E+01  0.59197104177E+02  0.41800000000E+01 0. -1.
        -11    1    4    4    0    0  0.34666246146E+02  0.13086360452E+02 -0.19325219666E+02  0.41790735419E+02  0.00000000000E+00 0.  1.
         11    1    4    4    0    0 -0.48969566682E+02 -0.65315214806E+01 -0.77366997087E+02  0.91795051457E+02  0.00000000000E+00 0. -1.
</event>
<event>
 8    1  0.3654190E-009  0.1447706E+03  0.7561462E-02  0.1207050E+00
         -2   -1    0    0    0  501 -0.00000000000E+00  0.00000000000E+00  0.30268246235E+02  0.30268246235E+02  0.00000000000E+00 0.  1.
          2   -1    0    0  501    0  0.00000000000E+00 -0.00000000000E+00 -0.81896275903E+03  0.81896275903E+03  0.00000000000E+00 0. -1.
         25    2    1    2    0    0  0.98132364204E+02  0.20494379977E+02 -0.27978666953E+03  0.32245504333E+03  0.12508674593E+03 0.  0.
         23    2    1    2    0    0 -0.98132364204E+02 -0.20494379977E+02 -0.50890784327E+03  0.52677596194E+03  0.91955101112E+02 0.  0.
          5    1    3    3  502    0  0.70878617755E+01  0.58242382205E+02 -0.76520815133E+02  0.96515907590E+02  0.41800000000E+01 0. -1.
         -5    1    3    3    0  502  0.91044502429E+02 -0.37748002228E+02 -0.20326585439E+03  0.22593913574E+03  0.41800000000E+01 0. -1.
        -11    1    4    4    0    0 -0.14122985955E+02 -0.42867935618E+02 -0.23860255555E+03  0.24283389004E+03  0.00000000000E+00 0.  1.
         11    1    4    4    0    0 -0.84009378249E+02  0.22373555641E+02 -0.27030528772E+03  0.28394207190E+03  0.00000000000E+00 0. -1.
</event>
<event>
 8    1  0.3654190E-009  0.9482999E+02  0.7561462E-02  0.1291559E+00
         -3   -1    0    0    0  501 -0.00000000000E+00  0.00000000000E+00  0.51337210555E+02  0.51337210555E+02  0.00000000000E+00 0.  1.
          3   -1    0    0  501    0  0.00000000000E+00 -0.00000000000E+00 -0.36694963156E+03  0.36694963156E+03  0.00000000000E+00 0. -1.
         25    2    1    2    0    0  0.38177598747E+01 -0.31507184199E+02 -0.29363335318E+03  0.32074317509E+03  0.12509340639E+03 0.  0.
         23    2    1    2    0    0 -0.38177598747E+01  0.31507184199E+02 -0.21979067829E+02  0.97543667026E+02  0.89579069026E+02 0.  0.
          5    1    3    3  502    0  0.47580844166E+02  0.23673203026E+02 -0.83346481065E+02  0.98936674591E+02  0.41800000000E+01 0. -1.
         -5    1    3    3    0  502 -0.43763084291E+02 -0.55180387225E+02 -0.21028687211E+03  0.22180650050E+03  0.41800000000E+01 0. -1.
        -11    1    4    4    0    0  0.14646485850E+02 -0.11742951024E+02  0.24872402128E+02  0.31161720654E+02  0.00000000000E+00 0.  1.
         11    1    4    4    0    0 -0.18464245725E+02  0.43250135223E+02 -0.46851469957E+02  0.66381946372E+02  0.00000000000E+00 0. -1.
</event>
<event>
 8    1  0.3654190E-009  0.1043088E+03  0.7561462E-02  0.1271487E+00
         -2   -1    0    0    0  501 -0.00000000000E+00  0.00000000000E+00  0.29314677540E+02  0.29314677540E+02  0.00000000000E+00 0.  1.
          2   -1    0    0  501    0  0.00000000000E+00 -0.00000000000E+00 -0.64424762418E+03  0.64424762418E+03  0.00000000000E+00 0. -1.
         25    2    1    2    0    0  0.73087139530E+02  0.38166658587E+02 -0.30327663507E+03  0.33826555330E+03  0.12509373837E+03 0.  0.
         23    2    1    2    0    0 -0.73087139530E+02 -0.38166658587E+02 -0.31165631157E+03  0.33529674842E+03  0.92172822275E+02 0.  0.
          5    1    3    3  502    0  0.64765195447E+02  0.44388710661E+02 -0.31343385152E+03  0.32314569447E+03  0.41800000000E+01 0.  1.
         -5    1    3    3    0  502  0.83219440823E+01 -0.62220520741E+01  0.10157216446E+02  0.15119858837E+02  0.41800000000E+01 0.  1.
        -11    1    4    4    0    0 -0.89998649599E+02 -0.16821897203E+02 -0.27350860238E+03  0.28842622753E+03  0.00000000000E+00 0.  1.
         11    1    4    4    0    0  0.16911510070E+02 -0.21344761383E+02 -0.38147709198E+02  0.46870520889E+02  0.00000000000E+00 0. -1.
</event>
<event>
 8    1  0.3654190E-009  0.2289706E+03  0.7561462E-02  0.1127366E+00
         -2   -1    0    0    0  501 -0.00000000000E+00  0.00000000000E+00  0.47026364777E+02  0.47026364777E+02  0.00000000000E+00 0.  1.
          2   -1    0    0  501    0  0.00000000000E+00 -0.00000000000E+00 -0.14609520647E+04  0.14609520647E+04  0.00000000000E+00 0. -1.
         25    2    1    2    0    0  0.12744882655E+03 -0.18482743115E+03 -0.95882627602E+03  0.99267288846E+03  0.12508898119E+03 0.  0.
         23    2    1    2    0    0 -0.12744882655E+03  0.18482743115E+03 -0.45509942386E+03  0.51530554097E+03  0.89554074508E+02 0.  0.
          5    1    3    3  502    0  0.78683233681E+02 -0.12534313238E+03 -0.36519499463E+03  0.39406447264E+03  0.41800000000E+01 0.  1.
         -5    1    3    3    0  502  0.48765592866E+02 -0.59484298767E+02 -0.59363128139E+03  0.59860841582E+03  0.41800000000E+01 0.  1.
        -11    1    4    4    0    0 -0.13126909439E+03  0.15645952964E+03 -0.33933478085E+03  0.39605460867E+03  0.00000000000E+00 0.  1.
         11    1    4    4    0    0  0.38202678383E+01  0.28367901512E+02 -0.11576464300E+03  0.11925093229E+03  0.00000000000E+00 0. -1.
</event>
<event>
 8    1  0.3654190E-009  0.1175504E+03  0.7561462E-02  0.1247194E+00
         -2   -1    0    0    0  501 -0.00000000000E+00  0.00000000000E+00  0.58731559940E+02  0.58731559940E+02  0.00000000000E+00 0.  1.
          2   -1    0    0  501    0  0.00000000000E+00 -0.00000000000E+00 -0.26932354231E+03  0.26932354231E+03  0.00000000000E+00 0. -1.
         25    2    1    2    0    0  0.35999623519E+02 -0.50384351100E+02 -0.10333554895E+03  0.17366619856E+03  0.12508859706E+03 0.  0.
         23    2    1    2    0    0 -0.35999623519E+02  0.50384351100E+02 -0.10725643342E+03  0.15438890370E+03  0.92181534731E+02 0.  0.
          5    1    3    3  502    0  0.77875867124E+02 -0.31260838247E+02 -0.34672769695E+02  0.90893146313E+02  0.41800000000E+01 0.  1.
         -5    1    3    3    0  502 -0.41876243605E+02 -0.19123512852E+02 -0.68662779259E+02  0.82773052244E+02  0.41800000000E+01 0.  1.
        -11    1    4    4    0    0 -0.45366511560E+02  0.69829131730E+02 -0.60619444113E+02  0.10299973308E+03  0.00000000000E+00 0.  1.
         11    1    4    4    0    0  0.93668880402E+01 -0.19444780631E+02 -0.46636989309E+02  0.51389170621E+02  0.00000000000E+00 0. -1.
</event>
<event>
 8    1  0.3654190E-009  0.7960570E+02  0.7561462E-02  0.1330174E+00
          4   -1    0    0  501    0  0.00000000000E+00  0.00000000000E+00  0.15240488826E+03  0.15240488826E+03  0.00000000000E+00 0. -1.
         -4   -1    0    0    0  501 -0.00000000000E+00 -0.00000000000E+00 -0.98705415338E+02  0.98705415338E+02  0.00000000000E+00 0.  1.
         25    2    1    2    0    0  0.40420733936E+02  0.25430021326E+02  0.13243507167E+02  0.13455041317E+03  0.12509157240E+03 0.  0.
         23    2    1    2    0    0 -0.40420733936E+02 -0.25430021326E+02  0.40455965758E+02  0.11655989043E+03  0.98331079392E+02 0.  0.
          5    1    3    3  502    0 -0.48043956113E+01  0.35744203038E+01  0.63179014373E+02  0.63599677317E+02  0.41800000000E+01 0. -1.
         -5    1    3    3    0  502  0.45225129548E+02  0.21855601022E+02 -0.49935507206E+02  0.70950735857E+02  0.41800000000E+01 0. -1.
        -11    1    4    4    0    0 -0.17647596165E+02 -0.58639808102E+02  0.45060322876E+02  0.76029582679E+02  0.00000000000E+00 0. -1.
         11    1    4    4    0    0 -0.22773137771E+02  0.33209786777E+02 -0.46043571182E+01  0.40530307748E+02  0.00000000000E+00 0.  1.
</event>
<event>
 8    1  0.3654190E-009  0.1123453E+03  0.7561462E-02  0.1256287E+00
         -2   -1    0    0    0  501 -0.00000000000E+00  0.00000000000E+00  0.41272664099E+02  0.41272664099E+02  0.00000000000E+00 0.  1.
          2   -1    0    0  501    0  0.00000000000E+00 -0.00000000000E+00 -0.35658147317E+03  0.35658147317E+03  0.00000000000E+00 0. -1.
         25    2    1    2    0    0  0.49214870900E+02 -0.99511806559E+00 -0.19283107063E+03  0.23507139118E+03  0.12510652811E+03 0.  0.
         23    2    1    2    0    0 -0.49214870900E+02  0.99511806559E+00 -0.12247773844E+03  0.16278274608E+03  0.95259289475E+02 0.  0.
          5    1    3    3  502    0 -0.33127878015E+02  0.99710324622E+01 -0.11851652817E+03  0.12353346769E+03  0.41800000000E+01 0.  1.
         -5    1    3    3    0  502  0.82342748915E+02 -0.10966150528E+02 -0.74314542455E+02  0.11153792349E+03  0.41800000000E+01 0.  1.
        -11    1    4    4    0    0 -0.20608906212E+02  0.47664690613E+02 -0.51353880318E+02  0.73033353820E+02  0.00000000000E+00 0. -1.
         11    1    4    4    0    0 -0.28605964688E+02 -0.46669572547E+02 -0.71123858122E+02  0.89749392263E+02  0.00000000000E+00 0.  1.
</event>
<event>
 8    1  0.3654190E-009  0.9593912E+02  0.7561462E-02  0.1289075E+00
          2   -1    0    0  501    0  0.00000000000E+00  0.00000000000E+00  0.42518316094E+03  0.42518316094E+03  0.00000000000E+00 0. -1.
         -2   -1    0    0    0  501 -0.00000000000E+00 -0.00000000000E+00 -0.34187927327E+02  0.34187927327E+02  0.00000000000E+00 0.  1.
         25    2    1    2    0    0 -0.71488396712E+01  0.87989062946E+01  0.12435584645E+03  0.17674918417E+03  0.12508945158E+03 0.  0.
         23    2    1    2    0    0  0.71488396712E+01 -0.87989062946E+01  0.26663938716E+03  0.28262190409E+03  0.93005651596E+02 0.  0.
          5    1    3    3  502    0  0.41567513989E+02  0.31194190653E+02  0.10898676743E+03  0.12081607354E+03  0.41800000000E+01 0.  1.
         -5    1    3    3    0  502 -0.48716353660E+02 -0.22395284359E+02  0.15369079024E+02  0.55933110636E+02  0.41800000000E+01 0.  1.
        -11    1    4    4    0    0 -0.12144261336E+02 -0.44093978410E+02  0.19663817067E+03  0.20188692919E+03  0.00000000000E+00 0. -1.
         11    1    4    4    0    0  0.19293101007E+02  0.35295072115E+02  0.70001216494E+02  0.80734974904E+02  0.00000000000E+00 0.  1.
</event>
<event>
 8    1  0.3654190E-009  0.1298629E+03  0.7561462E-02  0.1227659E+00
         -2   -1    0    0    0  501 -0.00000000000E+00  0.00000000000E+00  0.11608121188E+02  0.11608121188E+02  0.00000000000E+00 0. -1.
          2   -1    0    0  501    0  0.00000000000E+00 -0.00000000000E+00 -0.23614803796E+04  0.23614803796E+04  0.00000000000E+00 0.  1.
         25    2    1    2    0    0 -0.25887894541E+00  0.86698212380E+02 -0.18901036303E+04  0.18962217926E+04  0.12509479009E+03 0.  0.
         23    2    1    2    0    0  0.25887894541E+00 -0.86698212380E+02 -0.45976862812E+03  0.47686670817E+03  0.92184699970E+02 0.  0.
          5    1    3    3  502    0 -0.28559001590E+02 -0.12037243356E+02 -0.95002154817E+03  0.95053612566E+03  0.41800000000E+01 0. -1.
         -5    1    3    3    0  502  0.28300122644E+02  0.98735455736E+02 -0.94008208214E+03  0.94568566698E+03  0.41800000000E+01 0. -1.
        -11    1    4    4    0    0 -0.36341931668E+01  0.19273775062E+02 -0.53341401080E+02  0.56833008316E+02  0.00000000000E+00 0. -1.
         11    1    4    4    0    0  0.38930721122E+01 -0.10597198744E+03 -0.40642722704E+03  0.42003369985E+03  0.00000000000E+00 0.  1.
</event>
<event>
 8    1  0.3654190E-009  0.1322830E+03  0.7561462E-02  0.1224107E+00
         -2   -1    0    0    0  501 -0.00000000000E+00  0.00000000000E+00  0.23220657067E+03  0.23220657067E+03  0.00000000000E+00 0.  1.
          2   -1    0    0  501    0  0.00000000000E+00 -0.00000000000E+00 -0.81539438851E+02  0.81539438851E+02  0.00000000000E+00 0. -1.
         25    2    1    2    0    0 -0.83763910006E+02  0.19057273505E+01  0.72470604799E+02  0.16708579852E+03  0.12508257709E+03 0.  0.
         23    2    1    2    0    0  0.83763910006E+02 -0.19057273505E+01  0.78196527022E+02  0.14666021101E+03  0.91512273700E+02 0.  0.
          5    1    3    3  502    0 -0.18013880426E+02  0.58740618214E+02  0.43433558025E+02  0.75358519617E+02  0.41800000000E+01 0.  1.
         -5    1    3    3    0  502 -0.65750029579E+02 -0.56834890864E+02  0.29037046774E+02  0.91727278901E+02  0.41800000000E+01 0.  1.
        -11    1    4    4    0    0  0.53391233438E+02 -0.40389802778E+02  0.70166995534E+02  0.96981272619E+02  0.00000000000E+00 0.  1.
         11    1    4    4    0    0  0.30372676568E+02  0.38484075427E+02  0.80295314880E+01  0.49678938387E+02  0.00000000000E+00 0. -1.
</event>
<event>
 8    1  0.3654190E-009  0.2345704E+03  0.7561462E-02  0.1123464E+00
          2   -1    0    0  501    0  0.00000000000E+00  0.00000000000E+00  0.30282382383E+03  0.30282382383E+03  0.00000000000E+00 0. -1.
         -2   -1    0    0    0  501 -0.00000000000E+00 -0.00000000000E+00 -0.21859173931E+03  0.21859173931E+03  0.00000000000E+00 0.  1.
         25    2    1    2    0    0  0.18858213305E+03  0.10780230556E+03  0.12801342988E+03  0.28145827816E+03  0.12508703421E+03 0.  0.
         23    2    1    2    0    0 -0.18858213305E+03 -0.10780230556E+03 -0.43781345359E+02  0.23995728497E+03  0.92076785474E+02 0.  0.
          5    1    3    3  502    0  0.57261923205E+01  0.60983838185E+02  0.24143827736E+02  0.65971316616E+02  0.41800000000E+01 0. -1.
         -5    1    3    3    0  502  0.18285594073E+03  0.46818467372E+02  0.10386960214E+03  0.21548696154E+03  0.41800000000E+01 0. -1.
        -11    1    4    4    0    0 -0.62737143854E+02 -0.51107289348E+02  0.26395254710E+02  0.85115296596E+02  0.00000000000E+00 0.  1.
         11    1    4    4    0    0 -0.12584498919E+03 -0.56695016210E+02 -0.70176600069E+02  0.15484198838E+03  0.00000000000E+00 0. -1.
</event>
<event>
 8    1  0.3654190E-009  0.1408780E+03  0.7561462E-02  0.1212152E+00
         -2   -1    0    0    0  501 -0.00000000000E+00  0.00000000000E+00  0.22681292046E+02  0.22681292046E+02  0.00000000000E+00 0.  1.
          2   -1    0    0  501    0  0.00000000000E+00 -0.00000000000E+00 -0.10718382318E+04  0.10718382318E+04  0.00000000000E+00 0. -1.
         25    2    1    2    0    0  0.10174915278E+03 -0.13449516996E+02 -0.40754546912E+03  0.43849107692E+03  0.12508931024E+03 0.  0.
         23    2    1    2    0    0 -0.10174915278E+03  0.13449516996E+02 -0.64161147060E+03  0.65602844689E+03  0.90411638251E+02 0.  0.
          5    1    3    3  502    0  0.11015529782E+03 -0.39972741356E+02 -0.38492804011E+03  0.40239169742E+03  0.41800000000E+01 0.  1.
         -5    1    3    3    0  502 -0.84061450398E+01  0.26523224360E+02 -0.22617429005E+02  0.36099379491E+02  0.41800000000E+01 0.  1.
        -11    1    4    4    0    0 -0.15485941557E+02  0.42583471645E+02 -0.23792641636E+03  0.24220269620E+03  0.00000000000E+00 0. -1.
         11    1    4    4    0    0 -0.86263211226E+02 -0.29133954648E+02 -0.40368505424E+03  0.41382575070E+03  0.00000000000E+00 0.  1.
</event>
<event>
 8    1  0.3654190E-009  0.1137202E+03  0.7561462E-02  0.1253832E+00
         -1   -1    0    0    0  501 -0.00000000000E+00  0.00000000000E+00  0.62038544359E+03  0.62038544359E+03  0.00000000000E+00 0.  1.
          1   -1    0    0  501    0  0.00000000000E+00 -0.00000000000E+00 -0.25410483450E+02  0.25410483450E+02  0.00000000000E+00 0. -1.
         25    2    1    2    0    0 -0.12915844844E+02 -0.57913002528E+02  0.26435592072E+03  0.29841504924E+03  0.12508698528E+03 0.  0.
         23    2    1    2    0    0  0.12915844844E+02  0.57913002528E+02  0.33061903942E+03  0.34738087780E+03  0.88565174426E+02 0.  0.
          5    1    3    3  502    0 -0.56063892148E+02 -0.70463360793E+02  0.14412830183E+03  0.16999613232E+03  0.41800000000E+01 0.  1.
         -5    1    3    3    0  502  0.43148047304E+02  0.12550358264E+02  0.12022761889E+03  0.12841891692E+03  0.41800000000E+01 0.  1.
        -11    1    4    4    0    0  0.85263263662E+01  0.74511770413E+02  0.31616198176E+03  0.32493553343E+03  0.00000000000E+00 0.  1.
         11    1    4    4    0    0  0.43895184781E+01 -0.16598767885E+02  0.14457057661E+02  0.22445344372E+02  0.00000000000E+00 0. -1.
</event>
<event>
 8    1  0.3654190E-009  0.1401029E+03  0.7561462E-02  0.1213191E+00
          2   -1    0    0  501    0  0.00000000000E+00  0.00000000000E+00  0.34808114991E+03  0.34808114991E+03  0.00000000000E+00 0. -1.
         -2   -1    0    0    0  501 -0.00000000000E+00 -0.00000000000E+00 -0.70887321832E+02  0.70887321832E+02  0.00000000000E+00 0.  1.
         25    2    1    2    0    0 -0.92062037224E+02  0.50536739016E+02  0.87462828772E+02  0.18527473526E+03  0.12509036902E+03 0.  0.
         23    2    1    2    0    0  0.92062037224E+02 -0.50536739016E+02  0.18973099930E+03  0.23369373648E+03  0.87094946376E+02 0.  0.
          5    1    3    3  502    0 -0.33274610030E+02 -0.41494580344E+02  0.20806516898E+02  0.57265900988E+02  0.41800000000E+01 0. -1.
         -5    1    3    3    0  502 -0.58787427194E+02  0.92031319360E+02  0.66656311874E+02  0.12800883427E+03  0.41800000000E+01 0. -1.
        -11    1    4    4    0    0  0.29507906776E+02 -0.46258147047E+02  0.14936350601E+03  0.15912256175E+03  0.00000000000E+00 0. -1.
         11    1    4    4    0    0  0.62554130448E+02 -0.42785919690E+01  0.40367493291E+02  0.74571174725E+02  0.00000000000E+00 0.  1.
</event>
<event>
 8    1  0.3654190E-009  0.9852441E+02  0.7561462E-02  0.1283430E+00
         -1   -1    0    0    0  501 -0.00000000000E+00  0.00000000000E+00  0.25141858277E+02  0.25141858277E+02  0.00000000000E+00 0.  1.
          1   -1    0    0  501    0  0.00000000000E+00 -0.00000000000E+00 -0.49822745826E+03  0.49822745826E+03  0.00000000000E+00 0. -1.
         25    2    1    2    0    0  0.20949861556E+02 -0.97818105256E+01 -0.31108461513E+03  0.33609005048E+03  0.12509318025E+03 0.  0.
         23    2    1    2    0    0 -0.20949861556E+02  0.97818105256E+01 -0.16200098486E+03  0.18727926606E+03  0.91074825746E+02 0.  0.
          5    1    3    3  502    0  0.64174110279E+02 -0.13802812873E+02 -0.94367906656E+02  0.11502872806E+03  0.41800000000E+01 0. -1.
         -5    1    3    3    0  502 -0.43224248723E+02  0.40210023478E+01 -0.21671670847E+03  0.22106132242E+03  0.41800000000E+01 0. -1.
        -11    1    4    4    0    0 -0.53548379866E+02 -0.27116697287E+00 -0.63646667977E+02  0.83176925060E+02  0.00000000000E+00 0.  1.
         11    1    4    4    0    0  0.32598518310E+02  0.10052977498E+02 -0.98354316884E+02  0.10410234100E+03  0.00000000000E+00 0. -1.
</event>
<event>
 8    1  0.3654190E-009  0.9021742E+02  0.7561462E-02  0.1302326E+00
         -1   -1    0    0    0  501 -0.00000000000E+00  0.00000000000E+00  0.57718502641E+02  0.57718502641E+02  0.00000000000E+00 0.  1.
          1   -1    0    0  501    0  0.00000000000E+00 -0.00000000000E+00 -0.30783998469E+03  0.30783998469E+03  0.00000000000E+00 0. -1.
         25    2    1    2    0    0 -0.23958105322E+02 -0.64240597607E+01 -0.34999329171E+02  0.13223142766E+03  0.12507972683E+03 0.  0.
         23    2    1    2    0    0  0.23958105322E+02  0.64240597607E+01 -0.21512215288E+03  0.23332705967E+03  0.86883351462E+02 0.  0.
          5    1    3    3  502    0 -0.55199907000E+02 -0.15427171341E+02  0.25927698899E+02  0.63045581278E+02  0.41800000000E+01 0.  1.
         -5    1    3    3    0  502  0.31241801678E+02  0.90031115807E+01 -0.60927028070E+02  0.69185846383E+02  0.41800000000E+01 0.  1.
        -11    1    4    4    0    0  0.51462911070E+02 -0.16855208873E+02 -0.12212310091E+03  0.13359109648E+03  0.00000000000E+00 0.  1.
         11    1    4    4    0    0 -0.27504805747E+02  0.23279268634E+02 -0.92999051966E+02  0.99735963193E+02  0.00000000000E+00 0. -1.
</event>
<event>
 8    1  0.3654190E-009  0.1039845E+03  0.7561462E-02  0.1272133E+00
         -2   -1    0    0    0  501 -0.00000000000E+00  0.00000000000E+00  0.14877049491E+02  0.14877049491E+02  0.00000000000E+00 0.  1.
          2   -1    0    0  501    0  0.00000000000E+00 -0.00000000000E+00 -0.21427540128E+04  0.21427540128E+04  0.00000000000E+00 0. -1.
         25    2    1    2    0    0 -0.49006256667E+02 -0.36573695100E+02 -0.18991636896E+04  0.19042610848E+04  0.12509320848E+03 0.  0.
         23    2    1    2    0    0  0.49006256667E+02  0.36573695100E+02 -0.22871327379E+03  0.25336997757E+03  0.90262592268E+02 0.  0.
          5    1    3    3  502    0  0.30572463024E+02 -0.47643130191E+02 -0.63101401114E+03  0.63356191332E+03  0.41800000000E+01 0.  1.
         -5    1    3    3    0  502 -0.79578719692E+02  0.11069435091E+02 -0.12681496784E+04  0.12706991714E+04  0.41800000000E+01 0.  1.
        -11    1    4    4    0    0  0.21568438152E+02 -0.38373280517E+01 -0.26231494645E+01  0.22063624453E+02  0.00000000000E+00 0.  1.
         11    1    4    4    0    0  0.27437818515E+02  0.40411023152E+02 -0.22609012432E+03  0.23130635312E+03  0.00000000000E+00 0. -1.
</event>
<event>
 8    1  0.3654190E-009  0.9412366E+02  0.7561462E-02  0.1293162E+00
          4   -1    0    0  501    0  0.00000000000E+00  0.00000000000E+00  0.35201267112E+02  0.35201267112E+02  0.00000000000E+00 0.  1.
         -4   -1    0    0    0  501 -0.00000000000E+00 -0.00000000000E+00 -0.45652936210E+03  0.45652936210E+03  0.00000000000E+00 0. -1.
         25    2    1    2    0    0  0.81498158055E+01 -0.64361812930E+02 -0.26397646208E+03  0.29923238542E+03  0.12509030934E+03 0.  0.
         23    2    1    2    0    0 -0.81498158055E+01  0.64361812930E+02 -0.15735163291E+03  0.19249824379E+03  0.89928721899E+02 0.  0.
          5    1    3    3  502    0 -0.32357202968E+02 -0.64423182007E+02 -0.68413764592E+02  0.99474873960E+02  0.41800000000E+01 0.  1.
         -5    1    3    3    0  502  0.40507018773E+02  0.61369076872E-01 -0.19556269748E+03  0.19975751146E+03  0.41800000000E+01 0.  1.
        -11    1    4    4    0    0  0.13560388325E+02  0.42041172018E+02 -0.14802769373E+02  0.46588263085E+02  0.00000000000E+00 0.  1.
         11    1    4    4    0    0 -0.21710204130E+02  0.22320640912E+02 -0.14254886354E+03  0.14590998071E+03  0.00000000000E+00 0. -1.
</event>
<event>
 8    1  0.3654190E-009  0.1136829E+03  0.7561462E-02  0.1253898E+00
          2   -1    0    0  501    0  0.00000000000E+00  0.00000000000E+00  0.44839562266E+03  0.44839562266E+03  0.00000000000E+00 0. -1.
         -2   -1    0    0    0  501 -0.00000000000E+00 -0.00000000000E+00 -0.42327237611E+02  0.42327237611E+02  0.00000000000E+00 0.  1.
         25    2    1    2    0    0  0.17195347426E+02  0.53830720468E+02  0.11033551623E+03  0.17611239387E+03  0.12509285628E+03 0.  0.
         23    2    1    2    0    0 -0.17195347426E+02 -0.53830720468E+02  0.29573286881E+03  0.31461046640E+03  0.91260010028E+02 0.  0.
          5    1    3    3  502    0  0.46358584487E+02  0.79983831464E+02  0.53298230902E+02  0.10679281562E+03  0.41800000000E+01 0. -1.
         -5    1    3    3    0  502 -0.29163237062E+02 -0.26153110996E+02  0.57037285329E+02  0.69319578247E+02  0.41800000000E+01 0. -1.
        -11    1    4    4    0    0 -0.44309072702E+02 -0.51907470303E+02  0.13161827593E+03  0.14826007540E+03  0.00000000000E+00 0.  1.
         11    1    4    4    0    0  0.27113725276E+02 -0.19232501650E+01  0.16411459288E+03  0.16635039100E+03  0.00000000000E+00 0. -1.
</event>
<event>
 8    1  0.3654190E-009  0.1011695E+03  0.7561462E-02  0.1277856E+00
          1   -1    0    0  501    0  0.00000000000E+00  0.00000000000E+00  0.12534459236E+03  0.12534459236E+03  0.00000000000E+00 0. -1.
         -1   -1    0    0    0  501 -0.00000000000E+00 -0.00000000000E+00 -0.15111834334E+03  0.15111834334E+03  0.00000000000E+00 0.  1.
         25    2    1    2    0    0  0.77051446049E+02  0.26684188252E+02 -0.52136190355E+02  0.15816164958E+03  0.12509178155E+03 0.  0.
         23    2    1    2    0    0 -0.77051446049E+02 -0.26684188252E+02  0.26362439376E+02  0.11830128612E+03  0.81555164443E+02 0.  0.
          5    1    3    3  502    0  0.86962474096E+02 -0.24192560122E+01  0.11024378013E+02  0.87791423335E+02  0.41800000000E+01 0.  1.
         -5    1    3    3    0  502 -0.99110280466E+01  0.29103444264E+02 -0.63160568368E+02  0.70370226244E+02  0.41800000000E+01 0.  1.
        -11    1    4    4    0    0 -0.99499398908E+01 -0.11886370566E+02 -0.27112808794E+02  0.31231258536E+02  0.00000000000E+00 0.  1.
         11    1    4    4    0    0 -0.67101506159E+02 -0.14797817686E+02  0.53475248170E+02  0.87070027586E+02  0.00000000000E+00 0. -1.
</event>
<event>
 8    1  0.3654190E-009  0.8512522E+02  0.7561462E-02  0.1315105E+00
         -1   -1    0    0    0  501 -0.00000000000E+00  0.00000000000E+00  0.62443594477E+02  0.62443594477E+02  0.00000000000E+00 0.  1.
          1   -1    0    0  501    0  0.00000000000E+00 -0.00000000000E+00 -0.25861263666E+03  0.25861263666E+03  0.00000000000E+00 0. -1.
         25    2    1    2    0    0  0.37962154856E+02  0.21113425934E+02 -0.17045460581E+03  0.21584426041E+03  0.12508824946E+03 0.  0.
         23    2    1    2    0    0 -0.37962154856E+02 -0.21113425934E+02 -0.25714436375E+02  0.10521197073E+03  0.92311562608E+02 0.  0.
          5    1    3    3  502    0  0.71788716900E+01  0.48169888276E+02 -0.16756239201E+03  0.17454656098E+03  0.41800000000E+01 0. -1.
         -5    1    3    3    0  502  0.30783283166E+02 -0.27056462343E+02 -0.28922137998E+01  0.41297699423E+02  0.41800000000E+01 0. -1.
        -11    1    4    4    0    0 -0.32371732787E+01  0.23453079942E+02  0.21196335440E+02  0.31777521705E+02  0.00000000000E+00 0.  1.
         11    1    4    4    0    0 -0.34724981577E+02 -0.44566505876E+02 -0.46910771816E+02  0.73434449027E+02  0.00000000000E+00 0. -1.
</event>
<event>
 8    1  0.3654190E-009  0.7234175E+02  0.7561462E-02  0.1352306E+00
         -2   -1    0    0    0  501 -0.00000000000E+00  0.00000000000E+00  0.10146933798E+03  0.10146933798E+03  0.00000000000E+00 0.  1.
          2   -1    0    0  501    0  0.00000000000E+00 -0.00000000000E+00 -0.15625532667E+03  0.15625532667E+03  0.00000000000E+00 0. -1.
         25    2    1    2    0    0  0.94785081071E+01 -0.41706266976E+02  0.20798584875E+02  0.13384098435E+03  0.12510624740E+03 0.  0.
         23    2    1    2    0    0 -0.94785081071E+01  0.41706266976E+02 -0.75584573568E+02  0.12388368031E+03  0.88345252643E+02 0.  0.
          5    1    3    3  502    0  0.28584280415E+02  0.20159290416E+02 -0.33966182997E+02  0.48934977923E+02  0.41800000000E+01 0.  1.
         -5    1    3    3    0  502 -0.19105772308E+02 -0.61865557391E+02  0.54764767872E+02  0.84906006425E+02  0.41800000000E+01 0.  1.
        -11    1    4    4    0    0 -0.32791440010E-01  0.27579751670E+02  0.15221366302E+02  0.31501329647E+02  0.00000000000E+00 0.  1.
         11    1    4    4    0    0 -0.94457166671E+01  0.14126515306E+02 -0.90805939871E+02  0.92382350662E+02  0.00000000000E+00 0. -1.
</event>
<event>
 8    1  0.3654190E-009  0.1694885E+03  0.7561462E-02  0.1178382E+00
          2   -1    0    0  501    0  0.00000000000E+00  0.00000000000E+00  0.12949275315E+04  0.12949275315E+04  0.00000000000E+00 0.  1.
         -2   -1    0    0    0  501 -0.00000000000E+00 -0.00000000000E+00 -0.35712041326E+02  0.35712041326E+02  0.00000000000E+00 0. -1.
         25    2    1    2    0    0 -0.76820107569E+01  0.16738678445E+03  0.90014660276E+03  0.92411422718E+03  0.12508337029E+03 0.  0.
         23    2    1    2    0    0  0.76820107569E+01 -0.16738678445E+03  0.35906888737E+03  0.40652534560E+03  0.90857260793E+02 0.  0.
          5    1    3    3  502    0 -0.96833251573E+01  0.14303772088E+03  0.42948870040E+03  0.45280412162E+03  0.41800000000E+01 0.  1.
         -5    1    3    3    0  502  0.20013144004E+01  0.24349063574E+02  0.47065790236E+03  0.47131010557E+03  0.41800000000E+01 0.  1.
        -11    1    4    4    0    0  0.17303375938E+02 -0.48588703888E+02  0.38048377080E+02  0.64093275489E+02  0.00000000000E+00 0. -1.
         11    1    4    4    0    0 -0.96213651811E+01 -0.11879808056E+03  0.32102051029E+03  0.34243207011E+03  0.00000000000E+00 0.  1.
</event>
<event>
 8    1  0.3654190E-009  0.9976832E+02  0.7561462E-02  0.1280784E+00
         -1   -1    0    0    0  501 -0.00000000000E+00  0.00000000000E+00  0.11412314017E+03  0.11412314017E+03  0.00000000000E+00 0.  1.
          1   -1    0    0  501    0  0.00000000000E+00 -0.00000000000E+00 -0.23894101567E+03  0.23894101567E+03  0.00000000000E+00 0. -1.
         25    2    1    2    0    0 -0.22221693427E+02 -0.39030737797E+02 -0.19231731716E+03  0.23377502653E+03  0.12509040890E+03 0.  0.
         23    2    1    2    0    0  0.22221693427E+02  0.39030737797E+02  0.67499441665E+02  0.11928912930E+03  0.87501540517E+02 0.  0.
          5    1    3    3  502    0 -0.61516378848E+02  0.17125911232E+02 -0.99943265027E+02  0.11867472488E+03  0.41800000000E+01 0.  1.
         -5    1    3    3    0  502  0.39294685421E+02 -0.56156649029E+02 -0.92374052133E+02  0.11510030165E+03  0.41800000000E+01 0.  1.
        -11    1    4    4    0    0 -0.15123519325E+02  0.19670460537E+02  0.72780425372E+02  0.76893680962E+02  0.00000000000E+00 0.  1.
         11    1    4    4    0    0  0.37345212752E+02  0.19360277260E+02 -0.52809837072E+01  0.42395448341E+02  0.00000000000E+00 0. -1.
</event>
<event>
 8    1  0.3654190E-009  0.1285730E+03  0.7561462E-02  0.1229589E+00
          1   -1    0    0  501    0  0.00000000000E+00  0.00000000000E+00  0.32617449043E+03  0.32617449043E+03  0.00000000000E+00 0. -1.
         -1   -1    0    0    0  501 -0.00000000000E+00 -0.00000000000E+00 -0.96000728128E+02  0.96000728128E+02  0.00000000000E+00 0.  1.
         25    2    1    2    0    0 -0.10697256040E+03 -0.43052945316E+02  0.28446417183E+02  0.17249111722E+03  0.12508917655E+03 0.  0.
         23    2    1    2    0    0  0.10697256040E+03  0.43052945316E+02  0.20172734512E+03  0.24968410134E+03  0.91386781952E+02 0.  0.
          5    1    3    3  502    0 -0.59032294572E+02 -0.26173236944E+02  0.78024856601E+02  0.10136666504E+03  0.41800000000E+01 0. -1.
         -5    1    3    3    0  502 -0.47940265823E+02 -0.16879708372E+02 -0.49578439418E+02  0.71124452174E+02  0.41800000000E+01 0. -1.
        -11    1    4    4    0    0  0.82974280424E+02  0.67663232940E+02  0.11886471886E+03  0.15997457827E+03  0.00000000000E+00 0.  1.
         11    1    4    4    0    0  0.23998279971E+02 -0.24610287624E+02  0.82862626261E+02  0.89709523070E+02  0.00000000000E+00 0. -1.
</event>
<event>
 8    1  0.3654190E-009  0.8942502E+02  0.7561462E-02  0.1304250E+00
          1   -1    0    0  501    0  0.00000000000E+00  0.00000000000E+00  0.82580606380E+03  0.82580606380E+03  0.00000000000E+00 0. -1.
         -1   -1    0    0    0  501 -0.00000000000E+00 -0.00000000000E+00 -0.26326710399E+02  0.26326710399E+02  0.00000000000E+00 0.  1.
         25    2    1    2    0    0 -0.27306265629E+00  0.24046907293E+02  0.70883877141E+03  0.72019185692E+03  0.12508228730E+03 0.  0.
         23    2    1    2    0    0  0.27306265629E+00 -0.24046907293E+02  0.90640581990E+02  0.13194091728E+03  0.92813588642E+02 0.  0.
          5    1    3    3  502    0 -0.30951121449E+02 -0.14047762772E+02  0.59786797362E+03  0.59884797556E+03  0.41800000000E+01 0.  1.
         -5    1    3    3    0  502  0.30678058793E+02  0.38094670065E+02  0.11097079779E+03  0.12134388135E+03  0.41800000000E+01 0.  1.
        -11    1    4    4    0    0 -0.40013905566E+02  0.11662927873E+02  0.45295229914E+02  0.61553183331E+02  0.00000000000E+00 0.  1.
         11    1    4    4    0    0  0.40286968222E+02 -0.35709835166E+02  0.45345352076E+02  0.70387733953E+02  0.00000000000E+00 0. -1.
</event>
<event>
 8    1  0.3654190E-009  0.2168199E+03  0.7561462E-02  0.1136276E+00
         -2   -1    0    0    0  501 -0.00000000000E+00  0.00000000000E+00  0.11532000011E+03  0.11532000011E+03  0.00000000000E+00 0. -1.
          2   -1    0    0  501    0  0.00000000000E+00 -0.00000000000E+00 -0.54165234851E+03  0.54165234851E+03  0.00000000000E+00 0.  1.
         25    2    1    2    0    0 -0.19578368158E+03 -0.49632974646E+02 -0.34898769489E+03  0.42217839489E+03  0.12508998273E+03 0.  0.
         23    2    1    2    0    0  0.19578368158E+03  0.49632974646E+02 -0.77344653510E+02  0.23479395373E+03  0.91385573999E+02 0.  0.
          5    1    3    3  502    0 -0.16503106991E+02  0.19393990386E+02 -0.24387228281E+01  0.25921017968E+02  0.41800000000E+01 0. -1.
         -5    1    3    3    0  502 -0.17928057459E+03 -0.69026965033E+02 -0.34654897206E+03  0.39625737692E+03  0.41800000000E+01 0. -1.
        -11    1    4    4    0    0  0.14067528019E+03  0.69743837592E+02 -0.79697306708E+02  0.17608349734E+03  0.00000000000E+00 0.  1.
         11    1    4    4    0    0  0.55108401396E+02 -0.20110862946E+02  0.23526531973E+01  0.58710456393E+02  0.00000000000E+00 0. -1.
</event>
<event>
 8    1  0.3654190E-009  0.1159586E+03  0.7561462E-02  0.1249917E+00
         -1   -1    0    0    0  501 -0.00000000000E+00  0.00000000000E+00  0.36541784834E+02  0.36541784834E+02  0.00000000000E+00 0.  1.
          1   -1    0    0  501    0  0.00000000000E+00 -0.00000000000E+00 -0.74302267298E+03  0.74302267298E+03  0.00000000000E+00 0. -1.
         25    2    1    2    0    0 -0.89192344785E+02 -0.70577558682E+02 -0.48036149007E+03  0.50924642892E+03  0.12509315758E+03 0.  0.
         23    2    1    2    0    0  0.89192344785E+02  0.70577558682E+02 -0.22611939808E+03  0.27031802889E+03  0.94896724903E+02 0.  0.
          5    1    3    3  502    0 -0.43812501770E+02 -0.26944470225E+02 -0.42471219405E+02  0.66834247694E+02  0.41800000000E+01 0.  1.
         -5    1    3    3    0  502 -0.45379843016E+02 -0.43633088457E+02 -0.43789027066E+03  0.44241218123E+03  0.41800000000E+01 0.  1.
        -11    1    4    4    0    0  0.43529257990E+02  0.16768015907E+02 -0.18015514396E+03  0.18609631527E+03  0.00000000000E+00 0. -1.
         11    1    4    4    0    0  0.45663086795E+02  0.53809542775E+02 -0.45964254113E+02  0.84221713623E+02  0.00000000000E+00 0.  1.
</event>
<event>
 8    1  0.3654190E-009  0.2098331E+03  0.7561462E-02  0.1141698E+00
          1   -1    0    0  501    0  0.00000000000E+00  0.00000000000E+00  0.17754243543E+03  0.17754243543E+03  0.00000000000E+00 0. -1.
         -1   -1    0    0    0  501 -0.00000000000E+00 -0.00000000000E+00 -0.25616771145E+03  0.25616771145E+03  0.00000000000E+00 0.  1.
         25    2    1    2    0    0  0.18039830441E+03 -0.14369805121E+02 -0.69432169573E+02  0.23069077673E+03  0.12508944305E+03 0.  0.
         23    2    1    2    0    0 -0.18039830441E+03  0.14369805121E+02 -0.91931064433E+01  0.20301937016E+03  0.91554966663E+02 0.  0.
          5    1    3    3  502    0  0.51334134501E+02  0.52664650756E+02 -0.13924623174E+02  0.74967501857E+02  0.41800000000E+01 0.  1.
         -5    1    3    3    0  502  0.12906416991E+03 -0.67034455876E+02 -0.55507546399E+02  0.15572327487E+03  0.41800000000E+01 0.  1.
        -11    1    4    4    0    0 -0.11403212118E+02 -0.24568319769E+02 -0.11877839078E+02  0.29575642749E+02  0.00000000000E+00 0.  1.
         11    1    4    4    0    0 -0.16899509229E+03  0.38938124889E+02  0.26847326346E+01  0.17344372741E+03  0.00000000000E+00 0. -1.
</event>
<event>
 8    1  0.3654190E-009  0.2637481E+03  0.7561462E-02  0.1104912E+00
          2   -1    0    0  501    0  0.00000000000E+00  0.00000000000E+00  0.96043633646E+03  0.96043633646E+03  0.00000000000E+00 0.  1.
         -2   -1    0    0    0  501 -0.00000000000E+00 -0.00000000000E+00 -0.78261035783E+02  0.78261035783E+02  0.00000000000E+00 0. -1.
         25    2    1    2    0    0  0.18969895171E+03  0.16523978820E+03  0.46133660589E+03  0.54015615502E+03  0.12508928009E+03 0.  0.
         23    2    1    2    0    0 -0.18969895171E+03 -0.16523978820E+03  0.42083869478E+03  0.49854121721E+03  0.90267703816E+02 0.  0.
          5    1    3    3  502    0  0.12364057971E+03  0.62568798702E+02  0.34352668563E+03  0.37044554749E+03  0.41800000000E+01 0. -1.
         -5    1    3    3    0  502  0.66058372004E+02  0.10267098949E+03  0.11780992026E+03  0.16971060753E+03  0.41800000000E+01 0. -1.
        -11    1    4    4    0    0 -0.39410730234E+02 -0.90814913543E+02  0.17222878702E+03  0.19865374211E+03  0.00000000000E+00 0.  1.
         11    1    4    4    0    0 -0.15028822148E+03 -0.74424874653E+02  0.24860990777E+03  0.29988747510E+03  0.00000000000E+00 0. -1.
</event>
<event>
 8    1  0.3654190E-009  0.1827901E+03  0.7561462E-02  0.1165130E+00
         -1   -1    0    0    0  501 -0.00000000000E+00  0.00000000000E+00  0.70433274096E+02  0.70433274096E+02  0.00000000000E+00 0.  1.
          1   -1    0    0  501    0  0.00000000000E+00 -0.00000000000E+00 -0.57609456783E+03  0.57609456783E+03  0.00000000000E+00 0. -1.
         25    2    1    2    0    0  0.14579245725E+03  0.82775576059E+02 -0.29541399531E+03  0.36197596293E+03  0.12509969035E+03 0.  0.
         23    2    1    2    0    0 -0.14579245725E+03 -0.82775576059E+02 -0.21024729842E+03  0.28455187900E+03  0.93051645692E+02 0.  0.
          5    1    3    3  502    0  0.12779358878E+03  0.37003342222E+02 -0.28038640261E+03  0.31037792421E+03  0.41800000000E+01 0.  1.
         -5    1    3    3    0  502  0.17998868473E+02  0.45772233837E+02 -0.15027592702E+02  0.51598038714E+02  0.41800000000E+01 0.  1.
        -11    1    4    4    0    0 -0.82606686628E+02 -0.47974000659E+01 -0.13793320112E+03  0.16084914577E+03  0.00000000000E+00 0. -1.
         11    1    4    4    0    0 -0.63185770623E+02 -0.77978175993E+02 -0.72314097297E+02  0.12370273323E+03  0.00000000000E+00 0.  1.
</event>
<event>
 8    1  0.3654190E-009  0.1189518E+03  0.7561462E-02  0.1244836E+00
          1   -1    0    0  501    0  0.00000000000E+00  0.00000000000E+00  0.26516647430E+03  0.26516647430E+03  0.00000000000E+00 0. -1.
         -1   -1    0    0    0  501 -0.00000000000E+00 -0.00000000000E+00 -0.56783829821E+02  0.56783829821E+02  0.00000000000E+00 0.  1.
         25    2    1    2    0    0  0.54570678045E+02  0.16096154387E+02  0.99774319629E+02  0.16982080036E+03  0.12508854579E+03 0.  0.
         23    2    1    2    0    0 -0.54570678045E+02 -0.16096154387E+02  0.10860832485E+03  0.15212950377E+03  0.90058717516E+02 0.  0.
          5    1    3    3  502    0  0.35424975159E+02 -0.53785921836E+02  0.41352993280E+02  0.76651136365E+02  0.41800000000E+01 0.  1.
         -5    1    3    3    0  502  0.19145702886E+02  0.69882076223E+02  0.58421326349E+02  0.93169663993E+02  0.41800000000E+01 0.  1.
        -11    1    4    4    0    0 -0.37698727673E+02 -0.50175276253E+02  0.90189301780E+02  0.10987657881E+03  0.00000000000E+00 0.  1.
         11    1    4    4    0    0 -0.16871950373E+02  0.34079121866E+02  0.18419023074E+02  0.42252924959E+02  0.00000000000E+00 0. -1.
</event>
<event>
 8    1  0.3654190E-009  0.8329125E+02  0.7561462E-02  0.1319963E+00
         -1   -1    0    0    0  501 -0.00000000000E+00  0.00000000000E+00  0.14661050778E+02  0.14661050778E+02  0.00000000000E+00 0.  1.
          1   -1    0    0  501    0  0.00000000000E+00 -0.00000000000E+00 -0.81579153661E+03  0.81579153661E+03  0.00000000000E+00 0. -1.
         25    2    1    2    0    0  0.10904731467E+02 -0.45257307018E+01 -0.47060076819E+03  0.48708497885E+03  0.12508916098E+03 0.  0.
         23    2    1    2    0    0 -0.10904731467E+02  0.45257307018E+01 -0.33052971764E+03  0.34336760854E+03  0.92260635929E+02 0.  0.
          5    1    3    3  502    0 -0.48443662295E+01 -0.41305243433E+02 -0.52750958526E+02  0.67303246910E+02  0.41800000000E+01 0.  1.
         -5    1    3    3    0  502  0.15749097696E+02  0.36779512731E+02 -0.41784980966E+03  0.41978173194E+03  0.41800000000E+01 0.  1.
        -11    1    4    4    0    0 -0.44704115503E+02 -0.12902870341E+02 -0.25021939313E+03  0.25450871636E+03  0.00000000000E+00 0. -1.
         11    1    4    4    0    0  0.33799384036E+02  0.17428601043E+02 -0.80310324513E+02  0.88858892177E+02  0.00000000000E+00 0.  1.
</event>
<event>
 8    1  0.3654190E-009  0.1199982E+03  0.7561462E-02  0.1243100E+00
         -1   -1    0    0    0  501 -0.00000000000E+00  0.00000000000E+00  0.41135263146E+02  0.41135263146E+02  0.00000000000E+00 0.  1.
          1   -1    0    0  501    0  0.00000000000E+00 -0.00000000000E+00 -0.59049334622E+03  0.59049334622E+03  0.00000000000E+00 0. -1.
         25    2    1    2    0    0 -0.70494291062E+02 -0.97462129425E+01 -0.12074304562E+03  0.18785704057E+03  0.12508777273E+03 0.  0.
         23    2    1    2    0    0  0.70494291062E+02  0.97462129425E+01 -0.42861503746E+03  0.44377156879E+03  0.90321211230E+02 0.  0.
          5    1    3    3  502    0 -0.31654044454E+02  0.56832289091E+02 -0.69021320050E+02  0.94938414960E+02  0.41800000000E+01 0.  1.
         -5    1    3    3    0  502 -0.38840246609E+02 -0.66578502033E+02 -0.51721725568E+02  0.92918625611E+02  0.41800000000E+01 0.  1.
        -11    1    4    4    0    0  0.10673357265E+02  0.32044131041E+02 -0.53546994658E+02  0.63308984563E+02  0.00000000000E+00 0.  1.
         11    1    4    4    0    0  0.59820933797E+02 -0.22297918099E+02 -0.37506804280E+03  0.38046258423E+03  0.00000000000E+00 0. -1.
</event>
<event>
 8    1  0.3654190E-009  0.5986222E+02  0.7561462E-02  0.1398411E+00
         -1   -1    0    0    0  501 -0.00000000000E+00  0.00000000000E+00  0.52661286512E+03  0.52661286512E+03  0.00000000000E+00 0.  1.
          1   -1    0    0  501    0  0.00000000000E+00 -0.00000000000E+00 -0.37153844655E+02  0.37153844655E+02  0.00000000000E+00 0. -1.
         25    2    1    2    0    0 -0.20704916210E+02  0.14472160869E+01  0.43673732503E+03  0.45477082847E+03  0.12508488060E+03 0.  0.
         23    2    1    2    0    0  0.20704916210E+02 -0.14472160869E+01  0.52721695426E+02  0.10899588131E+03  0.93111422410E+02 0.  0.
          5    1    3    3  502    0  0.15579808943E+02 -0.99962676932E+00 -0.33793821385E+00  0.16165280777E+02  0.41800000000E+01 0. -1.
         -5    1    3    3    0  502 -0.36284725153E+02  0.24468428562E+01  0.43707526325E+03  0.43860554769E+03  0.41800000000E+01 0. -1.
        -11    1    4    4    0    0 -0.13387942785E+02 -0.23006603572E+02  0.62115625343E+02  0.67578781667E+02  0.00000000000E+00 0.  1.
         11    1    4    4    0    0  0.34092858995E+02  0.21559387485E+02 -0.93939299168E+01  0.41417099638E+02  0.00000000000E+00 0. -1.
</event>
<event>
 8    1  0.3654190E-009  0.2560811E+03  0.7561462E-02  0.1109521E+00
         -2   -1    0    0    0  501 -0.00000000000E+00  0.00000000000E+00  0.10259112721E+03  0.10259112721E+03  0.00000000000E+00 0.  1.
          2   -1    0    0  501    0  0.00000000000E+00 -0.00000000000E+00 -0.69622532905E+03  0.69622532905E+03  0.00000000000E+00 0. -1.
         25    2    1    2    0    0  0.24008936275E+03  0.27349356166E+02 -0.32346021149E+03  0.42268867903E+03  0.12509325151E+03 0.  0.
         23    2    1    2    0    0 -0.24008936275E+03 -0.27349356166E+02 -0.27017399035E+03  0.37612777724E+03  0.10043520476E+03 0.  0.
          5    1    3    3  502    0  0.17407391106E+03 -0.24808130591E+02 -0.27220407757E+03  0.32408286301E+03  0.41800000000E+01 0.  1.
         -5    1    3    3    0  502  0.66015451696E+02  0.52157486758E+02 -0.51256133920E+02  0.98605816015E+02  0.41800000000E+01 0.  1.
        -11    1    4    4    0    0 -0.14049446613E+03  0.19743503662E+02 -0.20105623597E+03  0.24607338534E+03  0.00000000000E+00 0.  1.
         11    1    4    4    0    0 -0.99594896624E+02 -0.47092859828E+02 -0.69117754379E+02  0.13005439189E+03  0.00000000000E+00 0. -1.
</event>
<event>
 8    1  0.3654190E-009  0.9271275E+02  0.7561462E-02  0.1296412E+00
         -2   -1    0    0    0  501 -0.00000000000E+00  0.00000000000E+00  0.72223735187E+02  0.72223735187E+02  0.00000000000E+00 0.  1.
          2   -1    0    0  501    0  0.00000000000E+00 -0.00000000000E+00 -0.17062557196E+03  0.17062557196E+03  0.00000000000E+00 0. -1.
         25    2    1    2    0    0 -0.98589451622E+01 -0.74349299090E+01 -0.61641875562E+02  0.13999530117E+03  0.12508591665E+03 0.  0.
         23    2    1    2    0    0  0.98589451622E+01  0.74349299090E+01 -0.36759961212E+02  0.10285400598E+03  0.95263711957E+02 0.  0.
          5    1    3    3  502    0  0.25985124974E+02  0.32900984597E+02 -0.73378936868E+02  0.84614669433E+02  0.41800000000E+01 0. -1.
         -5    1    3    3    0  502 -0.35844070137E+02 -0.40335914506E+02  0.11737061306E+02  0.55380631733E+02  0.41800000000E+01 0. -1.
        -11    1    4    4    0    0  0.49278324475E+02  0.68025165581E+01 -0.39228698088E+02  0.63352334197E+02  0.00000000000E+00 0. -1.
         11    1    4    4    0    0 -0.39419379313E+02  0.63241335087E+00  0.24687368756E+01  0.39501671785E+02  0.00000000000E+00 0.  1.
</event>
<event>
 8    1  0.3654190E-009  0.1404728E+03  0.7561462E-02  0.1212694E+00
         -2   -1    0    0    0  501 -0.00000000000E+00  0.00000000000E+00  0.24200685854E+02  0.24200685854E+02  0.00000000000E+00 0.  1.
          2   -1    0    0  501    0  0.00000000000E+00 -0.00000000000E+00 -0.87728091924E+03  0.87728091924E+03  0.00000000000E+00 0. -1.
         25    2    1    2    0    0 -0.84114129657E+02 -0.42806564001E+02 -0.53028511000E+03  0.55295366950E+03  0.12509146253E+03 0.  0.
         23    2    1    2    0    0  0.84114129657E+02  0.42806564001E+02 -0.32279512338E+03  0.34852793559E+03  0.91473720139E+02 0.  0.
          5    1    3    3  502    0 -0.10598478722E+03 -0.64321663781E+02 -0.38833987140E+03  0.40767067551E+03  0.41800000000E+01 0. -1.
         -5    1    3    3    0  502  0.21870657567E+02  0.21515099780E+02 -0.14194523860E+03  0.14528299399E+03  0.41800000000E+01 0. -1.
        -11    1    4    4    0    0  0.11308316879E+02  0.51396163378E+02 -0.87805036834E+02  0.10236780809E+03  0.00000000000E+00 0. -1.
         11    1    4    4    0    0  0.72805812778E+02 -0.85895993768E+01 -0.23499008655E+03  0.24616012749E+03  0.00000000000E+00 0.  1.
</event>
<event>
 8    1  0.3654190E-009  0.2893069E+03  0.7561462E-02  0.1090712E+00
          2   -1    0    0  501    0  0.00000000000E+00  0.00000000000E+00  0.93357356478E+03  0.93357356478E+03  0.00000000000E+00 0. -1.
         -2   -1    0    0    0  501 -0.00000000000E+00 -0.00000000000E+00 -0.10517555274E+03  0.10517555274E+03  0.00000000000E+00 0.  1.
         25    2    1    2    0    0 -0.14786122172E+03 -0.24747818873E+03  0.33063306187E+03  0.45614698770E+03  0.12507381021E+03 0.  0.
         23    2    1    2    0    0  0.14786122172E+03  0.24747818873E+03  0.49776495017E+03  0.58260212982E+03  0.92449452530E+02 0.  0.
          5    1    3    3  502    0 -0.31414066984E+01 -0.14289621646E+02 -0.10360619607E+02  0.18408600204E+02  0.41800000000E+01 0. -1.
         -5    1    3    3    0  502 -0.14471981502E+03 -0.23318856709E+03  0.34099368148E+03  0.43773838749E+03  0.41800000000E+01 0. -1.
        -11    1    4    4    0    0  0.90734234251E+02  0.16946072192E+03  0.24124352782E+03  0.30846081964E+03  0.00000000000E+00 0.  1.
         11    1    4    4    0    0  0.57126987464E+02  0.78017466813E+02  0.25652142235E+03  0.27414131018E+03  0.00000000000E+00 0. -1.
</event>
<event>
 8    1  0.3654190E-009  0.1839494E+03  0.7561462E-02  0.1164035E+00
          1   -1    0    0  501    0  0.00000000000E+00  0.00000000000E+00  0.75027364711E+02  0.75027364711E+02  0.00000000000E+00 0. -1.
         -1   -1    0    0    0  501 -0.00000000000E+00 -0.00000000000E+00 -0.50154237778E+03  0.50154237778E+03  0.00000000000E+00 0.  1.
         25    2    1    2    0    0  0.15210381519E+03  0.47274179256E+02 -0.19095489023E+03  0.27835454741E+03  0.12508823023E+03 0.  0.
         23    2    1    2    0    0 -0.15210381519E+03 -0.47274179256E+02 -0.23556012283E+03  0.29821519507E+03  0.89851613703E+02 0.  0.
          5    1    3    3  502    0  0.13884618110E+03  0.84627882978E+02 -0.15209628608E+03  0.22269012825E+03  0.41800000000E+01 0.  1.
         -5    1    3    3    0  502  0.13257634093E+02 -0.37353703723E+02 -0.38858604156E+02  0.55664419160E+02  0.41800000000E+01 0.  1.
        -11    1    4    4    0    0 -0.24931587645E+02  0.87446947368E+01 -0.20706803946E+01  0.26501725714E+02  0.00000000000E+00 0. -1.
         11    1    4    4    0    0 -0.12717222755E+03 -0.56018873993E+02 -0.23348944244E+03  0.27171346936E+03  0.00000000000E+00 0.  1.
</event>
<event>
 8    1  0.3654190E-009  0.1426411E+03  0.7561462E-02  0.1209819E+00
         -1   -1    0    0    0  501 -0.00000000000E+00  0.00000000000E+00  0.62037201529E+03  0.62037201529E+03  0.00000000000E+00 0.  1.
          1   -1    0    0  501    0  0.00000000000E+00 -0.00000000000E+00 -0.35684950087E+02  0.35684950087E+02  0.00000000000E+00 0. -1.
         25    2    1    2    0    0 -0.79819626582E+02  0.52967973305E+02  0.23843709515E+03  0.28579004213E+03  0.12508765268E+03 0.  0.
         23    2    1    2    0    0  0.79819626582E+02 -0.52967973305E+02  0.34624997006E+03  0.37026692325E+03  0.89620163491E+02 0.  0.
          5    1    3    3  502    0 -0.79172498224E+02 -0.22137911384E+02  0.12261524614E+03  0.14768325085E+03  0.41800000000E+01 0.  1.
         -5    1    3    3    0  502 -0.64712835750E+00  0.75105884689E+02  0.11582184901E+03  0.13810679128E+03  0.41800000000E+01 0.  1.
        -11    1    4    4    0    0 -0.11543035345E+02  0.11210179184E+02  0.79170455912E+02  0.80789051681E+02  0.00000000000E+00 0. -1.
         11    1    4    4    0    0  0.91362661926E+02 -0.64178152489E+02  0.26707951414E+03  0.28947787157E+03  0.00000000000E+00 0.  1.
</event>
<event>
 8    1  0.3654190E-009  0.1172142E+03  0.7561462E-02  0.1247765E+00
         -2   -1    0    0    0  501 -0.00000000000E+00  0.00000000000E+00  0.32369812052E+02  0.32369812052E+02  0.00000000000E+00 0.  1.
          2   -1    0    0  501    0  0.00000000000E+00 -0.00000000000E+00 -0.51728288072E+03  0.51728288072E+03  0.00000000000E+00 0. -1.
         25    2    1    2    0    0 -0.47617992447E+02 -0.40997595592E+02 -0.33383446087E+03  0.36199563038E+03  0.12508842113E+03 0.  0.
         23    2    1    2    0    0  0.47617992447E+02  0.40997595592E+02 -0.15107860780E+03  0.18765706239E+03  0.91881180241E+02 0.  0.
          5    1    3    3  502    0  0.39773798041E+02 -0.16974997674E+02 -0.64314201665E+02  0.77613751954E+02  0.41800000000E+01 0. -1.
         -5    1    3    3    0  502 -0.87391790488E+02 -0.24022597918E+02 -0.26952025921E+03  0.28438187843E+03  0.41800000000E+01 0. -1.
        -11    1    4    4    0    0  0.63445178826E+02  0.83780504288E+01 -0.53005573036E+02  0.83096770203E+02  0.00000000000E+00 0.  1.
         11    1    4    4    0    0 -0.15827186379E+02  0.32619545163E+02 -0.98073034761E+02  0.10456029219E+03  0.00000000000E+00 0. -1.
</event>
<event>
 8    1  0.3654190E-009  0.1101284E+03  0.7561462E-02  0.1260332E+00
          1   -1    0    0  501    0  0.00000000000E+00  0.00000000000E+00  0.17294771081E+02  0.17294771081E+02  0.00000000000E+00 0. -1.
         -1   -1    0    0    0  501 -0.00000000000E+00 -0.00000000000E+00 -0.81959722111E+03  0.81959722111E+03  0.00000000000E+00 0.  1.
         25    2    1    2    0    0  0.23165537672E+02 -0.40976546534E+02 -0.50440194205E+03  0.52180878217E+03  0.12508943402E+03 0.  0.
         23    2    1    2    0    0 -0.23165537672E+02  0.40976546534E+02 -0.29790050798E+03  0.31508321002E+03  0.91197571689E+02 0.  0.
          5    1    3    3  502    0 -0.37024585474E+02  0.23480126913E+02 -0.13498186010E+03  0.14198489795E+03  0.41800000000E+01 0.  1.
         -5    1    3    3    0  502  0.60190123146E+02 -0.64456673447E+02 -0.36942008195E+03  0.37982388422E+03  0.41800000000E+01 0.  1.
        -11    1    4    4    0    0 -0.20784560225E+02  0.62709184441E+02 -0.27724072708E+03  0.28500326403E+03  0.00000000000E+00 0.  1.
         11    1    4    4    0    0 -0.23809774468E+01 -0.21732637907E+02 -0.20659780902E+02  0.30079945992E+02  0.00000000000E+00 0. -1.
</event>
<event>
 8    1  0.3654190E-009  0.1334020E+03  0.7561462E-02  0.1222493E+00
          2   -1    0    0  501    0  0.00000000000E+00  0.00000000000E+00  0.60996472393E+03  0.60996472393E+03  0.00000000000E+00 0. -1.
         -2   -1    0    0    0  501 -0.00000000000E+00 -0.00000000000E+00 -0.50365834281E+02  0.50365834281E+02  0.00000000000E+00 0.  1.
         25    2    1    2    0    0  0.57942125231E+02 -0.88182960827E+02  0.46099831125E+03  0.48918284331E+03  0.12508751641E+03 0.  0.
         23    2    1    2    0    0 -0.57942125231E+02  0.88182960827E+02  0.98600578401E+02  0.17114771490E+03  0.91847383184E+02 0.  0.
          5    1    3    3  502    0  0.57135540005E+02  0.13489361841E+02  0.21640089071E+03  0.22426156763E+03  0.41800000000E+01 0. -1.
         -5    1    3    3    0  502  0.80658522621E+00 -0.10167232267E+03  0.24459742053E+03  0.26492127568E+03  0.41800000000E+01 0. -1.
        -11    1    4    4    0    0 -0.24520422997E+02  0.27009678517E+02 -0.13703199570E+02  0.38968597050E+02  0.00000000000E+00 0.  1.
         11    1    4    4    0    0 -0.33421702234E+02  0.61173282310E+02  0.11230377797E+03  0.13217911785E+03  0.00000000000E+00 0. -1.
</event>
<event>
 8    1  0.3654190E-009  0.2486184E+03  0.7561462E-02  0.1114181E+00
          2   -1    0    0  501    0  0.00000000000E+00  0.00000000000E+00  0.15935407770E+04  0.15935407770E+04  0.00000000000E+00 0. -1.
         -2   -1    0    0    0  501 -0.00000000000E+00 -0.00000000000E+00 -0.43476359097E+02  0.43476359097E+02  0.00000000000E+00 0.  1.
         25    2    1    2    0    0 -0.20649657961E+03  0.11615016800E+03  0.68687469249E+03  0.73727454327E+03  0.12508081408E+03 0.  0.
         23    2    1    2    0    0  0.20649657961E+03 -0.11615016800E+03  0.86318972541E+03  0.89974259283E+03  0.91151151249E+02 0.  0.
          5    1    3    3  502    0 -0.19101860744E+03  0.67823753231E+02  0.42997699681E+03  0.47537970095E+03  0.41800000000E+01 0.  1.
         -5    1    3    3    0  502 -0.15477972170E+02  0.48326414764E+02  0.25689769568E+03  0.26189484231E+03  0.41800000000E+01 0.  1.
        -11    1    4    4    0    0  0.83480388855E+02 -0.79342574300E+02  0.53653302977E+03  0.54875487374E+03  0.00000000000E+00 0. -1.
         11    1    4    4    0    0  0.12301619076E+03 -0.36807593695E+02  0.32665669564E+03  0.35098771909E+03  0.00000000000E+00 0.  1.
</event>
<event>
 8    1  0.3654190E-009  0.1098473E+03  0.7561462E-02  0.1260853E+00
          1   -1    0    0  501    0  0.00000000000E+00  0.00000000000E+00  0.41396643030E+02  0.41396643030E+02  0.00000000000E+00 0. -1.
         -1   -1    0    0    0  501 -0.00000000000E+00 -0.00000000000E+00 -0.32367376853E+03  0.32367376853E+03  0.00000000000E+00 0.  1.
         25    2    1    2    0    0  0.34034615842E+02 -0.23706115665E+02 -0.18356355080E+03  0.22597247504E+03  0.12509055639E+03 0.  0.
         23    2    1    2    0    0 -0.34034615842E+02  0.23706115665E+02 -0.98713574696E+02  0.13909793652E+03  0.88789251142E+02 0.  0.
          5    1    3    3  502    0  0.71030975857E+02 -0.48123464406E+02 -0.10490612502E+03  0.13558773847E+03  0.41800000000E+01 0.  1.
         -5    1    3    3    0  502 -0.36996360016E+02  0.24417348741E+02 -0.78657425780E+02  0.90384736567E+02  0.41800000000E+01 0.  1.
        -11    1    4    4    0    0 -0.11768328045E+02  0.51972265241E+02 -0.85538010416E+02  0.10077877319E+03  0.00000000000E+00 0.  1.
         11    1    4    4    0    0 -0.22266287796E+02 -0.28266149576E+02 -0.13175564280E+02  0.38319163329E+02  0.00000000000E+00 0. -1.
</event>
<event>
 8    1  0.3654190E-009  0.1534212E+03  0.7561462E-02  0.1196331E+00
          1   -1    0    0  501    0  0.00000000000E+00  0.00000000000E+00  0.19777011588E+02  0.19777011588E+02  0.00000000000E+00 0. -1.
         -1   -1    0    0    0  501 -0.00000000000E+00 -0.00000000000E+00 -0.14202485959E+04  0.14202485959E+04  0.00000000000E+00 0.  1.
         25    2    1    2    0    0 -0.71003450249E+02 -0.91162331001E+02 -0.97908742303E+03  0.99378805705E+03  0.12510179804E+03 0.  0.
         23    2    1    2    0    0  0.71003450249E+02  0.91162331001E+02 -0.42138416124E+03  0.44623755039E+03  0.90616110564E+02 0.  0.
          5    1    3    3  502    0 -0.10711999472E+03 -0.68516934915E+02 -0.75474309947E+03  0.76539132620E+03  0.41800000000E+01 0. -1.
         -5    1    3    3    0  502  0.36116544468E+02 -0.22645396085E+02 -0.22434432356E+03  0.22839673085E+03  0.41800000000E+01 0. -1.
        -11    1    4    4    0    0  0.86336947971E+02  0.81010971071E+02 -0.40378402113E+03  0.42078305780E+03  0.00000000000E+00 0.  1.
         11    1    4    4    0    0 -0.15333497722E+02  0.10151359930E+02 -0.17600140117E+02  0.25454492589E+02  0.00000000000E+00 0. -1.
</event>
<event>
 8    1  0.3654190E-009  0.1356062E+03  0.7561462E-02  0.1219366E+00
         -2   -1    0    0    0  501 -0.00000000000E+00  0.00000000000E+00  0.21103605273E+03  0.21103605273E+03  0.00000000000E+00 0.  1.
          2   -1    0    0  501    0  0.00000000000E+00 -0.00000000000E+00 -0.10809222537E+03  0.10809222537E+03  0.00000000000E+00 0. -1.
         25    2    1    2    0    0 -0.37760311957E+02  0.96044175945E+02  0.73939062107E+02  0.17822579691E+03  0.12508846823E+03 0.  0.
         23    2    1    2    0    0  0.37760311957E+02 -0.96044175945E+02  0.29004765255E+02  0.14090248120E+03  0.91443468380E+02 0.  0.
          5    1    3    3  502    0 -0.51318249465E+02  0.10931465274E+03  0.91867480177E+02  0.15179052126E+03  0.41800000000E+01 0.  1.
         -5    1    3    3    0  502  0.13557937508E+02 -0.13270476793E+02 -0.17928418070E+02  0.26435275642E+02  0.41800000000E+01 0.  1.
        -11    1    4    4    0    0  0.57670084326E+02 -0.94850709649E+02  0.40161753323E+02  0.11804855856E+03  0.00000000000E+00 0.  1.
         11    1    4    4    0    0 -0.19909772369E+02 -0.11934662962E+01 -0.11156988068E+02  0.22853922647E+02  0.00000000000E+00 0. -1.
</event>
<event>
 8    1  0.3654190E-009  0.2018701E+03  0.7561462E-02  0.1148171E+00
          1   -1    0    0  501    0  0.00000000000E+00  0.00000000000E+00  0.90458289907E+02  0.90458289907E+02  0.00000000000E+00 0. -1.
         -1   -1    0    0    0  501 -0.00000000000E+00 -0.00000000000E+00 -0.61372472084E+03  0.61372472084E+03  0.00000000000E+00 0.  1.
         25    2    1    2    0    0 -0.14514592697E+03 -0.11656763136E+03 -0.41709657164E+03  0.47357417245E+03  0.12509034313E+03 0.  0.
         23    2    1    2    0    0  0.14514592697E+03  0.11656763136E+03 -0.10616985930E+03  0.23060883830E+03  0.85164807746E+02 0.  0.
          5    1    3    3  502    0 -0.10310967688E+03 -0.14514458095E+02 -0.27158075355E+03  0.29088804213E+03  0.41800000000E+01 0.  1.
         -5    1    3    3    0  502 -0.42036250091E+02 -0.10205317327E+03 -0.14551581809E+03  0.18268613032E+03  0.41800000000E+01 0.  1.
        -11    1    4    4    0    0  0.45943582343E+01  0.14952598888E+02 -0.43449384378E+02  0.46179403893E+02  0.00000000000E+00 0.  1.
         11    1    4    4    0    0  0.14055156874E+03  0.10161503248E+03 -0.62720474918E+02  0.18442943440E+03  0.00000000000E+00 0. -1.
</event>
<event>
 8    1  0.3654190E-009  0.1365494E+03  0.7561462E-02  0.1218049E+00
         -2   -1    0    0    0  501 -0.00000000000E+00  0.00000000000E+00  0.37208091881E+02  0.37208091881E+02  0.00000000000E+00 0. -1.
          2   -1    0    0  501    0  0.00000000000E+00 -0.00000000000E+00 -0.75476769881E+03  0.75476769881E+03  0.00000000000E+00 0.  1.
         25    2    1    2    0    0 -0.72427664233E+02  0.99342358404E+02 -0.46776132594E+03  0.49956264807E+03  0.12509000989E+03 0.  0.
         23    2    1    2    0    0  0.72427664233E+02 -0.99342358404E+02 -0.24979828099E+03  0.29241314263E+03  0.89395716211E+02 0.  0.
          5    1    3    3  502    0  0.97188955716E+01  0.61538546923E+00  0.34493268276E+01  0.11144769445E+02  0.41800000000E+01 0.  1.
         -5    1    3    3    0  502 -0.82146559804E+02  0.98726972935E+02 -0.47121065277E+03  0.48841787862E+03  0.41800000000E+01 0.  1.
        -11    1    4    4    0    0  0.11648739945E+02 -0.61078893150E+02 -0.18680353178E+03  0.19688037946E+03  0.00000000000E+00 0. -1.
         11    1    4    4    0    0  0.60778924288E+02 -0.38263465255E+02 -0.62994749214E+02  0.95532763172E+02  0.00000000000E+00 0.  1.
</event>
<event>
 8    1  0.3654190E-009  0.6594469E+02  0.7561462E-02  0.1374453E+00
         -1   -1    0    0    0  501 -0.00000000000E+00  0.00000000000E+00  0.62177059763E+03  0.62177059763E+03  0.00000000000E+00 0.  1.
          1   -1    0    0  501    0  0.00000000000E+00 -0.00000000000E+00 -0.18827420854E+02  0.18827420854E+02  0.00000000000E+00 0. -1.
         25    2    1    2    0    0  0.46504584946E+01 -0.35481235165E+01  0.31913806298E+03  0.34282751189E+03  0.12508950284E+03 0.  0.
         23    2    1    2    0    0 -0.46504584946E+01  0.35481235165E+01  0.28380511379E+03  0.29777050659E+03  0.89931729867E+02 0.  0.
          5    1    3    3  502    0  0.32854320079E+01 -0.25135314282E+02  0.29357101884E+01  0.25858632637E+02  0.41800000000E+01 0.  1.
         -5    1    3    3    0  502  0.13650264867E+01  0.21587190765E+02  0.31620235279E+03  0.31696887925E+03  0.41800000000E+01 0.  1.
        -11    1    4    4    0    0 -0.12483981875E+02  0.42572207048E+02  0.95460001576E+02  0.10526563788E+03  0.00000000000E+00 0. -1.
         11    1    4    4    0    0  0.78335233802E+01 -0.39024083532E+02  0.18834511222E+03  0.19250486872E+03  0.00000000000E+00 0.  1.
</event>
<event>
 8    1  0.3654190E-009  0.1203177E+03  0.7561462E-02  0.1242574E+00
          3   -1    0    0  501    0  0.00000000000E+00  0.00000000000E+00  0.41054377983E+03  0.41054377983E+03  0.00000000000E+00 0.  1.
         -3   -1    0    0    0  501 -0.00000000000E+00 -0.00000000000E+00 -0.39774866003E+02  0.39774866003E+02  0.00000000000E+00 0. -1.
         25    2    1    2    0    0 -0.10443036080E+02  0.59275190857E+02  0.14555970221E+03  0.20114864445E+03  0.12510213828E+03 0.  0.
         23    2    1    2    0    0  0.10443036080E+02 -0.59275190857E+02  0.22520921161E+03  0.24917000138E+03  0.87999405336E+02 0.  0.
          5    1    3    3  502    0 -0.50769822613E+02 -0.15325516804E+02  0.66237513096E+02  0.84954852096E+02  0.41800000000E+01 0. -1.
         -5    1    3    3    0  502  0.40326786533E+02  0.74600707660E+02  0.79322189116E+02  0.11619379235E+03  0.41800000000E+01 0. -1.
        -11    1    4    4    0    0  0.40102273572E+02 -0.46447402608E+01  0.12388853966E+03  0.13030017734E+03  0.00000000000E+00 0.  1.
         11    1    4    4    0    0 -0.29659237492E+02 -0.54630450596E+02  0.10132067195E+03  0.11886982404E+03  0.00000000000E+00 0. -1.
</event>
<event>
 8    1  0.3654190E-009  0.1049926E+03  0.7561462E-02  0.1270134E+00
          2   -1    0    0  501    0  0.00000000000E+00  0.00000000000E+00  0.40218512805E+03  0.40218512805E+03  0.00000000000E+00 0. -1.
         -2   -1    0    0    0  501 -0.00000000000E+00 -0.00000000000E+00 -0.39867990465E+02  0.39867990465E+02  0.00000000000E+00 0.  1.
         25    2    1    2    0    0 -0.57229402116E+02  0.26594555266E+02  0.23208004836E+03  0.27109568425E+03  0.12509694775E+03 0.  0.
         23    2    1    2    0    0  0.57229402116E+02 -0.26594555266E+02  0.13023708923E+03  0.17095743427E+03  0.91006978223E+02 0.  0.
          5    1    3    3  502    0  0.18741638891E+02  0.91990618619E+01  0.17010765812E+03  0.17143500085E+03  0.41800000000E+01 0. -1.
         -5    1    3    3    0  502 -0.75971041007E+02  0.17395493404E+02  0.61972390244E+02  0.99660683396E+02  0.41800000000E+01 0. -1.
        -11    1    4    4    0    0  0.21457201850E+02  0.34043130744E+02  0.43866672900E+02  0.59528407113E+02  0.00000000000E+00 0.  1.
         11    1    4    4    0    0  0.35772200266E+02 -0.60637686010E+02  0.86370416327E+02  0.11142902716E+03  0.00000000000E+00 0. -1.
</event>
<event>
 8    1  0.3654190E-009  0.1142576E+03  0.7561462E-02  0.1252883E+00
          1   -1    0    0  501    0  0.00000000000E+00  0.00000000000E+00  0.65498128388E+02  0.65498128388E+02  0.00000000000E+00 0. -1.
         -1   -1    0    0    0  501 -0.00000000000E+00 -0.00000000000E+00 -0.22219930294E+03  0.22219930294E+03  0.00000000000E+00 0.  1.
         25    2    1    2    0    0 -0.11408838711E+02  0.53379015261E+02 -0.10037287166E+03  0.16941725460E+03  0.12509201382E+03 0.  0.
         23    2    1    2    0    0  0.11408838711E+02 -0.53379015261E+02 -0.56328302893E+02  0.11828017673E+03  0.88531585487E+02 0.  0.
          5    1    3    3  502    0  0.24834710436E+00  0.87987282435E+02 -0.35735760866E+02  0.95059668373E+02  0.41800000000E+01 0.  1.
         -5    1    3    3    0  502 -0.11657185815E+02 -0.34608267174E+02 -0.64637110795E+02  0.74357586229E+02  0.41800000000E+01 0.  1.
        -11    1    4    4    0    0 -0.23637440619E+02  0.14178881889E+02 -0.19257227540E+02  0.33624546141E+02  0.00000000000E+00 0. -1.
         11    1    4    4    0    0  0.35046279330E+02 -0.67557897150E+02 -0.37071075353E+02  0.84655630586E+02  0.00000000000E+00 0.  1.
</event>
<event>
 8    1  0.3654190E-009  0.2412084E+03  0.7561462E-02  0.1118990E+00
          1   -1    0    0  501    0  0.00000000000E+00  0.00000000000E+00  0.80655022946E+03  0.80655022946E+03  0.00000000000E+00 0. -1.
         -1   -1    0    0    0  501 -0.00000000000E+00 -0.00000000000E+00 -0.97862110936E+02  0.97862110936E+02  0.00000000000E+00 0.  1.
         25    2    1    2    0    0  0.15975564946E+02 -0.22221110865E+03  0.15010526529E+03  0.29633079256E+03  0.12508937793E+03 0.  0.
         23    2    1    2    0    0 -0.15975564946E+02  0.22221110865E+03  0.55858285323E+03  0.60808154783E+03  0.90085345116E+02 0.  0.
          5    1    3    3  502    0 -0.55386620328E+01 -0.22969091094E+03  0.12287395269E+03  0.26058409774E+03  0.41800000000E+01 0.  1.
         -5    1    3    3    0  502  0.21514226979E+02  0.74798022890E+01  0.27231312602E+02  0.35746694823E+02  0.41800000000E+01 0.  1.
        -11    1    4    4    0    0 -0.32147448729E+02  0.78243582023E+02  0.12497004695E+03  0.15090735311E+03  0.00000000000E+00 0.  1.
         11    1    4    4    0    0  0.16171883782E+02  0.14396752663E+03  0.43361280628E+03  0.45717419472E+03  0.00000000000E+00 0. -1.
</event>
<event>
 8    1  0.3654190E-009  0.1055543E+03  0.7561462E-02  0.1269031E+00
         -2   -1    0    0    0  501 -0.00000000000E+00  0.00000000000E+00  0.58120629459E+02  0.58120629459E+02  0.00000000000E+00 0.  1.
          2   -1    0    0  501    0  0.00000000000E+00 -0.00000000000E+00 -0.37142778987E+03  0.37142778987E+03  0.00000000000E+00 0. -1.
         25    2    1    2    0    0  0.21355055782E+02  0.95608566405E+02 -0.15203294879E+03  0.21990508012E+03  0.12508872998E+03 0.  0.
         23    2    1    2    0    0 -0.21355055782E+02 -0.95608566405E+02 -0.16127421162E+03  0.20964333921E+03  0.91345070823E+02 0.  0.
          5    1    3    3  502    0 -0.72323119375E+01  0.79618263585E+02 -0.16581052813E+03  0.18412489748E+03  0.41800000000E+01 0.  1.
         -5    1    3    3    0  502  0.28587367719E+02  0.15990302819E+02  0.13777579341E+02  0.35780182642E+02  0.41800000000E+01 0.  1.
        -11    1    4    4    0    0 -0.16554860251E+02 -0.66448920730E+02 -0.29444576590E+02  0.74541971765E+02  0.00000000000E+00 0.  1.
         11    1    4    4    0    0 -0.48001955313E+01 -0.29159645675E+02 -0.13182963503E+03  0.13510136744E+03  0.00000000000E+00 0. -1.
</event>
<event>
 8    1  0.3654190E-009  0.1760329E+03  0.7561462E-02  0.1171699E+00
          2   -1    0    0  501    0  0.00000000000E+00  0.00000000000E+00  0.15130860566E+03  0.15130860566E+03  0.00000000000E+00 0. -1.
         -2   -1    0    0    0  501 -0.00000000000E+00 -0.00000000000E+00 -0.23793055393E+03  0.23793055393E+03  0.00000000000E+00 0.  1.
         25    2    1    2    0    0  0.23060358721E+02  0.15307128556E+03 -0.31439833608E+02  0.20149918242E+03  0.12510339231E+03 0.  0.
         23    2    1    2    0    0 -0.23060358721E+02 -0.15307128556E+03 -0.55182114658E+02  0.18773997717E+03  0.90766924823E+02 0.  0.
          5    1    3    3  502    0 -0.43850183463E+02  0.97039866962E+02  0.53342018896E+01  0.10670286069E+03  0.41800000000E+01 0.  1.
         -5    1    3    3    0  502  0.66910542184E+02  0.56031418602E+02 -0.36774035498E+02  0.94796321726E+02  0.41800000000E+01 0.  1.
        -11    1    4    4    0    0 -0.31266062508E+02 -0.12696099715E+03 -0.53226367700E+01  0.13086249243E+03  0.00000000000E+00 0. -1.
         11    1    4    4    0    0  0.82057037865E+01 -0.26110288415E+02 -0.49859477888E+02  0.56877484746E+02  0.00000000000E+00 0.  1.
</event>
<event>
 8    1  0.3654190E-009  0.1191451E+03  0.7561462E-02  0.1244514E+00
          2   -1    0    0  501    0  0.00000000000E+00  0.00000000000E+00  0.61740872263E+02  0.61740872263E+02  0.00000000000E+00 0. -1.
         -2   -1    0    0    0  501 -0.00000000000E+00 -0.00000000000E+00 -0.27891217313E+03  0.27891217313E+03  0.00000000000E+00 0.  1.
         25    2    1    2    0    0 -0.19668408669E+02  0.59813897896E+02 -0.95675641179E+02  0.16960297978E+03  0.12508714463E+03 0.  0.
         23    2    1    2    0    0  0.19668408669E+02 -0.59813897896E+02 -0.12149565969E+03  0.17105006562E+03  0.10262738886E+03 0.  0.
          5    1    3    3  502    0 -0.56710641958E+02  0.33746763804E+01 -0.83185868018E+02  0.10082086287E+03  0.41800000000E+01 0.  1.
         -5    1    3    3    0  502  0.37042233289E+02  0.56439221516E+02 -0.12489773161E+02  0.68782116905E+02  0.41800000000E+01 0.  1.
        -11    1    4    4    0    0  0.58170422947E+02 -0.35290481519E+02 -0.99087712268E+02  0.12019813191E+03  0.00000000000E+00 0.  1.
         11    1    4    4    0    0 -0.38502014278E+02 -0.24523416377E+02 -0.22407947419E+02  0.50851933707E+02  0.00000000000E+00 0. -1.
</event>
<event>
 8    1  0.3654190E-009  0.1129439E+03  0.7561462E-02  0.1255213E+00
         -1   -1    0    0    0  501 -0.00000000000E+00  0.00000000000E+00  0.24076913119E+03  0.24076913119E+03  0.00000000000E+00 0.  1.
          1   -1    0    0  501    0  0.00000000000E+00 -0.00000000000E+00 -0.15713578440E+03  0.15713578440E+03  0.00000000000E+00 0. -1.
         25    2    1    2    0    0  0.56159922735E+02  0.65802674607E+02 -0.95039827092E+02  0.17934449792E+03  0.12509177148E+03 0.  0.
         23    2    1    2    0    0 -0.56159922735E+02 -0.65802674607E+02  0.17867317388E+03  0.21856041767E+03  0.91436448983E+02 0.  0.
          5    1    3    3  502    0  0.18610808868E+02 -0.20531479209E+02  0.17127223909E+02  0.32843843321E+02  0.41800000000E+01 0.  1.
         -5    1    3    3    0  502  0.37549113867E+02  0.86334153816E+02 -0.11216705100E+03  0.14650065460E+03  0.41800000000E+01 0.  1.
        -11    1    4    4    0    0 -0.29089769803E+02  0.34263244147E+01  0.12095108928E+03  0.12444725953E+03  0.00000000000E+00 0.  1.
         11    1    4    4    0    0 -0.27070152932E+02 -0.69228999021E+02  0.57722084594E+02  0.94113158140E+02  0.00000000000E+00 0. -1.
</event>
<event>
 8    1  0.3654190E-009  0.1359292E+03  0.7561462E-02  0.1218914E+00
          4   -1    0    0  501    0  0.00000000000E+00  0.00000000000E+00  0.67640460466E+03  0.67640460466E+03  0.00000000000E+00 0. -1.
         -4   -1    0    0    0  501 -0.00000000000E+00 -0.00000000000E+00 -0.61308016069E+02  0.61308016069E+02  0.00000000000E+00 0.  1.
         25    2    1    2    0    0  0.83438845271E+02  0.42373649199E+02  0.59799804770E+02  0.16727919828E+03  0.12509494986E+03 0.  0.
         23    2    1    2    0    0 -0.83438845271E+02 -0.42373649199E+02  0.55529678382E+03  0.57043342244E+03  0.91006616648E+02 0.  0.
          5    1    3    3  502    0  0.48818509122E+01 -0.35716956586E+02 -0.82433485862E+01  0.37215032607E+02  0.41800000000E+01 0. -1.
         -5    1    3    3    0  502  0.78556994359E+02  0.78090605785E+02  0.68043153356E+02  0.13006416568E+03  0.41800000000E+01 0. -1.
        -11    1    4    4    0    0 -0.51655923087E+02  0.19458614154E+02  0.33220869734E+03  0.33676340455E+03  0.00000000000E+00 0. -1.
         11    1    4    4    0    0 -0.31782922184E+02 -0.61832263353E+02  0.22308808648E+03  0.23367001789E+03  0.00000000000E+00 0.  1.
</event>
<event>
 8    1  0.3654190E-009  0.1318353E+03  0.7561462E-02  0.1224758E+00
         -2   -1    0    0    0  501 -0.00000000000E+00  0.00000000000E+00  0.30612735380E+02  0.30612735380E+02  0.00000000000E+00 0.  1.
          2   -1    0    0  501    0  0.00000000000E+00 -0.00000000000E+00 -0.69711685556E+03  0.69711685556E+03  0.00000000000E+00 0. -1.
         25    2    1    2    0    0 -0.64466389440E+02  0.71239429602E+02 -0.40725643063E+03  0.43673318706E+03  0.12508838752E+03 0.  0.
         23    2    1    2    0    0  0.64466389440E+02 -0.71239429602E+02 -0.25924768955E+03  0.29099640388E+03  0.90766573341E+02 0.  0.
          5    1    3    3  502    0 -0.91159419569E+02  0.57277959932E+02 -0.38290035580E+03  0.39776998296E+03  0.41800000000E+01 0. -1.
         -5    1    3    3    0  502  0.26693030129E+02  0.13961469670E+02 -0.24356074828E+02  0.38963204101E+02  0.41800000000E+01 0. -1.
        -11    1    4    4    0    0  0.74060460796E+02 -0.82405085108E+02 -0.18779071747E+03  0.21803876599E+03  0.00000000000E+00 0.  1.
         11    1    4    4    0    0 -0.95940713561E+01  0.11165655506E+02 -0.71456972076E+02  0.72957637889E+02  0.00000000000E+00 0. -1.
</event>
<event>
 8    1  0.3654190E-009  0.2815634E+03  0.7561462E-02  0.1094838E+00
         -1   -1    0    0    0  501 -0.00000000000E+00  0.00000000000E+00  0.74421495676E+02  0.74421495676E+02  0.00000000000E+00 0.  1.
          1   -1    0    0  501    0  0.00000000000E+00 -0.00000000000E+00 -0.10789644148E+04  0.10789644148E+04  0.00000000000E+00 0. -1.
         25    2    1    2    0    0  0.23263170150E+03  0.11822668310E+03 -0.48379183345E+03  0.56373527763E+03  0.12509143855E+03 0.  0.
         23    2    1    2    0    0 -0.23263170150E+03 -0.11822668310E+03 -0.52075108569E+03  0.58965063285E+03  0.91712149927E+02 0.  0.
          5    1    3    3  502    0  0.15881323226E+03  0.14100338231E+02 -0.30262479956E+03  0.34208142889E+03  0.41800000000E+01 0. -1.
         -5    1    3    3    0  502  0.73818469235E+02  0.10412634487E+03 -0.18116703389E+03  0.22165384875E+03  0.41800000000E+01 0. -1.
        -11    1    4    4    0    0 -0.15707918653E+03 -0.12404336710E+03 -0.35885648135E+03  0.41089974686E+03  0.00000000000E+00 0. -1.
         11    1    4    4    0    0 -0.75552514967E+02  0.58166840004E+01 -0.16189460434E+03  0.17875088600E+03  0.00000000000E+00 0.  1.
</event>
<event>
 8    1  0.3654190E-009  0.1043827E+03  0.7561462E-02  0.1271341E+00
         -1   -1    0    0    0  501 -0.00000000000E+00  0.00000000000E+00  0.49757066324E+02  0.49757066324E+02  0.00000000000E+00 0.  1.
          1   -1    0    0  501    0  0.00000000000E+00 -0.00000000000E+00 -0.44985841862E+03  0.44985841862E+03  0.00000000000E+00 0. -1.
         25    2    1    2    0    0 -0.28973368090E+01  0.20008853261E+02 -0.48210851154E+02  0.13556914395E+03  0.12508380332E+03 0.  0.
         23    2    1    2    0    0  0.28973368090E+01 -0.20008853261E+02 -0.35189050114E+03  0.36404634100E+03  0.91071756485E+02 0.  0.
          5    1    3    3  502    0  0.48170637828E+02 -0.19122060879E+02 -0.48488993637E+02  0.71096543270E+02  0.41800000000E+01 0. -1.
         -5    1    3    3    0  502 -0.51067974637E+02  0.39130914141E+02  0.27814248264E+00  0.64472600678E+02  0.41800000000E+01 0. -1.
        -11    1    4    4    0    0 -0.33631470209E+02  0.19186576956E+02 -0.17434276896E+03  0.17859059777E+03  0.00000000000E+00 0.  1.
         11    1    4    4    0    0  0.36528807018E+02 -0.39195430217E+02 -0.17754773218E+03  0.18545574323E+03  0.00000000000E+00 0. -1.
</event>
<event>
 8    1  0.3654190E-009  0.1212213E+03  0.7561462E-02  0.1241096E+00
          2   -1    0    0  501    0  0.00000000000E+00  0.00000000000E+00  0.86288705921E+02  0.86288705921E+02  0.00000000000E+00 0. -1.
         -2   -1    0    0    0  501 -0.00000000000E+00 -0.00000000000E+00 -0.18556451516E+03  0.18556451516E+03  0.00000000000E+00 0.  1.
         25    2    1    2    0    0 -0.47155182850E+02  0.47086119603E+02 -0.44055573841E+02  0.14842572231E+03  0.12509431453E+03 0.  0.
         23    2    1    2    0    0  0.47155182850E+02 -0.47086119603E+02 -0.55220235394E+02  0.12342749877E+03  0.88002040469E+02 0.  0.
          5    1    3    3  502    0  0.18233967451E+01 -0.40094055200E+02 -0.37342223229E+01  0.40524990493E+02  0.41800000000E+01 0. -1.
         -5    1    3    3    0  502 -0.48978579595E+02  0.87180174803E+02 -0.40321351519E+02  0.10790073181E+03  0.41800000000E+01 0. -1.
        -11    1    4    4    0    0  0.53044928680E+02  0.14982827348E+01 -0.49942287911E+01  0.53300578149E+02  0.00000000000E+00 0. -1.
         11    1    4    4    0    0 -0.58897458303E+01 -0.48584402338E+02 -0.50226006603E+02  0.70126920621E+02  0.00000000000E+00 0.  1.
</event>
<event>
 8    1  0.3654190E-009  0.1446532E+03  0.7561462E-02  0.1207201E+00
          2   -1    0    0  501    0  0.00000000000E+00  0.00000000000E+00  0.22590217131E+03  0.22590217131E+03  0.00000000000E+00 0.  1.
         -2   -1    0    0    0  501 -0.00000000000E+00 -0.00000000000E+00 -0.16245082350E+03  0.16245082350E+03  0.00000000000E+00 0. -1.
         25    2    1    2    0    0  0.87213047206E+02  0.82109614528E+02  0.13115448941E+03  0.21724904143E+03  0.12509013354E+03 0.  0.
         23    2    1    2    0    0 -0.87213047206E+02 -0.82109614528E+02 -0.67703141599E+02  0.17110395339E+03  0.10170911012E+03 0.  0.
          5    1    3    3  502    0  0.89746541845E+00  0.78781297664E+02  0.30605622463E+02  0.84625497530E+02  0.41800000000E+01 0. -1.
         -5    1    3    3    0  502  0.86315581788E+02  0.33283168638E+01  0.10054886694E+03  0.13262354390E+03  0.41800000000E+01 0. -1.
        -11    1    4    4    0    0 -0.15941404801E+02 -0.35097158933E+02 -0.76105463272E+02  0.85311080711E+02  0.00000000000E+00 0. -1.
         11    1    4    4    0    0 -0.71271642406E+02 -0.47012455595E+02  0.84023216733E+01  0.85792872675E+02  0.00000000000E+00 0.  1.
</event>
<event>
 8    1  0.3654190E-009  0.8341269E+02  0.7561462E-02  0.1319636E+00
         -2   -1    0    0    0  501 -0.00000000000E+00  0.00000000000E+00  0.18111750264E+03  0.18111750264E+03  0.00000000000E+00 0.  1.
          2   -1    0    0  501    0  0.00000000000E+00 -0.00000000000E+00 -0.68381417327E+02  0.68381417327E+02  0.00000000000E+00 0. -1.
         25    2    1    2    0    0  0.64002169987E+01  0.23651171698E+02  0.71159554398E+02  0.14598257077E+03  0.12508752171E+03 0.  0.
         23    2    1    2    0    0 -0.64002169987E+01 -0.23651171698E+02  0.41576530917E+02  0.10351634920E+03  0.91578850874E+02 0.  0.
          5    1    3    3  502    0 -0.39238109570E+02 -0.30499111524E+02  0.52955871175E+02  0.72743533996E+02  0.41800000000E+01 0.  1.
         -5    1    3    3    0  502  0.45638326569E+02  0.54150283222E+02  0.18203683222E+02  0.73239036776E+02  0.41800000000E+01 0.  1.
        -11    1    4    4    0    0  0.17822055453E+01 -0.33307411023E+02  0.67152414752E+02  0.74980041963E+02  0.00000000000E+00 0.  1.
         11    1    4    4    0    0 -0.81824225440E+01  0.96562393245E+01 -0.25575883835E+02  0.28536307233E+02  0.00000000000E+00 0. -1.
</event>
<event>
 8    1  0.3654190E-009  0.1086172E+03  0.7561462E-02  0.1263152E+00
          4   -1    0    0  501    0  0.00000000000E+00  0.00000000000E+00  0.29489807153E+03  0.29489807153E+03  0.00000000000E+00 0. -1.
         -4   -1    0    0    0  501 -0.00000000000E+00 -0.00000000000E+00 -0.58030196139E+02  0.58030196139E+02  0.00000000000E+00 0.  1.
         25    2    1    2    0    0 -0.58698672877E+02 -0.19491876841E+02  0.82732736780E+02  0.16221338899E+03  0.12507202075E+03 0.  0.
         23    2    1    2    0    0  0.58698672877E+02  0.19491876841E+02  0.15413513861E+03  0.19071487868E+03  0.93749968176E+02 0.  0.
          5    1    3    3  502    0 -0.30535365867E+01 -0.58694909182E+02  0.54964174978E+01  0.59178538804E+02  0.41800000000E+01 0. -1.
         -5    1    3    3    0  502 -0.55645136290E+02  0.39203032342E+02  0.77236319282E+02  0.10303485019E+03  0.41800000000E+01 0. -1.
        -11    1    4    4    0    0  0.41880361076E+02  0.43771413846E+02  0.39461687245E+02  0.72298866341E+02  0.00000000000E+00 0.  1.
         11    1    4    4    0    0  0.16818311801E+02 -0.24279537005E+02  0.11467345137E+03  0.11841601234E+03  0.00000000000E+00 0. -1.
</event>
<event>
 8    1  0.3654190E-009  0.7581457E+02  0.7561462E-02  0.1341367E+00
         -3   -1    0    0    0  501 -0.00000000000E+00  0.00000000000E+00  0.13599930817E+03  0.13599930817E+03  0.00000000000E+00 0.  1.
          3   -1    0    0  501    0  0.00000000000E+00 -0.00000000000E+00 -0.90697856801E+02  0.90697856801E+02  0.00000000000E+00 0. -1.
         25    2    1    2    0    0  0.10646632542E+02  0.15338045713E+02  0.10722508891E+02  0.12693538724E+03  0.12509601875E+03 0.  0.
         23    2    1    2    0    0 -0.10646632542E+02 -0.15338045713E+02  0.34578942479E+02  0.99761777728E+02  0.91695706561E+02 0.  0.
          5    1    3    3  502    0  0.86394730751E+01 -0.29250707050E+02  0.55568037827E+02  0.63525771037E+02  0.41800000000E+01 0. -1.
         -5    1    3    3    0  502  0.20071594672E+01  0.44588752763E+02 -0.44845528936E+02  0.63409616207E+02  0.41800000000E+01 0. -1.
        -11    1    4    4    0    0 -0.39769383518E+02 -0.22946704037E+02  0.48335522560E+02  0.66666917078E+02  0.00000000000E+00 0.  1.
         11    1    4    4    0    0  0.29122750976E+02  0.76086583242E+01 -0.13756580081E+02  0.33094860650E+02  0.00000000000E+00 0. -1.
</event>
<event>
 8    1  0.3654190E-009  0.1728854E+03  0.7561462E-02  0.1174872E+00
          1   -1    0    0  501    0  0.00000000000E+00  0.00000000000E+00  0.96482507626E+03  0.96482507626E+03  0.00000000000E+00 0. -1.
         -1   -1    0    0    0  501 -0.00000000000E+00 -0.00000000000E+00 -0.58115225493E+02  0.58115225493E+02  0.00000000000E+00 0.  1.
         25    2    1    2    0    0  0.14297146393E+03 -0.74845199201E+02  0.17674628344E+03  0.27005473307E+03  0.12509063435E+03 0.  0.
         23    2    1    2    0    0 -0.14297146393E+03  0.74845199201E+02  0.72996356733E+03  0.75288556869E+03  0.89147218531E+02 0.  0.
          5    1    3    3  502    0  0.12178037914E+03 -0.73752732992E+02  0.65583172083E+02  0.15680736981E+03  0.41800000000E+01 0.  1.
         -5    1    3    3    0  502  0.21191084786E+02 -0.10924662092E+01  0.11116311136E+03  0.11324736325E+03  0.41800000000E+01 0.  1.
        -11    1    4    4    0    0 -0.89746754304E+02 -0.15037571875E+00  0.29702434504E+03  0.31028690605E+03  0.00000000000E+00 0. -1.
         11    1    4    4    0    0 -0.53224709624E+02  0.74995574920E+02  0.43293922229E+03  0.44259866264E+03  0.00000000000E+00 0.  1.
</event>
<event>
 8    1  0.3654190E-009  0.1251292E+03  0.7561462E-02  0.1234868E+00
         -1   -1    0    0    0  501 -0.00000000000E+00  0.00000000000E+00  0.28136103020E+03  0.28136103020E+03  0.00000000000E+00 0.  1.
          1   -1    0    0  501    0  0.00000000000E+00 -0.00000000000E+00 -0.83992716796E+02  0.83992716796E+02  0.00000000000E+00 0. -1.
         25    2    1    2    0    0  0.56825308013E+02 -0.90467751369E+02  0.85101179618E+02  0.18520961264E+03  0.12508741014E+03 0.  0.
         23    2    1    2    0    0 -0.56825308013E+02  0.90467751369E+02  0.11226713378E+03  0.18014413435E+03  0.91839371430E+02 0.  0.
          5    1    3    3  502    0  0.71016993871E+02 -0.40368201333E+02  0.10159418198E+03  0.13042950322E+03  0.41800000000E+01 0.  1.
         -5    1    3    3    0  502 -0.14191685859E+02 -0.50099550036E+02 -0.16493002365E+02  0.54780109423E+02  0.41800000000E+01 0.  1.
        -11    1    4    4    0    0 -0.31072807706E+02  0.11448214813E+02  0.87292825027E+02  0.93362831482E+02  0.00000000000E+00 0.  1.
         11    1    4    4    0    0 -0.25752500307E+02  0.79019536557E+02  0.24974308754E+02  0.86781302868E+02  0.00000000000E+00 0. -1.
</event>
<event>
 8    1  0.3654190E-009  0.7753267E+02  0.7561462E-02  0.1336203E+00
          2   -1    0    0  501    0  0.00000000000E+00  0.00000000000E+00  0.33818381040E+03  0.33818381040E+03  0.00000000000E+00 0. -1.
         -2   -1    0    0    0  501 -0.00000000000E+00 -0.00000000000E+00 -0.43035109929E+02  0.43035109929E+02  0.00000000000E+00 0.  1.
         25    2    1    2    0    0  0.41801733423E+02  0.27485812071E+02  0.19358081642E+03  0.23584856959E+03  0.12509260773E+03 0.  0.
         23    2    1    2    0    0 -0.41801733423E+02 -0.27485812071E+02  0.10156788406E+03  0.14537035074E+03  0.91179213757E+02 0.  0.
          5    1    3    3  502    0  0.92462749398E+01 -0.73830520031E+01  0.18710535338E+03  0.18752570150E+03  0.41800000000E+01 0.  1.
         -5    1    3    3    0  502  0.32555458483E+02  0.34868864074E+02  0.64754630323E+01  0.48322868089E+02  0.41800000000E+01 0.  1.
        -11    1    4    4    0    0 -0.66002795965E+02 -0.23727833335E+02  0.98160237961E+02  0.12064332334E+03  0.00000000000E+00 0. -1.
         11    1    4    4    0    0  0.24201062542E+02 -0.37579787362E+01  0.34076460960E+01  0.24727027404E+02  0.00000000000E+00 0.  1.
</event>
<event>
 8    1  0.3654190E-009  0.1054915E+03  0.7561462E-02  0.1269154E+00
          1   -1    0    0  501    0  0.00000000000E+00  0.00000000000E+00  0.52012155134E+03  0.52012155134E+03  0.00000000000E+00 0. -1.
         -1   -1    0    0    0  501 -0.00000000000E+00 -0.00000000000E+00 -0.25462284414E+02  0.25462284414E+02  0.00000000000E+00 0.  1.
         25    2    1    2    0    0  0.38356160610E+01 -0.31245761383E+02  0.23027610895E+03  0.26394406365E+03  0.12509345638E+03 0.  0.
         23    2    1    2    0    0 -0.38356160610E+01  0.31245761383E+02  0.26438315797E+03  0.28163977210E+03  0.91823185817E+02 0.  0.
          5    1    3    3  502    0 -0.30582339417E+02 -0.68243445837E+02  0.16569144685E+03  0.18183392242E+03  0.41800000000E+01 0.  1.
         -5    1    3    3    0  502  0.34417955478E+02  0.36997684454E+02  0.64584662098E+02  0.82110141229E+02  0.41800000000E+01 0.  1.
        -11    1    4    4    0    0  0.10877686526E+01  0.58083626417E+02  0.23262789645E+03  0.23977203570E+03  0.00000000000E+00 0. -1.
         11    1    4    4    0    0 -0.49233847136E+01 -0.26837865034E+02  0.31755261525E+02  0.41867736399E+02  0.00000000000E+00 0.  1.
</event>
<event>
 8    1  0.3654190E-009  0.1784577E+03  0.7561462E-02  0.1169304E+00
          1   -1    0    0  501    0  0.00000000000E+00  0.00000000000E+00  0.65503693569E+03  0.65503693569E+03  0.00000000000E+00 0. -1.
         -1   -1    0    0    0  501 -0.00000000000E+00 -0.00000000000E+00 -0.48942575517E+02  0.48942575517E+02  0.00000000000E+00 0.  1.
         25    2    1    2    0    0  0.56216567954E+02  0.12845886509E+03  0.32879188868E+03  0.37870050863E+03  0.12509191278E+03 0.  0.
         23    2    1    2    0    0 -0.56216567954E+02 -0.12845886509E+03  0.27730247149E+03  0.32527900258E+03  0.96165411088E+02 0.  0.
          5    1    3    3  502    0 -0.21369523336E+02  0.10344633219E+03  0.20003318044E+03  0.22624885823E+03  0.41800000000E+01 0. -1.
         -5    1    3    3    0  502  0.77586091290E+02  0.25012532894E+02  0.12875870824E+03  0.15245165041E+03  0.41800000000E+01 0. -1.
        -11    1    4    4    0    0 -0.98753328506E+00 -0.11192042133E+03  0.17156152880E+03  0.20484265693E+03  0.00000000000E+00 0.  1.
         11    1    4    4    0    0 -0.55229034669E+02 -0.16538443760E+02  0.10574094269E+03  0.12043634565E+03  0.00000000000E+00 0. -1.
</event>
<event>
 8    1  0.3654190E-009  0.1934382E+03  0.7561462E-02  0.1155396E+00
          2   -1    0    0  501    0  0.00000000000E+00  0.00000000000E+00  0.35394054071E+03  0.35394054071E+03  0.00000000000E+00 0. -1.
         -2   -1    0    0    0  501 -0.00000000000E+00 -0.00000000000E+00 -0.17829507391E+03  0.17829507391E+03  0.00000000000E+00 0.  1.
         25    2    1    2    0    0 -0.64678842019E+02  0.16162940113E+03  0.24366692961E+03  0.32454369213E+03  0.12509044568E+03 0.  0.
         23    2    1    2    0    0  0.64678842019E+02 -0.16162940113E+03 -0.68021462811E+02  0.20769192249E+03  0.90562681877E+02 0.  0.
          5    1    3    3  502    0  0.14305284455E+01  0.10027241919E+03  0.20102535797E+03  0.22468927747E+03  0.41800000000E+01 0.  1.
         -5    1    3    3    0  502 -0.66109370464E+02  0.61356981939E+02  0.42641571644E+02  0.99854414665E+02  0.41800000000E+01 0.  1.
        -11    1    4    4    0    0  0.37863494794E+02 -0.16490887696E+03 -0.57574747366E+02  0.17872726002E+03  0.00000000000E+00 0. -1.
         11    1    4    4    0    0  0.26815347225E+02  0.32794758298E+01 -0.10446715445E+02  0.28964662471E+02  0.00000000000E+00 0.  1.
</event>
<event>
 8    1  0.3654190E-009  0.1554468E+03  0.7561462E-02  0.1193935E+00
          4   -1    0    0  501    0  0.00000000000E+00  0.00000000000E+00  0.71615806696E+03  0.71615806696E+03  0.00000000000E+00 0. -1.
         -4   -1    0    0    0  501 -0.00000000000E+00 -0.00000000000E+00 -0.44789817076E+02  0.44789817076E+02  0.00000000000E+00 0.  1.
         25    2    1    2    0    0 -0.13212255965E+03  0.52004478871E+02  0.33732205965E+03  0.38677356250E+03  0.12508709019E+03 0.  0.
         23    2    1    2    0    0  0.13212255965E+03 -0.52004478871E+02  0.33404619023E+03  0.37417432153E+03  0.90877550022E+02 0.  0.
          5    1    3    3  502    0 -0.54240058365E+02  0.18411856082E+02  0.27628904237E+03  0.28219512347E+03  0.41800000000E+01 0. -1.
         -5    1    3    3    0  502 -0.77882501281E+02  0.33592622789E+02  0.61033017282E+02  0.10457843903E+03  0.41800000000E+01 0. -1.
        -11    1    4    4    0    0 -0.13925145562E+02 -0.14963438673E+01  0.25549126520E+02  0.29136001610E+02  0.00000000000E+00 0.  1.
         11    1    4    4    0    0  0.14604770521E+03 -0.50508135004E+02  0.30849706371E+03  0.34503831992E+03  0.00000000000E+00 0. -1.
</event>
<event>
 8    1  0.3654190E-009  0.1131711E+03  0.7561462E-02  0.1254808E+00
          1   -1    0    0  501    0  0.00000000000E+00  0.00000000000E+00  0.16812135297E+03  0.16812135297E+03  0.00000000000E+00 0. -1.
         -1   -1    0    0    0  501 -0.00000000000E+00 -0.00000000000E+00 -0.90135872378E+02  0.90135872378E+02  0.00000000000E+00 0.  1.
         25    2    1    2    0    0  0.19426174756E+02 -0.46124426239E+02  0.12862913448E+02  0.13533492659E+03  0.12508096918E+03 0.  0.
         23    2    1    2    0    0 -0.19426174756E+02  0.46124426239E+02  0.65122567148E+02  0.12292229876E+03  0.91455474514E+02 0.  0.
          5    1    3    3  502    0 -0.12371853856E+01  0.41378956657E+02  0.17658638527E+02  0.45200095092E+02  0.41800000000E+01 0. -1.
         -5    1    3    3    0  502  0.20663360142E+02 -0.87503382896E+02 -0.47957250790E+01  0.90134831501E+02  0.41800000000E+01 0. -1.
        -11    1    4    4    0    0 -0.47580171157E+02  0.46558268204E+02  0.19599970762E+02  0.69395272745E+02  0.00000000000E+00 0.  1.
         11    1    4    4    0    0  0.28153996401E+02 -0.43384196432E+00  0.45522596386E+02  0.53527026014E+02  0.00000000000E+00 0. -1.
</event>
<event>
 8    1  0.3654190E-009  0.2506607E+03  0.7561462E-02  0.1112888E+00
         -1   -1    0    0    0  501 -0.00000000000E+00  0.00000000000E+00  0.10287447839E+03  0.10287447839E+03  0.00000000000E+00 0. -1.
          1   -1    0    0  501    0  0.00000000000E+00 -0.00000000000E+00 -0.69014293031E+03  0.69014293031E+03  0.00000000000E+00 0.  1.
         25    2    1    2    0    0 -0.12234390303E+03 -0.19357714069E+03 -0.42396974760E+03  0.49783361617E+03  0.12509125670E+03 0.  0.
         23    2    1    2    0    0  0.12234390303E+03  0.19357714069E+03 -0.16329870433E+03  0.29518379253E+03  0.89592770523E+02 0.  0.
          5    1    3    3  502    0 -0.22834750563E+02 -0.14193367909E+03 -0.28498429751E+03  0.31921797776E+03  0.41800000000E+01 0. -1.
         -5    1    3    3    0  502 -0.99509152468E+02 -0.51643461604E+02 -0.13898545008E+03  0.17861563841E+03  0.41800000000E+01 0. -1.
        -11    1    4    4    0    0  0.83837859364E+02  0.52144431625E+02 -0.55789205315E+02  0.11340310332E+03  0.00000000000E+00 0.  1.
         11    1    4    4    0    0  0.38506043667E+02  0.14143270907E+03 -0.10750949901E+03  0.18178068921E+03  0.00000000000E+00 0. -1.
</event>
<event>
 8    1  0.3654190E-009  0.9844592E+02  0.7561462E-02  0.1283598E+00
          2   -1    0    0  501    0  0.00000000000E+00  0.00000000000E+00  0.85961718482E+03  0.85961718482E+03  0.00000000000E+00 0. -1.
         -2   -1    0    0    0  501 -0.00000000000E+00 -0.00000000000E+00 -0.21897647740E+02  0.21897647740E+02  0.00000000000E+00 0.  1.
         25    2    1    2    0    0  0.13586584985E+01 -0.51809985878E+02  0.65864277197E+03  0.67241713183E+03  0.12509347511E+03 0.  0.
         23    2    1    2    0    0 -0.13586584985E+01  0.51809985878E+02  0.17907676511E+03  0.20909770074E+03  0.94695512356E+02 0.  0.
          5    1    3    3  502    0 -0.34467348886E+02 -0.35883852418E+02  0.94341428955E+02  0.10673999541E+03  0.41800000000E+01 0. -1.
         -5    1    3    3    0  502  0.35826007385E+02 -0.15926133459E+02  0.56430134301E+03  0.56567713641E+03  0.41800000000E+01 0. -1.
        -11    1    4    4    0    0 -0.37422074102E+02  0.59847091981E+02  0.12607019825E+03  0.14448453528E+03  0.00000000000E+00 0. -1.
         11    1    4    4    0    0  0.36063415604E+02 -0.80371061034E+01  0.53006566866E+02  0.64613165457E+02  0.00000000000E+00 0.  1.
</event>
<event>
 8    1  0.3654190E-009  0.1486362E+03  0.7561462E-02  0.1202159E+00
          2   -1    0    0  501    0  0.00000000000E+00  0.00000000000E+00  0.28960999377E+04  0.28960999377E+04  0.00000000000E+00 0. -1.
         -2   -1    0    0    0  501 -0.00000000000E+00 -0.00000000000E+00 -0.10020111707E+02  0.10020111707E+02  0.00000000000E+00 0.  1.
         25    2    1    2    0    0  0.87174245479E+02  0.79058537525E+02  0.20055039690E+04  0.20128447196E+04  0.12509234187E+03 0.  0.
         23    2    1    2    0    0 -0.87174245479E+02 -0.79058537525E+02  0.88057585698E+03  0.89327532982E+03  0.93152421046E+02 0.  0.
          5    1    3    3  502    0  0.75265633672E+01  0.65845841875E+02  0.14466699775E+04  0.14481932952E+04  0.41800000000E+01 0. -1.
         -5    1    3    3    0  502  0.79647682111E+02  0.13212695650E+02  0.55883399146E+03  0.56465142434E+03  0.41800000000E+01 0. -1.
        -11    1    4    4    0    0 -0.82884033026E+01 -0.70146012732E+02  0.40118222630E+03  0.40735284390E+03  0.00000000000E+00 0.  1.
         11    1    4    4    0    0 -0.78885842176E+02 -0.89125247931E+01  0.47939363068E+03  0.48592248592E+03  0.00000000000E+00 0. -1.
</event>
<event>
 8    1  0.3654190E-009  0.1142800E+03  0.7561462E-02  0.1252843E+00
         -2   -1    0    0    0  501 -0.00000000000E+00  0.00000000000E+00  0.53349149861E+03  0.53349149861E+03  0.00000000000E+00 0.  1.
          2   -1    0    0  501    0  0.00000000000E+00 -0.00000000000E+00 -0.27880719296E+02  0.27880719296E+02  0.00000000000E+00 0. -1.
         25    2    1    2    0    0 -0.30939287681E+02 -0.37065334424E+02  0.34623089502E+03  0.37128655261E+03  0.12508714142E+03 0.  0.
         23    2    1    2    0    0  0.30939287681E+02  0.37065334424E+02  0.15937988430E+03  0.19008566529E+03  0.91648972136E+02 0.  0.
          5    1    3    3  502    0  0.34350703713E+02 -0.47454453990E+02  0.23121942415E+03  0.23856192184E+03  0.41800000000E+01 0.  1.
         -5    1    3    3    0  502 -0.65289991394E+02  0.10389119566E+02  0.11501147086E+03  0.13272463077E+03  0.41800000000E+01 0.  1.
        -11    1    4    4    0    0  0.47891752882E+02 -0.13905232805E+02  0.75972210006E+02  0.90877677053E+02  0.00000000000E+00 0.  1.
         11    1    4    4    0    0 -0.16952465201E+02  0.50970567230E+02  0.83407674290E+02  0.99207988240E+02  0.00000000000E+00 0. -1.
</event>
<event>
 8    1  0.3654190E-009  0.9847187E+02  0.7561462E-02  0.1283543E+00
          2   -1    0    0  501    0  0.00000000000E+00  0.00000000000E+00  0.36263988081E+03  0.36263988081E+03  0.00000000000E+00 0. -1.
         -2   -1    0    0    0  501 -0.00000000000E+00 -0.00000000000E+00 -0.55402673846E+02  0.55402673846E+02  0.00000000000E+00 0.  1.
         25    2    1    2    0    0  0.27369639332E+02 -0.84729502801E+02  0.13698384011E+03  0.20576697200E+03  0.12508912229E+03 0.  0.
         23    2    1    2    0    0 -0.27369639332E+02  0.84729502801E+02  0.17025336686E+03  0.21227558266E+03  0.90258120207E+02 0.  0.
          5    1    3    3  502    0 -0.84678820778E+01 -0.16317205501E+01 -0.21319612764E+02  0.23374469561E+02  0.41800000000E+01 0. -1.
         -5    1    3    3    0  502  0.35837521409E+02 -0.83097782251E+02  0.15830345287E+03  0.18239250244E+03  0.41800000000E+01 0. -1.
        -11    1    4    4    0    0 -0.36153506667E+02  0.77008512890E+02  0.17865463470E+03  0.19787588433E+03  0.00000000000E+00 0. -1.
         11    1    4    4    0    0  0.87838673352E+01  0.77209899107E+01 -0.84012678370E+01  0.14399698324E+02  0.00000000000E+00 0.  1.
</event>
<event>
 8    1  0.3654190E-009  0.2708226E+03  0.7561462E-02  0.1100810E+00
         -1   -1    0    0    0  501 -0.00000000000E+00  0.00000000000E+00  0.13229776903E+03  0.13229776903E+03  0.00000000000E+00 0.  1.
          1   -1    0    0  501    0  0.00000000000E+00 -0.00000000000E+00 -0.11054407566E+04  0.11054407566E+04  0.00000000000E+00 0. -1.
         25    2    1    2    0    0 -0.18589987118E+03  0.16818339327E+03 -0.59811012804E+02  0.28647830638E+03  0.12509215361E+03 0.  0.
         23    2    1    2    0    0  0.18589987118E+03 -0.16818339327E+03 -0.91333197477E+03  0.95126021925E+03  0.88748480017E+02 0.  0.
          5    1    3    3  502    0 -0.15330000923E+03  0.60634267675E+02 -0.15614386456E+02  0.16564627587E+03  0.41800000000E+01 0. -1.
         -5    1    3    3    0  502 -0.32599861954E+02  0.10754912559E+03 -0.44196626348E+02  0.12083203051E+03  0.41800000000E+01 0. -1.
        -11    1    4    4    0    0  0.10619666361E+03 -0.40292847937E+02 -0.44581998454E+03  0.46006163019E+03  0.00000000000E+00 0.  1.
         11    1    4    4    0    0  0.79703207571E+02 -0.12789054533E+03 -0.46751199023E+03  0.49119858906E+03  0.00000000000E+00 0. -1.
</event>
<event>
 8    1  0.3654190E-009  0.1085104E+03  0.7561462E-02  0.1263354E+00
          2   -1    0    0  501    0  0.00000000000E+00  0.00000000000E+00  0.14295704956E+04  0.14295704956E+04  0.00000000000E+00 0. -1.
         -2   -1    0    0    0  501 -0.00000000000E+00 -0.00000000000E+00 -0.12688973227E+02  0.12688973227E+02  0.00000000000E+00 0.  1.
         25    2    1    2    0    0  0.32560604888E+02 -0.36599375115E+02  0.11210410527E+04  0.11290615384E+04  0.12508880268E+03 0.  0.
         23    2    1    2    0    0 -0.32560604888E+02  0.36599375115E+02  0.29584046975E+03  0.31319793044E+03  0.90397194860E+02 0.  0.
          5    1    3    3  502    0 -0.47536065226E+02 -0.15614738491E+02  0.35158987984E+03  0.35515688585E+03  0.41800000000E+01 0. -1.
         -5    1    3    3    0  502  0.80096670113E+02 -0.20984636624E+02  0.76945117283E+03  0.77390465259E+03  0.41800000000E+01 0. -1.
        -11    1    4    4    0    0 -0.38556981346E+02 -0.76024553596E+01  0.51303053375E+02  0.64625393025E+02  0.00000000000E+00 0.  1.
         11    1    4    4    0    0  0.59963764585E+01  0.44201830475E+02  0.24453741638E+03  0.24857253741E+03  0.00000000000E+00 0. -1.
</event>
<event>
 8    1  0.3654190E-009  0.8729962E+02  0.7561462E-02  0.1309526E+00
          1   -1    0    0  501    0  0.00000000000E+00  0.00000000000E+00  0.16138476521E+03  0.16138476521E+03  0.00000000000E+00 0. -1.
         -1   -1    0    0    0  501 -0.00000000000E+00 -0.00000000000E+00 -0.73281644066E+02  0.73281644066E+02  0.00000000000E+00 0.  1.
         25    2    1    2    0    0  0.30234047996E+01 -0.15709747948E+02  0.57107307303E+02  0.13843798514E+03  0.12509154258E+03 0.  0.
         23    2    1    2    0    0 -0.30234047996E+01  0.15709747948E+02  0.30995813838E+02  0.96228424136E+02  0.89684067587E+02 0.  0.
          5    1    3    3  502    0  0.42056619138E+02  0.32149105408E+02  0.55075002364E+02  0.76505244769E+02  0.41800000000E+01 0.  1.
         -5    1    3    3    0  502 -0.39033214339E+02 -0.47858853356E+02  0.20323049395E+01  0.61932740368E+02  0.41800000000E+01 0.  1.
        -11    1    4    4    0    0 -0.33763957375E+01  0.37576805514E+02 -0.18571110479E+02  0.42051189106E+02  0.00000000000E+00 0.  1.
         11    1    4    4    0    0  0.35299093791E+00 -0.21867057566E+02  0.49566924317E+02  0.54177235029E+02  0.00000000000E+00 0. -1.
</event>
<event>
 8    1  0.3654190E-009  0.8555719E+02  0.7561462E-02  0.1313982E+00
         -2   -1    0    0    0  501 -0.00000000000E+00  0.00000000000E+00  0.11640227749E+03  0.11640227749E+03  0.00000000000E+00 0.  1.
          2   -1    0    0  501    0  0.00000000000E+00 -0.00000000000E+00 -0.13041082899E+03  0.13041082899E+03  0.00000000000E+00 0. -1.
         25    2    1    2    0    0  0.35992986912E+02  0.52614926364E+01  0.39006762875E+02  0.13598946663E+03  0.12509368118E+03 0.  0.
         23    2    1    2    0    0 -0.35992986912E+02 -0.52614926364E+01 -0.53015314375E+02  0.11082363986E+03  0.90266700296E+02 0.  0.
          5    1    3    3  502    0 -0.16715174581E+02  0.45107511488E+02  0.49276722817E+02  0.68990959303E+02  0.41800000000E+01 0.  1.
         -5    1    3    3    0  502  0.52708161493E+02 -0.39846018852E+02 -0.10269959942E+02  0.66998507323E+02  0.41800000000E+01 0.  1.
        -11    1    4    4    0    0  0.55909031140E+00 -0.17928156646E+02  0.20812144390E+02  0.27475020233E+02  0.00000000000E+00 0.  1.
         11    1    4    4    0    0 -0.36552077224E+02  0.12666664009E+02 -0.73827458765E+02  0.83348619630E+02  0.00000000000E+00 0. -1.
</event>
<event>
 8    1  0.3654190E-009  0.1454844E+03  0.7561462E-02  0.1206134E+00
         -1   -1    0    0    0  501 -0.00000000000E+00  0.00000000000E+00  0.15001428227E+03  0.15001428227E+03  0.00000000000E+00 0.  1.
          1   -1    0    0  501    0  0.00000000000E+00 -0.00000000000E+00 -0.17370480929E+03  0.17370480929E+03  0.00000000000E+00 0. -1.
         25    2    1    2    0    0  0.77223855711E+02 -0.70081194555E+02  0.46443264085E+02  0.16934849601E+03  0.12508812334E+03 0.  0.
         23    2    1    2    0    0 -0.77223855711E+02  0.70081194555E+02 -0.70133791097E+02  0.15437059555E+03  0.89647277684E+02 0.  0.
          5    1    3    3  502    0  0.57565746960E+02  0.20150536774E+02  0.46659500779E+02  0.76905401424E+02  0.41800000000E+01 0.  1.
         -5    1    3    3    0  502  0.19658108751E+02 -0.90231731329E+02 -0.21623669427E+00  0.92443094585E+02  0.41800000000E+01 0.  1.
        -11    1    4    4    0    0 -0.67610353385E+02  0.97168247646E+00 -0.37832156886E+02  0.77481456791E+02  0.00000000000E+00 0.  1.
         11    1    4    4    0    0 -0.96135023252E+01  0.69109512079E+02 -0.32301634211E+02  0.76889138761E+02  0.00000000000E+00 0. -1.
</event>
<event>
 8    1  0.3654190E-009  0.1454546E+03  0.7561462E-02  0.1206172E+00
         -1   -1    0    0    0  501 -0.00000000000E+00  0.00000000000E+00  0.46664542922E+02  0.46664542922E+02  0.00000000000E+00 0.  1.
          1   -1    0    0  501    0  0.00000000000E+00 -0.00000000000E+00 -0.86917305931E+03  0.86917305931E+03  0.00000000000E+00 0. -1.
         25    2    1    2    0    0  0.49008764005E+02 -0.88457119305E+02 -0.12112620839E+03  0.20135841814E+03  0.12508850185E+03 0.  0.
         23    2    1    2    0    0 -0.49008764005E+02  0.88457119305E+02 -0.70138230800E+03  0.71447918409E+03  0.91196719305E+02 0.  0.
          5    1    3    3  502    0  0.62283005907E+02 -0.11228793762E+03 -0.11639674426E+03  0.17335924618E+03  0.41800000000E+01 0.  1.
         -5    1    3    3    0  502 -0.13274241902E+02  0.23830818320E+02 -0.47294641250E+01  0.27999171966E+02  0.41800000000E+01 0.  1.
        -11    1    4    4    0    0  0.12838809345E+02  0.68734850734E+02 -0.41331531043E+03  0.41918833544E+03  0.00000000000E+00 0. -1.
         11    1    4    4    0    0 -0.61847573349E+02  0.19722268571E+02 -0.28806699757E+03  0.29529084865E+03  0.00000000000E+00 0.  1.
</event>
<event>
 8    1  0.3654190E-009  0.1140036E+03  0.7561462E-02  0.1253330E+00
         -2   -1    0    0    0  501 -0.00000000000E+00  0.00000000000E+00  0.53826684773E+02  0.53826684773E+02  0.00000000000E+00 0.  1.
          2   -1    0    0  501    0  0.00000000000E+00 -0.00000000000E+00 -0.40654769034E+03  0.40654769034E+03  0.00000000000E+00 0. -1.
         25    2    1    2    0    0  0.16565218439E+02 -0.89287090509E+02 -0.12741325814E+03  0.20031696311E+03  0.12508459683E+03 0.  0.
         23    2    1    2    0    0 -0.16565218439E+02  0.89287090509E+02 -0.22530774742E+03  0.26005741201E+03  0.92842261379E+02 0.  0.
          5    1    3    3  502    0  0.30660402604E+02 -0.10802533585E+03 -0.13469331726E+03  0.17541178863E+03  0.41800000000E+01 0. -1.
         -5    1    3    3    0  502 -0.14095184164E+02  0.18738245342E+02  0.72800591190E+01  0.24905174480E+02  0.41800000000E+01 0. -1.
        -11    1    4    4    0    0 -0.13157032114E+02  0.34451098100E+02 -0.19263824997E+03  0.19613638369E+03  0.00000000000E+00 0. -1.
         11    1    4    4    0    0 -0.34081863249E+01  0.54835992409E+02 -0.32669497449E+02  0.63921028317E+02  0.00000000000E+00 0.  1.
</event>
<event>
 8    1  0.3654190E-009  0.1364035E+03  0.7561462E-02  0.1218252E+00
          3   -1    0    0  501    0  0.00000000000E+00  0.00000000000E+00  0.65410971187E+03  0.65410971187E+03  0.00000000000E+00 0. -1.
         -3   -1    0    0    0  501 -0.00000000000E+00 -0.00000000000E+00 -0.35511200630E+02  0.35511200630E+02  0.00000000000E+00 0.  1.
         25    2    1    2    0    0 -0.95611733238E+02  0.35822689696E+02  0.40254081587E+03  0.43371988099E+03  0.12509579566E+03 0.  0.
         23    2    1    2    0    0  0.95611733238E+02 -0.35822689696E+02  0.21605769537E+03  0.25590103151E+03  0.91539835977E+02 0.  0.
          5    1    3    3  502    0 -0.28561735866E+02 -0.45744491359E+02  0.10781334239E+03  0.12062139297E+03  0.41800000000E+01 0.  1.
         -5    1    3    3    0  502 -0.67049997372E+02  0.81567181055E+02  0.29472747348E+03  0.31309848802E+03  0.41800000000E+01 0.  1.
        -11    1    4    4    0    0  0.95545776041E+02 -0.20497176316E+02  0.21943291844E+03  0.24020810822E+03  0.00000000000E+00 0.  1.
         11    1    4    4    0    0  0.65957196199E-01 -0.15325513380E+02 -0.33752230756E+01  0.15692923294E+02  0.00000000000E+00 0. -1.
</event>
<event>
 8    1  0.3654190E-009  0.1282093E+03  0.7561462E-02  0.1230137E+00
         -2   -1    0    0    0  501 -0.00000000000E+00  0.00000000000E+00  0.27490208740E+02  0.27490208740E+02  0.00000000000E+00 0.  1.
          2   -1    0    0  501    0  0.00000000000E+00 -0.00000000000E+00 -0.65003016633E+03  0.65003016633E+03  0.00000000000E+00 0. -1.
         25    2    1    2    0    0 -0.53471815373E+02  0.55793200502E+02 -0.36866877051E+03  0.39690768414E+03  0.12508769374E+03 0.  0.
         23    2    1    2    0    0  0.53471815373E+02 -0.55793200502E+02 -0.25387118708E+03  0.28061269092E+03  0.91218344734E+02 0.  0.
          5    1    3    3  502    0 -0.73426897678E+02  0.78903923213E+02 -0.33159267462E+03  0.34869544399E+03  0.41800000000E+01 0.  1.
         -5    1    3    3    0  502  0.19955082305E+02 -0.23110722711E+02 -0.37076095887E+02  0.48212240150E+02  0.41800000000E+01 0.  1.
        -11    1    4    4    0    0  0.65931035181E+02 -0.57690555819E+01 -0.11804392554E+03  0.13533126674E+03  0.00000000000E+00 0.  1.
         11    1    4    4    0    0 -0.12459219808E+02 -0.50024144920E+02 -0.13582726154E+03  0.14528142418E+03  0.00000000000E+00 0. -1.
</event>
<event>
 8    1  0.3654190E-009  0.2451013E+03  0.7561462E-02  0.1116440E+00
         -2   -1    0    0    0  501 -0.00000000000E+00  0.00000000000E+00  0.24532191857E+02  0.24532191857E+02  0.00000000000E+00 0. -1.
          2   -1    0    0  501    0  0.00000000000E+00 -0.00000000000E+00 -0.24765247103E+04  0.24765247103E+04  0.00000000000E+00 0.  1.
         25    2    1    2    0    0 -0.21967624554E+03 -0.27699965997E+02 -0.12628844524E+04  0.12882360519E+04  0.12510013748E+03 0.  0.
         23    2    1    2    0    0  0.21967624554E+03  0.27699965997E+02 -0.11891080661E+04  0.12128208503E+04  0.89058862846E+02 0.  0.
          5    1    3    3  502    0  0.13139153359E+02 -0.11838065550E+02 -0.52534846388E+02  0.55589204275E+02  0.41800000000E+01 0. -1.
         -5    1    3    3    0  502 -0.23281539890E+03 -0.15861900447E+02 -0.12103496060E+04  0.12326468476E+04  0.41800000000E+01 0. -1.
        -11    1    4    4    0    0  0.11638390557E+03  0.59298492483E+02 -0.64340226171E+03  0.65652722339E+03  0.00000000000E+00 0.  1.
         11    1    4    4    0    0  0.10329233998E+03 -0.31598526486E+02 -0.54570580437E+03  0.55629362687E+03  0.00000000000E+00 0. -1.
</event>
<event>
 8    1  0.3654190E-009  0.1325878E+03  0.7561462E-02  0.1223666E+00
          2   -1    0    0  501    0  0.00000000000E+00  0.00000000000E+00  0.47804844814E+03  0.47804844814E+03  0.00000000000E+00 0. -1.
         -2   -1    0    0    0  501 -0.00000000000E+00 -0.00000000000E+00 -0.45977991339E+02  0.45977991339E+02  0.00000000000E+00 0.  1.
         25    2    1    2    0    0 -0.17762129519E+01  0.99474884946E+02  0.26395395221E+03  0.30857273605E+03  0.12508811645E+03 0.  0.
         23    2    1    2    0    0  0.17762129519E+01 -0.99474884946E+02  0.16811650459E+03  0.21545370343E+03  0.90877563448E+02 0.  0.
          5    1    3    3  502    0 -0.52165441833E+02  0.92054099983E+02  0.20359375530E+03  0.22948437908E+03  0.41800000000E+01 0. -1.
         -5    1    3    3    0  502  0.50389228881E+02  0.74207849637E+01  0.60360196908E+02  0.79088356966E+02  0.41800000000E+01 0. -1.
        -11    1    4    4    0    0 -0.19611440280E+02 -0.33403431470E+02  0.61416364349E+01  0.39218841415E+02  0.00000000000E+00 0.  1.
         11    1    4    4    0    0  0.21387653232E+02 -0.66071453476E+02  0.16197486816E+03  0.17623486201E+03  0.00000000000E+00 0. -1.
</event>
<event>
 8    1  0.3654190E-009  0.1077749E+03  0.7561462E-02  0.1264747E+00
         -1   -1    0    0    0  501 -0.00000000000E+00  0.00000000000E+00  0.34013420622E+02  0.34013420622E+02  0.00000000000E+00 0.  1.
          1   -1    0    0  501    0  0.00000000000E+00 -0.00000000000E+00 -0.44865088480E+03  0.44865088480E+03  0.00000000000E+00 0. -1.
         25    2    1    2    0    0  0.52633392095E+02 -0.84691704080E+01 -0.18956332102E+03  0.23328893878E+03  0.12508986957E+03 0.  0.
         23    2    1    2    0    0 -0.52633392095E+02  0.84691704080E+01 -0.22507414316E+03  0.24937536664E+03  0.93207847088E+02 0.  0.
          5    1    3    3  502    0 -0.95205451499E+01 -0.55451746293E+02 -0.62648725939E+02  0.84308197755E+02  0.41800000000E+01 0. -1.
         -5    1    3    3    0  502  0.62153937245E+02  0.46982575885E+02 -0.12691459508E+03  0.14898074103E+03  0.41800000000E+01 0. -1.
        -11    1    4    4    0    0 -0.64600355815E+02 -0.28103514520E+01 -0.22371735616E+03  0.23287455742E+03  0.00000000000E+00 0. -1.
         11    1    4    4    0    0  0.11966963720E+02  0.11279521860E+02 -0.13567870006E+01  0.16500809224E+02  0.00000000000E+00 0.  1.
</event>
<event>
 8    1  0.3654190E-009  0.1017835E+03  0.7561462E-02  0.1276590E+00
          1   -1    0    0  501    0  0.00000000000E+00  0.00000000000E+00  0.18189891409E+03  0.18189891409E+03  0.00000000000E+00 0. -1.
         -1   -1    0    0    0  501 -0.00000000000E+00 -0.00000000000E+00 -0.86212137717E+02  0.86212137717E+02  0.00000000000E+00 0.  1.
         25    2    1    2    0    0 -0.61072267182E+02 -0.17987257792E+02  0.48650191168E+02  0.14855299954E+03  0.12509112403E+03 0.  0.
         23    2    1    2    0    0  0.61072267182E+02  0.17987257792E+02  0.47036585205E+02  0.11955805227E+03  0.89600916582E+02 0.  0.
          5    1    3    3  502    0 -0.56072055415E+02  0.46562016108E+02  0.39584601421E+02  0.83045227510E+02  0.41800000000E+01 0. -1.
         -5    1    3    3    0  502 -0.50002117667E+01 -0.64549273901E+02  0.90655897471E+01  0.65507772030E+02  0.41800000000E+01 0. -1.
        -11    1    4    4    0    0  0.44899429037E+02  0.20430686657E+02  0.73457651193E+02  0.88483886691E+02  0.00000000000E+00 0. -1.
         11    1    4    4    0    0  0.16172838144E+02 -0.24434288647E+01 -0.26421065988E+02  0.31074165575E+02  0.00000000000E+00 0.  1.
</event>
<event>
 8    1  0.3654190E-009  0.9954595E+02  0.7561462E-02  0.1281254E+00
          1   -1    0    0  501    0  0.00000000000E+00  0.00000000000E+00  0.28388557548E+03  0.28388557548E+03  0.00000000000E+00 0. -1.
         -1   -1    0    0    0  501 -0.00000000000E+00 -0.00000000000E+00 -0.73022656994E+02  0.73022656994E+02  0.00000000000E+00 0.  1.
         25    2    1    2    0    0  0.18036626058E+02  0.40355543490E+02  0.21724493527E+03  0.25455559782E+03  0.12509716508E+03 0.  0.
         23    2    1    2    0    0 -0.18036626058E+02 -0.40355543490E+02 -0.63820167880E+01  0.10235263465E+03  0.92094744213E+02 0.  0.
          5    1    3    3  502    0  0.57776834657E+02  0.20539755812E+02  0.19550159776E+03  0.20493509050E+03  0.41800000000E+01 0.  1.
         -5    1    3    3    0  502 -0.39740208599E+02  0.19815787679E+02  0.21743337515E+02  0.49620507324E+02  0.41800000000E+01 0.  1.
        -11    1    4    4    0    0  0.63138451678E+01  0.23685828695E+02 -0.21020722857E+02  0.32291700345E+02  0.00000000000E+00 0.  1.
         11    1    4    4    0    0 -0.24350471226E+02 -0.64041372185E+02  0.14638706069E+02  0.70060934305E+02  0.00000000000E+00 0. -1.
</event>
<event>
 8    1  0.3654190E-009  0.7233565E+02  0.7561462E-02  0.1352326E+00
         -2   -1    0    0    0  501 -0.00000000000E+00  0.00000000000E+00  0.37061208785E+02  0.37061208785E+02  0.00000000000E+00 0.  1.
          2   -1    0    0  501    0  0.00000000000E+00 -0.00000000000E+00 -0.40375565195E+03  0.40375565195E+03  0.00000000000E+00 0. -1.
         25    2    1    2    0    0 -0.34286431608E+02  0.35316571994E+02 -0.13954455644E+03  0.19376226666E+03  0.12509321764E+03 0.  0.
         23    2    1    2    0    0  0.34286431608E+02 -0.35316571994E+02 -0.22714988672E+03  0.24705459407E+03  0.83762054445E+02 0.  0.
          5    1    3    3  502    0 -0.37362116344E+02  0.23663868698E+02 -0.16197617736E+03  0.16795731854E+03  0.41800000000E+01 0.  1.
         -5    1    3    3    0  502  0.30756847355E+01  0.11652703296E+02  0.22431620916E+02  0.25804948123E+02  0.41800000000E+01 0.  1.
        -11    1    4    4    0    0 -0.64842964380E+01 -0.45100483172E+02 -0.63737764610E+02  0.78349233054E+02  0.00000000000E+00 0.  1.
         11    1    4    4    0    0  0.40770728046E+02  0.97839111779E+01 -0.16341212211E+03  0.16870536102E+03  0.00000000000E+00 0. -1.
</event>
<event>
 8    1  0.3654190E-009  0.7159410E+02  0.7561462E-02  0.1354755E+00
         -1   -1    0    0    0  501 -0.00000000000E+00  0.00000000000E+00  0.48824451548E+02  0.48824451548E+02  0.00000000000E+00 0.  1.
          1   -1    0    0  501    0  0.00000000000E+00 -0.00000000000E+00 -0.26095700655E+03  0.26095700655E+03  0.00000000000E+00 0. -1.
         25    2    1    2    0    0 -0.29646157213E+02 -0.19102762688E+02 -0.12637647054E+03  0.18127362335E+03  0.12508118978E+03 0.  0.
         23    2    1    2    0    0  0.29646157213E+02  0.19102762688E+02 -0.85756084457E+02  0.12850783474E+03  0.88973857896E+02 0.  0.
          5    1    3    3  502    0 -0.13514122312E+02  0.33286354015E+02  0.71546253630E+01  0.36868332340E+02  0.41800000000E+01 0.  1.
         -5    1    3    3    0  502 -0.16132034901E+02 -0.52389116703E+02 -0.13353109591E+03  0.14440529101E+03  0.41800000000E+01 0.  1.
        -11    1    4    4    0    0  0.33323330458E+02  0.75450630957E+00  0.68512771948E+01  0.34028717752E+02  0.00000000000E+00 0.  1.
         11    1    4    4    0    0 -0.36771732457E+01  0.18348256378E+02 -0.92607361652E+02  0.94479116990E+02  0.00000000000E+00 0. -1.
</event>
<event>
 8    1  0.3654190E-009  0.1080381E+03  0.7561462E-02  0.1264247E+00
         -1   -1    0    0    0  501 -0.00000000000E+00  0.00000000000E+00  0.13605141436E+03  0.13605141436E+03  0.00000000000E+00 0.  1.
          1   -1    0    0  501    0  0.00000000000E+00 -0.00000000000E+00 -0.11553827032E+03  0.11553827032E+03  0.00000000000E+00 0. -1.
         25    2    1    2    0    0 -0.23178023358E+02  0.48286728349E+02  0.50352575315E+02  0.14508614378E+03  0.12508308589E+03 0.  0.
         23    2    1    2    0    0  0.23178023358E+02 -0.48286728349E+02 -0.29839431273E+02  0.10650354091E+03  0.87084922147E+02 0.  0.
          5    1    3    3  502    0 -0.28393623495E+02  0.78946431229E+02  0.68892365786E+02  0.10863870085E+03  0.41800000000E+01 0. -1.
         -5    1    3    3    0  502  0.52156001378E+01 -0.30659702879E+02 -0.18539790471E+02  0.36447442930E+02  0.41800000000E+01 0. -1.
        -11    1    4    4    0    0  0.54905581058E+02 -0.20787742297E+02 -0.82309846597E+01  0.59283236834E+02  0.00000000000E+00 0.  1.
         11    1    4    4    0    0 -0.31727557700E+02 -0.27498986053E+02 -0.21608446613E+02  0.47220304071E+02  0.00000000000E+00 0. -1.
</event>
<event>
 8    1  0.3654190E-009  0.1028341E+03  0.7561462E-02  0.1274447E+00
         -2   -1    0    0    0  501 -0.00000000000E+00  0.00000000000E+00  0.14974256519E+02  0.14974256519E+02  0.00000000000E+00 0.  1.
          2   -1    0    0  501    0  0.00000000000E+00 -0.00000000000E+00 -0.13249872189E+04  0.13249872189E+04  0.00000000000E+00 0. -1.
         25    2    1    2    0    0  0.27317903410E+01  0.17392707125E+02 -0.11332782895E+04  0.11402987846E+04  0.12510662629E+03 0.  0.
         23    2    1    2    0    0 -0.27317903410E+01 -0.17392707125E+02 -0.17673467296E+03  0.19966269083E+03  0.91214453572E+02 0.  0.
          5    1    3    3  502    0  0.61545405596E+02 -0.70988955518E+01 -0.51354813357E+03  0.51728849703E+03  0.41800000000E+01 0. -1.
         -5    1    3    3    0  502 -0.58813615255E+02  0.24491602677E+02 -0.61973015589E+03  0.62301028760E+03  0.41800000000E+01 0. -1.
        -11    1    4    4    0    0 -0.31251860270E+02  0.16574354008E+02 -0.30037580253E+02  0.46407372352E+02  0.00000000000E+00 0.  1.
         11    1    4    4    0    0  0.28520069929E+02 -0.33967061133E+02 -0.14669709271E+03  0.15325531847E+03  0.00000000000E+00 0. -1.
</event>
<event>
 8    1  0.3654190E-009  0.1114947E+03  0.7561462E-02  0.1257827E+00
         -1   -1    0    0    0  501 -0.00000000000E+00  0.00000000000E+00  0.15614548777E+02  0.15614548777E+02  0.00000000000E+00 0.  1.
          1   -1    0    0  501    0  0.00000000000E+00 -0.00000000000E+00 -0.10052603093E+04  0.10052603093E+04  0.00000000000E+00 0. -1.
         25    2    1    2    0    0 -0.55154872371E+02 -0.29860958498E+02 -0.62330857889E+03  0.63882244444E+03  0.12508714647E+03 0.  0.
         23    2    1    2    0    0  0.55154872371E+02  0.29860958498E+02 -0.36633718160E+03  0.38205241361E+03  0.88472477817E+02 0.  0.
          5    1    3    3  502    0 -0.23239277055E+02 -0.68158094905E+02 -0.50845942210E+03  0.51355043201E+03  0.41800000000E+01 0.  1.
         -5    1    3    3    0  502 -0.31915595316E+02  0.38297136408E+02 -0.11484915679E+03  0.12527201242E+03  0.41800000000E+01 0.  1.
        -11    1    4    4    0    0 -0.13369706401E+02  0.29406912068E+02 -0.59989812265E+02  0.68134375334E+02  0.00000000000E+00 0.  1.
         11    1    4    4    0    0  0.68524578772E+02  0.45404642965E+00 -0.30634736934E+03  0.31391803827E+03  0.00000000000E+00 0. -1.
</event>
<event>
 8    1  0.3654190E-009  0.7245309E+02  0.7561462E-02  0.1351944E+00
          1   -1    0    0  501    0  0.00000000000E+00  0.00000000000E+00  0.57560465427E+03  0.57560465427E+03  0.00000000000E+00 0. -1.
         -1   -1    0    0    0  501 -0.00000000000E+00 -0.00000000000E+00 -0.23050968170E+02  0.23050968170E+02  0.00000000000E+00 0.  1.
         25    2    1    2    0    0  0.37070546799E+02 -0.14189638295E+02  0.37173569836E+03  0.39422082935E+03  0.12508821521E+03 0.  0.
         23    2    1    2    0    0 -0.37070546799E+02  0.14189638295E+02  0.18081798775E+03  0.20443479310E+03  0.86734472159E+02 0.  0.
          5    1    3    3  502    0  0.45769088015E+02 -0.56089612632E+01  0.37732089499E+03  0.38015102270E+03  0.41800000000E+01 0. -1.
         -5    1    3    3    0  502 -0.86985412166E+01 -0.85806770320E+01 -0.55851966338E+01  0.14069806646E+02  0.41800000000E+01 0. -1.
        -11    1    4    4    0    0 -0.42211664618E+02 -0.23052744842E+02  0.14397502490E+03  0.15179611810E+03  0.00000000000E+00 0.  1.
         11    1    4    4    0    0  0.51411178188E+01  0.37242383137E+02  0.36842962842E+02  0.52638674994E+02  0.00000000000E+00 0. -1.
</event>
<event>
 8    1  0.3654190E-009  0.2874150E+03  0.7561462E-02  0.1091707E+00
         -1   -1    0    0    0  501 -0.00000000000E+00  0.00000000000E+00  0.43262068133E+03  0.43262068133E+03  0.00000000000E+00 0.  1.
          1   -1    0    0  501    0  0.00000000000E+00 -0.00000000000E+00 -0.30205022622E+03  0.30205022622E+03  0.00000000000E+00 0. -1.
         25    2    1    2    0    0  0.17032312014E+03 -0.21122895267E+03 -0.14964788793E+03  0.33417021146E+03  0.12509038397E+03 0.  0.
         23    2    1    2    0    0 -0.17032312014E+03  0.21122895267E+03  0.28021834304E+03  0.40050069610E+03  0.90834201155E+02 0.  0.
          5    1    3    3  502    0  0.15014438603E+03 -0.93717609368E+02 -0.11008656660E+03  0.20847746043E+03  0.41800000000E+01 0. -1.
         -5    1    3    3    0  502  0.20178734112E+02 -0.11751134330E+03 -0.39561321331E+02  0.12569275103E+03  0.41800000000E+01 0. -1.
        -11    1    4    4    0    0 -0.17226300124E+03  0.18728259191E+03  0.22263294508E+03  0.33810462740E+03  0.00000000000E+00 0.  1.
         11    1    4    4    0    0  0.19398810951E+01  0.23946360758E+02  0.57585397954E+02  0.62396068704E+02  0.00000000000E+00 0. -1.
</event>
<event>
 8    1  0.3654190E-009  0.9924291E+02  0.7561462E-02  0.1281896E+00
          1   -1    0    0  501    0  0.00000000000E+00  0.00000000000E+00  0.66741633117E+03  0.66741633117E+03  0.00000000000E+00 0. -1.
         -1   -1    0    0    0  501 -0.00000000000E+00 -0.00000000000E+00 -0.28484986890E+02  0.28484986890E+02  0.00000000000E+00 0.  1.
         25    2    1    2    0    0  0.11303892472E+02  0.38507418041E+02  0.54581368245E+03  0.56140013338E+03  0.12508770753E+03 0.  0.
         23    2    1    2    0    0 -0.11303892472E+02 -0.38507418041E+02  0.93117661826E+02  0.13450118468E+03  0.88368945379E+02 0.  0.
          5    1    3    3  502    0 -0.37677828445E+02 -0.20073113525E+02  0.32282333001E+03  0.32566074900E+03  0.41800000000E+01 0.  1.
         -5    1    3    3    0  502  0.48981720917E+02  0.58580531566E+02  0.22299035245E+03  0.23573938438E+03  0.41800000000E+01 0.  1.
        -11    1    4    4    0    0  0.28797635071E+02 -0.13053123196E+02  0.19203857406E+01  0.31676106015E+02  0.00000000000E+00 0.  1.
         11    1    4    4    0    0 -0.40101527543E+02 -0.25454294845E+02  0.91197276085E+02  0.10282507867E+03  0.00000000000E+00 0. -1.
</event>
<event>
 8    1  0.3654190E-009  0.1111549E+03  0.7561462E-02  0.1258446E+00
         -2   -1    0    0    0  501 -0.00000000000E+00  0.00000000000E+00  0.11143592000E+03  0.11143592000E+03  0.00000000000E+00 0.  1.
          2   -1    0    0  501    0  0.00000000000E+00 -0.00000000000E+00 -0.16902868296E+03  0.16902868296E+03  0.00000000000E+00 0. -1.
         25    2    1    2    0    0  0.35052415416E+02 -0.35291189116E+02  0.36374877258E+02  0.13944465698E+03  0.12509013074E+03 0.  0.
         23    2    1    2    0    0 -0.35052415416E+02  0.35291189116E+02 -0.93967640218E+02  0.14101994598E+03  0.92642149698E+02 0.  0.
          5    1    3    3  502    0 -0.41511749566E+02  0.34226805021E+01  0.33302419422E+02  0.53492650273E+02  0.41800000000E+01 0.  1.
         -5    1    3    3    0  502  0.76564164983E+02 -0.38713869618E+02  0.30724578365E+01  0.85952006710E+02  0.41800000000E+01 0.  1.
        -11    1    4    4    0    0 -0.60429407838E+02  0.33540715860E+02 -0.92596556950E+02  0.11554572823E+03  0.00000000000E+00 0. -1.
         11    1    4    4    0    0  0.25376992421E+02  0.17504732556E+01 -0.13710832678E+01  0.25474217756E+02  0.00000000000E+00 0.  1.
</event>
<event>
 8    1  0.3654190E-009  0.1010188E+03  0.7561462E-02  0.1278168E+00
          2   -1    0    0  501    0  0.00000000000E+00  0.00000000000E+00  0.16409083821E+04  0.16409083821E+04  0.00000000000E+00 0. -1.
         -2   -1    0    0    0  501 -0.00000000000E+00 -0.00000000000E+00 -0.95013719704E+01  0.95013719704E+01  0.00000000000E+00 0.  1.
         25    2    1    2    0    0  0.21743799551E+02 -0.30780159875E+02  0.12005956506E+04  0.12076830623E+04  0.12509297233E+03 0.  0.
         23    2    1    2    0    0 -0.21743799551E+02  0.30780159875E+02  0.43081135961E+03  0.44272669183E+03  0.94806566358E+02 0.  0.
          5    1    3    3  502    0 -0.28706000973E+02 -0.39230862810E+02  0.97926737891E+03  0.98048210942E+03  0.41800000000E+01 0.  1.
         -5    1    3    3    0  502  0.50449800524E+02  0.84507029348E+01  0.22132827165E+03  0.22720095286E+03  0.41800000000E+01 0.  1.
        -11    1    4    4    0    0 -0.48357105491E+02  0.49643490921E+02  0.30186619493E+03  0.30971936569E+03  0.00000000000E+00 0.  1.
         11    1    4    4    0    0  0.26613305939E+02 -0.18863331046E+02  0.12894516468E+03  0.13300732613E+03  0.00000000000E+00 0. -1.
</event>
<event>
 8    1  0.3654190E-009  0.1260865E+03  0.7561462E-02  0.1233381E+00
         -2   -1    0    0    0  501 -0.00000000000E+00  0.00000000000E+00  0.43545271329E+03  0.43545271329E+03  0.00000000000E+00 0.  1.
          2   -1    0    0  501    0  0.00000000000E+00 -0.00000000000E+00 -0.41248182078E+02  0.41248182078E+02  0.00000000000E+00 0. -1.
         25    2    1    2    0    0 -0.32506618493E+02 -0.70892517837E+02  0.19070028266E+03  0.24103182013E+03  0.12508921288E+03 0.  0.
         23    2    1    2    0    0  0.32506618493E+02  0.70892517837E+02  0.20350424855E+03  0.23566907524E+03  0.89685586980E+02 0.  0.
          5    1    3    3  502    0 -0.47906433878E+02 -0.10131104659E+03  0.13396658529E+03  0.17470968188E+03  0.41800000000E+01 0. -1.
         -5    1    3    3    0  502  0.15399815385E+02  0.30418528753E+02  0.56733697364E+02  0.66322138249E+02  0.41800000000E+01 0. -1.
        -11    1    4    4    0    0  0.20897142380E+02 -0.10552382609E+02  0.10379344917E+03  0.10640076799E+03  0.00000000000E+00 0.  1.
         11    1    4    4    0    0  0.11609476113E+02  0.81444900446E+02  0.99710799382E+02  0.12926830724E+03  0.00000000000E+00 0. -1.
</event>
<event>
 8    1  0.3654190E-009  0.1027992E+03  0.7561462E-02  0.1274517E+00
          2   -1    0    0  501    0  0.00000000000E+00  0.00000000000E+00  0.15034227381E+03  0.15034227381E+03  0.00000000000E+00 0. -1.
         -2   -1    0    0    0  501 -0.00000000000E+00 -0.00000000000E+00 -0.12623944873E+03  0.12623944873E+03  0.00000000000E+00 0.  1.
         25    2    1    2    0    0  0.44068164306E+02 -0.30786390119E+02  0.79096973669E+02  0.15745369183E+03  0.12508208866E+03 0.  0.
         23    2    1    2    0    0 -0.44068164306E+02  0.30786390119E+02 -0.54994148583E+02  0.11912803072E+03  0.90979813158E+02 0.  0.
          5    1    3    3  502    0  0.81793726828E+02 -0.41310873283E+02  0.73757534569E+02  0.11770492048E+03  0.41800000000E+01 0.  1.
         -5    1    3    3    0  502 -0.37725562523E+02  0.10524483163E+02  0.53394391005E+01  0.39748771345E+02  0.41800000000E+01 0.  1.
        -11    1    4    4    0    0 -0.38290801057E+02  0.45030385952E+02  0.29468565350E+01  0.59182810579E+02  0.00000000000E+00 0. -1.
         11    1    4    4    0    0 -0.57773632491E+01 -0.14243995833E+02 -0.57941005118E+02  0.59945220138E+02  0.00000000000E+00 0.  1.
</event>
<event>
 8    1  0.3654190E-009  0.1779845E+03  0.7561462E-02  0.1169768E+00
          1   -1    0    0  501    0  0.00000000000E+00  0.00000000000E+00  0.67403622172E+03  0.67403622172E+03  0.00000000000E+00 0. -1.
         -1   -1    0    0    0  501 -0.00000000000E+00 -0.00000000000E+00 -0.50940877192E+02  0.50940877192E+02  0.00000000000E+00 0.  1.
         25    2    1    2    0    0  0.11629016765E+03 -0.93532632149E+02  0.35505585322E+03  0.40494983084E+03  0.12509176720E+03 0.  0.
         23    2    1    2    0    0 -0.11629016765E+03  0.93532632149E+02  0.26803949132E+03  0.32002726808E+03  0.91107228263E+02 0.  0.
          5    1    3    3  502    0  0.63551970137E+02  0.21964632425E+02  0.13430822747E+03  0.15025801261E+03  0.41800000000E+01 0.  1.
         -5    1    3    3    0  502  0.52738197510E+02 -0.11549726457E+03  0.22074762575E+03  0.25469181823E+03  0.41800000000E+01 0.  1.
        -11    1    4    4    0    0 -0.53404468089E+02  0.81648238443E+02  0.97742358198E+02  0.13810155915E+03  0.00000000000E+00 0.  1.
         11    1    4    4    0    0 -0.62885699558E+02  0.11884393707E+02  0.17029713312E+03  0.18192570893E+03  0.00000000000E+00 0. -1.
</event>
<event>
 8    1  0.3654190E-009  0.8323046E+02  0.7561462E-02  0.1320126E+00
         -3   -1    0    0    0  501 -0.00000000000E+00  0.00000000000E+00  0.12153608335E+03  0.12153608335E+03  0.00000000000E+00 0.  1.
          3   -1    0    0  501    0  0.00000000000E+00 -0.00000000000E+00 -0.13308713685E+03  0.13308713685E+03  0.00000000000E+00 0. -1.
         25    2    1    2    0    0 -0.57050770647E+02  0.22111807947E+02  0.28030565313E+02  0.14204553390E+03  0.12508996214E+03 0.  0.
         23    2    1    2    0    0  0.57050770647E+02 -0.22111807947E+02 -0.39581618813E+02  0.11257768630E+03  0.85809722195E+02 0.  0.
          5    1    3    3  502    0 -0.10123302220E+02 -0.45419161413E+00  0.72572200833E+02  0.73395396801E+02  0.41800000000E+01 0. -1.
         -5    1    3    3    0  502 -0.46927468428E+02  0.22565999561E+02 -0.44541635520E+02  0.68650137101E+02  0.41800000000E+01 0. -1.
        -11    1    4    4    0    0  0.57033008539E+02  0.20532302959E+02 -0.34190803268E+02  0.69594184785E+02  0.00000000000E+00 0.  1.
         11    1    4    4    0    0  0.17762108082E-01 -0.42644110906E+02 -0.53908155453E+01  0.42983501517E+02  0.00000000000E+00 0. -1.
</event>
<event>
 8    1  0.3654190E-009  0.1182778E+03  0.7561462E-02  0.1245965E+00
         -2   -1    0    0    0  501 -0.00000000000E+00  0.00000000000E+00  0.62547410270E+02  0.62547410270E+02  0.00000000000E+00 0.  1.
          2   -1    0    0  501    0  0.00000000000E+00 -0.00000000000E+00 -0.35667066633E+03  0.35667066633E+03  0.00000000000E+00 0. -1.
         25    2    1    2    0    0 -0.40560345124E+02 -0.63417159676E+02 -0.60582689448E+02  0.15806968368E+03  0.12509550312E+03 0.  0.
         23    2    1    2    0    0  0.40560345124E+02  0.63417159676E+02 -0.23354056661E+03  0.26114839292E+03  0.89389088451E+02 0.  0.
          5    1    3    3  502    0 -0.60450295431E+02  0.14975708209E+02 -0.41226933233E+02  0.74804027150E+02  0.41800000000E+01 0.  1.
         -5    1    3    3    0  502  0.19889950307E+02 -0.78392867886E+02 -0.19355756215E+02  0.83265656529E+02  0.41800000000E+01 0.  1.
        -11    1    4    4    0    0  0.37041568874E+02  0.83467033300E+01 -0.25074939608E+02  0.45502723846E+02  0.00000000000E+00 0.  1.
         11    1    4    4    0    0  0.35187762503E+01  0.55070456346E+02 -0.20846562701E+03  0.21564566908E+03  0.00000000000E+00 0. -1.
</event>
<event>
 8    1  0.3654190E-009  0.1825848E+03  0.7561462E-02  0.1165325E+00
         -3   -1    0    0    0  501 -0.00000000000E+00  0.00000000000E+00  0.20803350163E+03  0.20803350163E+03  0.00000000000E+00 0.  1.
          3   -1    0    0  501    0  0.00000000000E+00 -0.00000000000E+00 -0.18924047844E+03  0.18924047844E+03  0.00000000000E+00 0. -1.
         25    2    1    2    0    0 -0.14203600740E+03  0.84149550102E+02  0.24388968235E+02  0.20856183003E+03  0.12509133061E+03 0.  0.
         23    2    1    2    0    0  0.14203600740E+03 -0.84149550102E+02 -0.55959450455E+01  0.18871215004E+03  0.91244653503E+02 0.  0.
          5    1    3    3  502    0 -0.22308691624E+01  0.56886229498E+02 -0.18062944652E+02  0.59872884123E+02  0.41800000000E+01 0.  1.
         -5    1    3    3    0  502 -0.13980513823E+03  0.27263320603E+02  0.42451912886E+02  0.14868894591E+03  0.41800000000E+01 0.  1.
        -11    1    4    4    0    0  0.63618371707E+02 -0.45109995476E+02 -0.47806100070E+02  0.91474762172E+02  0.00000000000E+00 0. -1.
         11    1    4    4    0    0  0.78417635689E+02 -0.39039554625E+02  0.42210155025E+02  0.97237387869E+02  0.00000000000E+00 0.  1.
</event>
<event>
 8    1  0.3654190E-009  0.1773520E+03  0.7561462E-02  0.1170391E+00
         -2   -1    0    0    0  501 -0.00000000000E+00  0.00000000000E+00  0.18469714127E+02  0.18469714127E+02  0.00000000000E+00 0.  1.
          2   -1    0    0  501    0  0.00000000000E+00 -0.00000000000E+00 -0.23557266911E+04  0.23557266911E+04  0.00000000000E+00 0. -1.
         25    2    1    2    0    0  0.11970646682E+03 -0.10275857584E+03 -0.16843870341E+04  0.16963772524E+04  0.12508852280E+03 0.  0.
         23    2    1    2    0    0 -0.11970646682E+03  0.10275857584E+03 -0.65286994283E+03  0.67781915284E+03  0.91162923327E+02 0.  0.
          5    1    3    3  502    0  0.65267870306E+02 -0.12171073730E+03 -0.13478700541E+04  0.13549334130E+04  0.41800000000E+01 0. -1.
         -5    1    3    3    0  502  0.54438596519E+02  0.18952161462E+02 -0.33651697999E+03  0.34144383936E+03  0.41800000000E+01 0. -1.
        -11    1    4    4    0    0 -0.43203672878E+02  0.26297682942E+02 -0.78705784026E+02  0.93556004176E+02  0.00000000000E+00 0.  1.
         11    1    4    4    0    0 -0.76502793947E+02  0.76460892899E+02 -0.57416415881E+03  0.58426314866E+03  0.00000000000E+00 0. -1.
</event>
<event>
 8    1  0.3654190E-009  0.8850833E+02  0.7561462E-02  0.1306505E+00
          2   -1    0    0  501    0  0.00000000000E+00  0.00000000000E+00  0.73061746897E+03  0.73061746897E+03  0.00000000000E+00 0. -1.
         -2   -1    0    0    0  501 -0.00000000000E+00 -0.00000000000E+00 -0.17437502102E+02  0.17437502102E+02  0.00000000000E+00 0.  1.
         25    2    1    2    0    0  0.22842843176E+02 -0.22759552598E+02  0.43188472897E+03  0.45079058546E+03  0.12509172677E+03 0.  0.
         23    2    1    2    0    0 -0.22842843176E+02  0.22759552598E+02  0.28129523790E+03  0.29726438561E+03  0.90550048965E+02 0.  0.
          5    1    3    3  502    0  0.24444211824E+02 -0.48659752048E+02  0.74153704479E+02  0.92095250958E+02  0.41800000000E+01 0.  1.
         -5    1    3    3    0  502 -0.16013686483E+01  0.25900199451E+02  0.35773102449E+03  0.35869533450E+03  0.41800000000E+01 0.  1.
        -11    1    4    4    0    0 -0.12408625516E+02  0.58027153697E+02  0.17468802312E+03  0.18449127343E+03  0.00000000000E+00 0. -1.
         11    1    4    4    0    0 -0.10434217660E+02 -0.35267601099E+02  0.10660721478E+03  0.11277311217E+03  0.00000000000E+00 0.  1.
</event>
<event>
 8    1  0.3654190E-009  0.9443937E+02  0.7561462E-02  0.1292444E+00
         -3   -1    0    0    0  501 -0.00000000000E+00  0.00000000000E+00  0.19927061776E+03  0.19927061776E+03  0.00000000000E+00 0.  1.
          3   -1    0    0  501    0  0.00000000000E+00 -0.00000000000E+00 -0.84357857087E+02  0.84357857087E+02  0.00000000000E+00 0. -1.
         25    2    1    2    0    0 -0.62717768907E+02  0.35122548346E+02  0.67563605517E+02  0.15930635412E+03  0.12508621721E+03 0.  0.
         23    2    1    2    0    0  0.62717768907E+02 -0.35122548346E+02  0.47349155159E+02  0.12432212073E+03  0.89704711518E+02 0.  0.
          5    1    3    3  502    0 -0.48378045852E+01  0.15636172687E+02 -0.35567861692E+02  0.39375619802E+02  0.41800000000E+01 0. -1.
         -5    1    3    3    0  502 -0.57879964322E+02  0.19486375658E+02  0.10313146721E+03  0.11993073432E+03  0.41800000000E+01 0. -1.
        -11    1    4    4    0    0  0.74092030293E+02 -0.25230781459E+00  0.46808381087E+02  0.87639700776E+02  0.00000000000E+00 0.  1.
         11    1    4    4    0    0 -0.11374261386E+02 -0.34870240531E+02  0.54077407218E+00  0.36682419950E+02  0.00000000000E+00 0. -1.
</event>
<event>
 8    1  0.3654190E-009  0.1095317E+03  0.7561462E-02  0.1261440E+00
         -2   -1    0    0    0  501 -0.00000000000E+00  0.00000000000E+00  0.53669167697E+02  0.53669167697E+02  0.00000000000E+00 0.  1.
          2   -1    0    0  501    0  0.00000000000E+00 -0.00000000000E+00 -0.38624294795E+03  0.38624294795E+03  0.00000000000E+00 0. -1.
         25    2    1    2    0    0  0.74342392282E+02  0.53059638197E+02 -0.21753114937E+03  0.26704163121E+03  0.12509722362E+03 0.  0.
         23    2    1    2    0    0 -0.74342392282E+02 -0.53059638197E+02 -0.11504263088E+03  0.17287048443E+03  0.91144286561E+02 0.  0.
          5    1    3    3  502    0  0.64733841771E+02  0.59882226337E+02 -0.54964454691E+02  0.10399478343E+03  0.41800000000E+01 0.  1.
         -5    1    3    3    0  502  0.96085505115E+01 -0.68225881403E+01 -0.16256669468E+03  0.16304684778E+03  0.41800000000E+01 0.  1.
        -11    1    4    4    0    0 -0.22205490316E+02 -0.61568400016E+02 -0.28297113175E+02  0.71305527799E+02  0.00000000000E+00 0.  1.
         11    1    4    4    0    0 -0.52136901966E+02  0.85087618187E+01 -0.86745517706E+02  0.10156495664E+03  0.00000000000E+00 0. -1.
</event>
<event>
 8    1  0.3654190E-009  0.9792435E+02  0.7561462E-02  0.1284722E+00
         -1   -1    0    0    0  501 -0.00000000000E+00  0.00000000000E+00  0.36909082595E+02  0.36909082595E+02  0.00000000000E+00 0.  1.
          1   -1    0    0  501    0  0.00000000000E+00 -0.00000000000E+00 -0.10011343754E+04  0.10011343754E+04  0.00000000000E+00 0. -1.
         25    2    1    2    0    0 -0.82929300985E+02  0.13145766966E+02 -0.86906795157E+03  0.88203112018E+03  0.12509881045E+03 0.  0.
         23    2    1    2    0    0  0.82929300985E+02 -0.13145766966E+02 -0.95157341194E+02  0.15601233777E+03  0.90746073208E+02 0.  0.
          5    1    3    3  502    0 -0.89224679902E+02  0.25585531761E+02 -0.85973399194E+03  0.86474023396E+03  0.41800000000E+01 0.  1.
         -5    1    3    3    0  502  0.62953789177E+01 -0.12439764796E+02 -0.93339596300E+01  0.17290886220E+02  0.41800000000E+01 0.  1.
        -11    1    4    4    0    0  0.34854720014E+02 -0.19414946945E+02 -0.99633161296E+02  0.10732454753E+03  0.00000000000E+00 0. -1.
         11    1    4    4    0    0  0.48074580970E+02  0.62691799798E+01  0.44758201027E+01  0.48687790242E+02  0.00000000000E+00 0.  1.
</event>
<event>
 8    1  0.3654190E-009  0.1282019E+03  0.7561462E-02  0.1230148E+00
         -2   -1    0    0    0  501 -0.00000000000E+00  0.00000000000E+00  0.70203587742E+02  0.70203587742E+02  0.00000000000E+00 0.  1.
          2   -1    0    0  501    0  0.00000000000E+00 -0.00000000000E+00 -0.33589632349E+03  0.33589632349E+03  0.00000000000E+00 0. -1.
         25    2    1    2    0    0 -0.59105658497E+02  0.59878405647E+02 -0.23710968533E+03  0.28097545089E+03  0.12508916340E+03 0.  0.
         23    2    1    2    0    0  0.59105658497E+02 -0.59878405647E+02 -0.28583050419E+02  0.12512446034E+03  0.88092210067E+02 0.  0.
          5    1    3    3  502    0 -0.88419717734E+02  0.11658376784E+02 -0.10881196586E+03  0.14075326123E+03  0.41800000000E+01 0. -1.
         -5    1    3    3    0  502  0.29314059237E+02  0.48220028863E+02 -0.12829771946E+03  0.14022218966E+03  0.41800000000E+01 0. -1.
        -11    1    4    4    0    0  0.42549618379E+02 -0.76207373748E+02 -0.43476401626E+02  0.97510160169E+02  0.00000000000E+00 0. -1.
         11    1    4    4    0    0  0.16556040118E+02  0.16328968101E+02  0.14893351207E+02  0.27614300169E+02  0.00000000000E+00 0.  1.
</event>
<event>
 8    1  0.3654190E-009  0.1035353E+03  0.7561462E-02  0.1273033E+00
          1   -1    0    0  501    0  0.00000000000E+00  0.00000000000E+00  0.78158312593E+03  0.78158312593E+03  0.00000000000E+00 0. -1.
         -1   -1    0    0    0  501 -0.00000000000E+00 -0.00000000000E+00 -0.26798633407E+02  0.26798633407E+02  0.00000000000E+00 0.  1.
         25    2    1    2    0    0  0.87813405987E+01 -0.94750595292E+02  0.37074237852E+03  0.40268039386E+03  0.12508717408E+03 0.  0.
         23    2    1    2    0    0 -0.87813405987E+01  0.94750595292E+02  0.38404211401E+03  0.40570136548E+03  0.89724385594E+02 0.  0.
          5    1    3    3  502    0  0.11723551022E+02 -0.13331273229E+02  0.28025457659E+03  0.28084740447E+03  0.41800000000E+01 0. -1.
         -5    1    3    3    0  502 -0.29422104236E+01 -0.81419322063E+02  0.90487801928E+02  0.12183298940E+03  0.41800000000E+01 0. -1.
        -11    1    4    4    0    0  0.14167403255E+02  0.56639085326E+01  0.56233013692E+01  0.16260894598E+02  0.00000000000E+00 0.  1.
         11    1    4    4    0    0 -0.22948743853E+02  0.89086686759E+02  0.37841881264E+03  0.38944047088E+03  0.00000000000E+00 0. -1.
</event>
<event>
 8    1  0.3654190E-009  0.1331364E+03  0.7561462E-02  0.1222875E+00
          2   -1    0    0  501    0  0.00000000000E+00  0.00000000000E+00  0.26531481929E+03  0.26531481929E+03  0.00000000000E+00 0. -1.
         -2   -1    0    0    0  501 -0.00000000000E+00 -0.00000000000E+00 -0.89871226463E+02  0.89871226463E+02  0.00000000000E+00 0.  1.
         25    2    1    2    0    0 -0.44317175427E+02  0.97922457772E+02  0.93651167647E+02  0.18965904245E+03  0.12508873414E+03 0.  0.
         23    2    1    2    0    0  0.44317175427E+02 -0.97922457772E+02  0.81792425185E+02  0.16552700331E+03  0.95688913840E+02 0.  0.
          5    1    3    3  502    0 -0.80556823744E+02  0.39726350014E+02  0.78411938400E+02  0.11930418778E+03  0.41800000000E+01 0. -1.
         -5    1    3    3    0  502  0.36239648317E+02  0.58196107758E+02  0.15239229247E+02  0.70354854676E+02  0.41800000000E+01 0. -1.
        -11    1    4    4    0    0  0.27277434360E+02 -0.67476050965E+02  0.10192644330E+03  0.12524406462E+03  0.00000000000E+00 0. -1.
         11    1    4    4    0    0  0.17039741067E+02 -0.30446406808E+02 -0.20134018120E+02  0.40282938681E+02  0.00000000000E+00 0.  1.
</event>
<event>
 8    1  0.3654190E-009  0.1042532E+03  0.7561462E-02  0.1271598E+00
         -2   -1    0    0    0  501 -0.00000000000E+00  0.00000000000E+00  0.22650740304E+02  0.22650740304E+02  0.00000000000E+00 0.  1.
          2   -1    0    0  501    0  0.00000000000E+00 -0.00000000000E+00 -0.56968325768E+03  0.56968325768E+03  0.00000000000E+00 0. -1.
         25    2    1    2    0    0  0.49975498301E+01 -0.30682611293E+02 -0.28362734156E+03  0.31153715733E+03  0.12507810910E+03 0.  0.
         23    2    1    2    0    0 -0.49975498301E+01  0.30682611293E+02 -0.26340517582E+03  0.28079684066E+03  0.92185578781E+02 0.  0.
          5    1    3    3  502    0  0.51138026756E+02  0.22110874868E+02 -0.15828666359E+03  0.16785746584E+03  0.41800000000E+01 0. -1.
         -5    1    3    3    0  502 -0.46140476926E+02 -0.52793486161E+02 -0.12534067797E+03  0.14367969148E+03  0.41800000000E+01 0. -1.
        -11    1    4    4    0    0  0.29312367483E+02 -0.83012115539E+01 -0.17989444030E+03  0.18245584302E+03  0.00000000000E+00 0. -1.
         11    1    4    4    0    0 -0.34309917313E+02  0.38983822846E+02 -0.83510735518E+02  0.98340997638E+02  0.00000000000E+00 0.  1.
</event>
<event>
 8    1  0.3654190E-009  0.1140450E+03  0.7561462E-02  0.1253257E+00
         -1   -1    0    0    0  501 -0.00000000000E+00  0.00000000000E+00  0.29766812805E+03  0.29766812805E+03  0.00000000000E+00 0.  1.
          1   -1    0    0  501    0  0.00000000000E+00 -0.00000000000E+00 -0.47202880850E+02  0.47202880850E+02  0.00000000000E+00 0. -1.
         25    2    1    2    0    0  0.36903014228E+02  0.44270613425E+01  0.18710688662E+03  0.22811812622E+03  0.12508981238E+03 0.  0.
         23    2    1    2    0    0 -0.36903014228E+02 -0.44270613425E+01  0.63358360580E+02  0.11675288267E+03  0.90749779204E+02 0.  0.
          5    1    3    3  502    0  0.63832575697E+02  0.47298548356E+02  0.11927014871E+03  0.14336872452E+03  0.41800000000E+01 0. -1.
         -5    1    3    3    0  502 -0.26929561469E+02 -0.42871487013E+02  0.67836737907E+02  0.84749401706E+02  0.41800000000E+01 0. -1.
        -11    1    4    4    0    0 -0.17100222830E+02 -0.47414715446E+02  0.37468971949E+02  0.62805228449E+02  0.00000000000E+00 0.  1.
         11    1    4    4    0    0 -0.19802791398E+02  0.42987654103E+02  0.25889388632E+02  0.53947654223E+02  0.00000000000E+00 0. -1.
</event>
<event>
 8    1  0.3654190E-009  0.1152319E+03  0.7561462E-02  0.1251177E+00
         -4   -1    0    0    0  501 -0.00000000000E+00  0.00000000000E+00  0.16837957937E+03  0.16837957937E+03  0.00000000000E+00 0.  1.
          4   -1    0    0  501    0  0.00000000000E+00 -0.00000000000E+00 -0.89075024835E+02  0.89075024835E+02  0.00000000000E+00 0. -1.
         25    2    1    2    0    0  0.55209203953E+02  0.86109914302E+01  0.33962694822E+02  0.14114963389E+03  0.12509016402E+03 0.  0.
         23    2    1    2    0    0 -0.55209203953E+02 -0.86109914302E+01  0.45341859714E+02  0.11630497032E+03  0.91371530048E+02 0.  0.
          5    1    3    3  502    0  0.81520816132E+02 -0.28480388666E+02  0.39680856977E+02  0.95125279562E+02  0.41800000000E+01 0. -1.
         -5    1    3    3    0  502 -0.26311612180E+02  0.37091380096E+02 -0.57181621550E+01  0.46024354329E+02  0.41800000000E+01 0. -1.
        -11    1    4    4    0    0  0.57675109681E+01  0.27080518914E+02  0.35419411684E+02  0.44957239812E+02  0.00000000000E+00 0.  1.
         11    1    4    4    0    0 -0.60976714921E+02 -0.35691510344E+02  0.99224480302E+01  0.71347730504E+02  0.00000000000E+00 0. -1.
</event>
<event>
 8    1  0.3654190E-009  0.8458572E+02  0.7561462E-02  0.1316519E+00
         -1   -1    0    0    0  501 -0.00000000000E+00  0.00000000000E+00  0.56002950580E+03  0.56002950580E+03  0.00000000000E+00 0.  1.
          1   -1    0    0  501    0  0.00000000000E+00 -0.00000000000E+00 -0.29603283702E+02  0.29603283702E+02  0.00000000000E+00 0. -1.
         25    2    1    2    0    0 -0.91346835618E+00 -0.28994994859E+02  0.45485425145E+03  0.47263279970E+03  0.12509128321E+03 0.  0.
         23    2    1    2    0    0  0.91346835618E+00  0.28994994859E+02  0.75571970646E+02  0.11699998981E+03  0.84476805787E+02 0.  0.
          5    1    3    3  502    0 -0.58612393877E+02 -0.35018063764E+02  0.28508067244E+03  0.29317254255E+03  0.41800000000E+01 0.  1.
         -5    1    3    3    0  502  0.57698925520E+02  0.60230689059E+01  0.16977357902E+03  0.17946025715E+03  0.41800000000E+01 0.  1.
        -11    1    4    4    0    0  0.15448183606E+02  0.89802472766E+01  0.87664302871E+02  0.89466872169E+02  0.00000000000E+00 0.  1.
         11    1    4    4    0    0 -0.14534715250E+02  0.20014747582E+02 -0.12092332225E+02  0.27533117637E+02  0.00000000000E+00 0. -1.
</event>
<event>
 8    1  0.3654190E-009  0.1048315E+03  0.7561462E-02  0.1270452E+00
          3   -1    0    0  501    0  0.00000000000E+00  0.00000000000E+00  0.36317751365E+02  0.36317751365E+02  0.00000000000E+00 0. -1.
         -3   -1    0    0    0  501 -0.00000000000E+00 -0.00000000000E+00 -0.35255863878E+03  0.35255863878E+03  0.00000000000E+00 0.  1.
         25    2    1    2    0    0 -0.66279942837E+01 -0.10915355860E+02 -0.12709568567E+03  0.17878466418E+03  0.12509023754E+03 0.  0.
         23    2    1    2    0    0  0.66279942837E+01  0.10915355860E+02 -0.18914520175E+03  0.21009172596E+03  0.90551370354E+02 0.  0.
          5    1    3    3  502    0 -0.10434496864E+02 -0.64555389167E+02 -0.96884044023E+02  0.11696267516E+03  0.41800000000E+01 0. -1.
         -5    1    3    3    0  502  0.38065025803E+01  0.53640033307E+02 -0.30211641644E+02  0.61821989016E+02  0.41800000000E+01 0. -1.
        -11    1    4    4    0    0  0.26773579753E+02 -0.32636729606E+02 -0.10594660006E+03  0.11404675689E+03  0.00000000000E+00 0.  1.
         11    1    4    4    0    0 -0.20145585470E+02  0.43552085466E+02 -0.83198601681E+02  0.96044969072E+02  0.00000000000E+00 0. -1.
</event>
<event>
 8    1  0.3654190E-009  0.3446310E+03  0.7561462E-02  0.1064840E+00
          1   -1    0    0  501    0  0.00000000000E+00  0.00000000000E+00  0.90396517047E+03  0.90396517047E+03  0.00000000000E+00 0. -1.
         -1   -1    0    0    0  501 -0.00000000000E+00 -0.00000000000E+00 -0.13630171763E+03  0.13630171763E+03  0.00000000000E+00 0.  1.
         25    2    1    2    0    0  0.12411358440E+03  0.30892709744E+03  0.35786886800E+03  0.50453616821E+03  0.12508591040E+03 0.  0.
         23    2    1    2    0    0 -0.12411358440E+03 -0.30892709744E+03  0.40979458484E+03  0.53573071989E+03  0.90750587372E+02 0.  0.
          5    1    3    3  502    0  0.66069751114E+02  0.27905559432E+03  0.26186646367E+03  0.38836677758E+03  0.41800000000E+01 0. -1.
         -5    1    3    3    0  502  0.58043833286E+02  0.29871503119E+02  0.96002404330E+02  0.11616939063E+03  0.41800000000E+01 0. -1.
        -11    1    4    4    0    0 -0.54480417352E+02 -0.73183433147E+02  0.63898134596E+02  0.11138627549E+03  0.00000000000E+00 0.  1.
         11    1    4    4    0    0 -0.69633167047E+02 -0.23574366429E+03  0.34589645024E+03  0.42434444441E+03  0.00000000000E+00 0. -1.
</event>
<event>
 8    1  0.3654190E-009  0.1614036E+03  0.7561462E-02  0.1187121E+00
         -2   -1    0    0    0  501 -0.00000000000E+00  0.00000000000E+00  0.34994083837E+02  0.34994083837E+02  0.00000000000E+00 0.  1.
          2   -1    0    0  501    0  0.00000000000E+00 -0.00000000000E+00 -0.11626214122E+04  0.11626214122E+04  0.00000000000E+00 0. -1.
         25    2    1    2    0    0 -0.61620110643E+01  0.15350786383E+03 -0.77455456572E+03  0.79949261267E+03  0.12510406787E+03 0.  0.
         23    2    1    2    0    0  0.61620110643E+01 -0.15350786383E+03 -0.35307276261E+03  0.39812288333E+03  0.10118705401E+03 0.  0.
          5    1    3    3  502    0 -0.36090948045E+02  0.73128105686E+02 -0.16694650519E+03  0.18584639993E+03  0.41800000000E+01 0.  1.
         -5    1    3    3    0  502  0.29928936981E+02  0.80379758141E+02 -0.60760806054E+03  0.61364621274E+03  0.41800000000E+01 0.  1.
        -11    1    4    4    0    0  0.14620032146E+02 -0.10872348224E+03 -0.32852354052E+03  0.34635568078E+03  0.00000000000E+00 0. -1.
         11    1    4    4    0    0 -0.84580210818E+01 -0.44784381589E+02 -0.24549222081E+02  0.51767202549E+02  0.00000000000E+00 0.  1.
</event>
<event>
 8    1  0.3654190E-009  0.1217650E+03  0.7561462E-02  0.1240213E+00
          3   -1    0    0  501    0  0.00000000000E+00  0.00000000000E+00  0.31755608611E+02  0.31755608611E+02  0.00000000000E+00 0. -1.
         -3   -1    0    0    0  501 -0.00000000000E+00 -0.00000000000E+00 -0.58272263416E+03  0.58272263416E+03  0.00000000000E+00 0.  1.
         25    2    1    2    0    0  0.75422420433E+02  0.29250337408E+02 -0.27388152837E+03  0.31177385320E+03  0.12509084784E+03 0.  0.
         23    2    1    2    0    0 -0.75422420433E+02 -0.29250337408E+02 -0.27708549718E+03  0.30270438957E+03  0.91156190012E+02 0.  0.
          5    1    3    3  502    0  0.95054955031E+02  0.51661201363E+02 -0.25288292070E+03  0.27508465640E+03  0.41800000000E+01 0. -1.
         -5    1    3    3    0  502 -0.19632534598E+02 -0.22410863955E+02 -0.20998607668E+02  0.36689196801E+02  0.41800000000E+01 0. -1.
        -11    1    4    4    0    0 -0.65813585611E+02  0.83746609185E+01 -0.91038861025E+02  0.11264828988E+03  0.00000000000E+00 0. -1.
         11    1    4    4    0    0 -0.96088348216E+01 -0.37624998327E+02 -0.18604663616E+03  0.19005609969E+03  0.00000000000E+00 0.  1.
</event>
<event>
 8    1  0.3654190E-009  0.5771634E+02  0.7561462E-02  0.1407673E+00
         -2   -1    0    0    0  501 -0.00000000000E+00  0.00000000000E+00  0.57942732443E+02  0.57942732443E+02  0.00000000000E+00 0.  1.
          2   -1    0    0  501    0  0.00000000000E+00 -0.00000000000E+00 -0.22303776278E+03  0.22303776278E+03  0.00000000000E+00 0. -1.
         25    2    1    2    0    0  0.62479979317E+01 -0.24423086654E+02 -0.12023866669E+03  0.17532683086E+03  0.12508651410E+03 0.  0.
         23    2    1    2    0    0 -0.62479979317E+01  0.24423086654E+02 -0.44856363642E+02  0.10565366436E+03  0.92277184583E+02 0.  0.
          5    1    3    3  502    0 -0.32663083956E+02  0.77303429410E+01  0.10257669908E+02  0.35345826450E+02  0.41800000000E+01 0. -1.
         -5    1    3    3    0  502  0.38911081887E+02 -0.32153429595E+02 -0.13049633660E+03  0.13998100441E+03  0.41800000000E+01 0. -1.
        -11    1    4    4    0    0  0.62556669474E+01  0.10689663989E+02 -0.71837867921E+02  0.72897747240E+02  0.00000000000E+00 0. -1.
         11    1    4    4    0    0 -0.12503664879E+02  0.13733422666E+02  0.26981504279E+02  0.32755917125E+02  0.00000000000E+00 0.  1.
</event>
<event>
 8    1  0.3654190E-009  0.1381980E+03  0.7561462E-02  0.1215774E+00
         -2   -1    0    0    0  501 -0.00000000000E+00  0.00000000000E+00  0.36438455046E+02  0.36438455046E+02  0.00000000000E+00 0. -1.
          2   -1    0    0  501    0  0.00000000000E+00 -0.00000000000E+00 -0.68039130550E+03  0.68039130550E+03  0.00000000000E+00 0.  1.
         25    2    1    2    0    0  0.11054490513E+03  0.48706803488E+01 -0.29205628448E+03  0.33643389625E+03  0.12508794373E+03 0.  0.
         23    2    1    2    0    0 -0.11054490513E+03 -0.48706803488E+01 -0.35189656598E+03  0.38039586430E+03  0.92875835663E+02 0.  0.
          5    1    3    3  502    0  0.41347949757E+02  0.40508613247E+02 -0.34892779251E+02  0.67716904390E+02  0.41800000000E+01 0. -1.
         -5    1    3    3    0  502  0.69196955371E+02 -0.35637932898E+02 -0.25716350523E+03  0.26871699186E+03  0.41800000000E+01 0. -1.
        -11    1    4    4    0    0 -0.80512582461E+02 -0.43477163006E+02 -0.26909872784E+03  0.28422995085E+03  0.00000000000E+00 0.  1.
         11    1    4    4    0    0 -0.30032322667E+02  0.38606482657E+02 -0.82797838144E+02  0.96165913448E+02  0.00000000000E+00 0. -1.
</event>
<event>
 8    1  0.3654190E-009  0.2101174E+03  0.7561462E-02  0.1141473E+00
          1   -1    0    0  501    0  0.00000000000E+00  0.00000000000E+00  0.38144937433E+03  0.38144937433E+03  0.00000000000E+00 0. -1.
         -1   -1    0    0    0  501 -0.00000000000E+00 -0.00000000000E+00 -0.15737402834E+03  0.15737402834E+03  0.00000000000E+00 0.  1.
         25    2    1    2    0    0 -0.59950972069E+02  0.19509321736E+03  0.20331314449E+03  0.31406879870E+03  0.12508993998E+03 0.  0.
         23    2    1    2    0    0  0.59950972069E+02 -0.19509321736E+03  0.20762201499E+02  0.22475460397E+03  0.91804577672E+02 0.  0.
          5    1    3    3  502    0 -0.18084943719E+02  0.10413299788E+02  0.91872372258E+02  0.94305393197E+02  0.41800000000E+01 0. -1.
         -5    1    3    3    0  502 -0.41866028350E+02  0.18467991757E+03  0.11144077223E+03  0.21976340550E+03  0.41800000000E+01 0. -1.
        -11    1    4    4    0    0  0.80891005393E+01 -0.10706408793E+03 -0.28847264653E+02  0.11117696322E+03  0.00000000000E+00 0.  1.
         11    1    4    4    0    0  0.51861871530E+02 -0.88029129428E+02  0.49609466152E+02  0.11357764075E+03  0.00000000000E+00 0. -1.
</event>
<event>
 8    1  0.3654190E-009  0.1201400E+03  0.7561462E-02  0.1242866E+00
          1   -1    0    0  501    0  0.00000000000E+00  0.00000000000E+00  0.49372129453E+02  0.49372129453E+02  0.00000000000E+00 0. -1.
         -1   -1    0    0    0  501 -0.00000000000E+00 -0.00000000000E+00 -0.89453328561E+03  0.89453328561E+03  0.00000000000E+00 0.  1.
         25    2    1    2    0    0 -0.81401084795E+02 -0.45069911177E+02 -0.78505869748E+03  0.80038816818E+03  0.12508648112E+03 0.  0.
         23    2    1    2    0    0  0.81401084795E+02  0.45069911177E+02 -0.60102458669E+02  0.14351724688E+03  0.91254923788E+02 0.  0.
          5    1    3    3  502    0 -0.93468723219E+02 -0.23368118694E+02 -0.30979419933E+03  0.32445706885E+03  0.41800000000E+01 0. -1.
         -5    1    3    3    0  502  0.12067638425E+02 -0.21701792483E+02 -0.47526449816E+03  0.47593109932E+03  0.41800000000E+01 0. -1.
        -11    1    4    4    0    0  0.38181718122E+02 -0.17995121553E+02  0.57669950368E+01  0.42601951014E+02  0.00000000000E+00 0. -1.
         11    1    4    4    0    0  0.43219366673E+02  0.63065032730E+02 -0.65869453705E+02  0.10091529587E+03  0.00000000000E+00 0.  1.
</event>
<event>
 8    1  0.3654190E-009  0.1032386E+03  0.7561462E-02  0.1273629E+00
         -2   -1    0    0    0  501 -0.00000000000E+00  0.00000000000E+00  0.69767787256E+02  0.69767787256E+02  0.00000000000E+00 0.  1.
          2   -1    0    0  501    0  0.00000000000E+00 -0.00000000000E+00 -0.25506375232E+03  0.25506375232E+03  0.00000000000E+00 0. -1.
         25    2    1    2    0    0 -0.45497305336E+01  0.77305029933E+02 -0.89685960890E+02  0.17230030102E+03  0.12508818669E+03 0.  0.
         23    2    1    2    0    0  0.45497305336E+01 -0.77305029933E+02 -0.95610004170E+02  0.15253123855E+03  0.90153969057E+02 0.  0.
          5    1    3    3  502    0 -0.18502370478E+02  0.68979584052E+02  0.90849540915E+01  0.72114696977E+02  0.41800000000E+01 0.  1.
         -5    1    3    3    0  502  0.13952639944E+02  0.83254458809E+01 -0.98770914981E+02  0.10018560404E+03  0.41800000000E+01 0.  1.
        -11    1    4    4    0    0  0.22673181411E+02 -0.92046931094E+02 -0.69832915573E+02  0.11774271432E+03  0.00000000000E+00 0.  1.
         11    1    4    4    0    0 -0.18123450878E+02  0.14741901161E+02 -0.25777088597E+02  0.34788524230E+02  0.00000000000E+00 0. -1.
</event>
<event>
 8    1  0.3654190E-009  0.1032019E+03  0.7561462E-02  0.1273703E+00
          2   -1    0    0  501    0  0.00000000000E+00  0.00000000000E+00  0.46912465087E+03  0.46912465087E+03  0.00000000000E+00 0. -1.
         -2   -1    0    0    0  501 -0.00000000000E+00 -0.00000000000E+00 -0.37626583103E+02  0.37626583103E+02  0.00000000000E+00 0.  1.
         25    2    1    2    0    0 -0.42102334148E+02 -0.62335899626E+02  0.23322651366E+03  0.27513871335E+03  0.12509330114E+03 0.  0.
         23    2    1    2    0    0  0.42102334148E+02  0.62335899626E+02  0.19827155412E+03  0.23161252063E+03  0.93136349601E+02 0.  0.
          5    1    3    3  502    0  0.10806367159E+02 -0.74278506600E+02  0.68654933610E+02  0.10180887202E+03  0.41800000000E+01 0.  1.
         -5    1    3    3    0  502 -0.52908701307E+02  0.11942606974E+02  0.16457158004E+03  0.17332984132E+03  0.41800000000E+01 0.  1.
        -11    1    4    4    0    0  0.29446458214E+02  0.54485447882E+02  0.20580543949E+03  0.21492239729E+03  0.00000000000E+00 0. -1.
         11    1    4    4    0    0  0.12655875934E+02  0.78504517436E+01 -0.75338853747E+01  0.16690123339E+02  0.00000000000E+00 0.  1.
</event>
<event>
 8    1  0.3654190E-009  0.3702769E+03  0.7561462E-02  0.1054587E+00
         -1   -1    0    0    0  501 -0.00000000000E+00  0.00000000000E+00  0.38092689119E+03  0.38092689119E+03  0.00000000000E+00 0.  1.
          1   -1    0    0  501    0  0.00000000000E+00 -0.00000000000E+00 -0.41925427858E+03  0.41925427858E+03  0.00000000000E+00 0. -1.
         25    2    1    2    0    0 -0.34800406652E+03  0.84135777742E+02  0.11972131282E+03  0.39770264135E+03  0.12509411971E+03 0.  0.
         23    2    1    2    0    0  0.34800406652E+03 -0.84135777742E+02 -0.15804870021E+03  0.40247852841E+03  0.93935694953E+02 0.  0.
          5    1    3    3  502    0  0.38633798342E+01  0.93620059861E+01  0.22535072022E+02  0.25057428656E+02  0.41800000000E+01 0.  1.
         -5    1    3    3    0  502 -0.35186744635E+03  0.74773771756E+02  0.97186240798E+02  0.37264521270E+03  0.41800000000E+01 0.  1.
        -11    1    4    4    0    0  0.17269513349E+03 -0.89394177233E+02 -0.75007851927E+02  0.20842530054E+03  0.00000000000E+00 0.  1.
         11    1    4    4    0    0  0.17530893303E+03  0.52583994909E+01 -0.83040848282E+02  0.19405322787E+03  0.00000000000E+00 0. -1.
</event>
<event>
 8    1  0.3654190E-009  0.1395652E+03  0.7561462E-02  0.1213915E+00
         -2   -1    0    0    0  501 -0.00000000000E+00  0.00000000000E+00  0.93900715338E+03  0.93900715338E+03  0.00000000000E+00 0.  1.
          2   -1    0    0  501    0  0.00000000000E+00 -0.00000000000E+00 -0.32661438919E+02  0.32661438919E+02  0.00000000000E+00 0. -1.
         25    2    1    2    0    0  0.28271054255E+02 -0.11248776571E+03  0.68329476273E+03  0.70426594859E+03  0.12508414615E+03 0.  0.
         23    2    1    2    0    0 -0.28271054255E+02  0.11248776571E+03  0.22305095173E+03  0.26740264371E+03  0.91102672045E+02 0.  0.
          5    1    3    3  502    0  0.51018020551E+02 -0.80380430885E+02  0.63367346275E+03  0.64079901832E+03  0.41800000000E+01 0. -1.
         -5    1    3    3    0  502 -0.22746966296E+02 -0.32107334826E+02  0.49621299988E+02  0.63466930269E+02  0.41800000000E+01 0. -1.
        -11    1    4    4    0    0 -0.52282095181E+01  0.11993444233E+03  0.16127866876E+03  0.20105326068E+03  0.00000000000E+00 0. -1.
         11    1    4    4    0    0 -0.23042844736E+02 -0.74466766174E+01  0.61772282964E+02  0.66349383033E+02  0.00000000000E+00 0.  1.
</event>
<event>
 8    1  0.3654190E-009  0.1000624E+03  0.7561462E-02  0.1280165E+00
         -1   -1    0    0    0  501 -0.00000000000E+00  0.00000000000E+00  0.23091761491E+02  0.23091761491E+02  0.00000000000E+00 0.  1.
          1   -1    0    0  501    0  0.00000000000E+00 -0.00000000000E+00 -0.57110272673E+03  0.57110272673E+03  0.00000000000E+00 0. -1.
         25    2    1    2    0    0 -0.48701916738E+01  0.56371526783E+01 -0.40399365557E+03  0.42298217946E+03  0.12509018403E+03 0.  0.
         23    2    1    2    0    0  0.48701916738E+01 -0.56371526783E+01 -0.14401730967E+03  0.17121230876E+03  0.92288530870E+02 0.  0.
          5    1    3    3  502    0 -0.22756167483E+02 -0.48748812044E+02 -0.29399374736E+03  0.29890481047E+03  0.41800000000E+01 0.  1.
         -5    1    3    3    0  502  0.17885975809E+02  0.54385964722E+02 -0.10999990821E+03  0.12407736899E+03  0.41800000000E+01 0.  1.
        -11    1    4    4    0    0  0.81399233812E+01 -0.46782333036E+02 -0.52331065887E+02  0.70663891018E+02  0.00000000000E+00 0.  1.
         11    1    4    4    0    0 -0.32697317074E+01  0.41145180357E+02 -0.91686243780E+02  0.10054841774E+03  0.00000000000E+00 0. -1.
</event>
<event>
 8    1  0.3654190E-009  0.8412617E+02  0.7561462E-02  0.1317734E+00
          1   -1    0    0  501    0  0.00000000000E+00  0.00000000000E+00  0.11576461885E+03  0.11576461885E+03  0.00000000000E+00 0. -1.
         -1   -1    0    0    0  501 -0.00000000000E+00 -0.00000000000E+00 -0.10425559445E+03  0.10425559445E+03  0.00000000000E+00 0.  1.
         25    2    1    2    0    0 -0.15162183578E+02  0.11440041875E+02  0.51275704137E+01  0.12662366365E+03  0.12508594585E+03 0.  0.
         23    2    1    2    0    0  0.15162183578E+02 -0.11440041875E+02  0.63814539893E+01  0.93396549647E+02  0.91221851340E+02 0.  0.
          5    1    3    3  502    0  0.11884309947E+02  0.36757934054E+02  0.53142983136E+02  0.65833362328E+02  0.41800000000E+01 0. -1.
         -5    1    3    3    0  502 -0.27046493525E+02 -0.25317892179E+02 -0.48015412722E+02  0.60790301325E+02  0.41800000000E+01 0. -1.
        -11    1    4    4    0    0  0.38763221587E+02 -0.39570610234E+02 -0.30753354296E+01  0.55478628589E+02  0.00000000000E+00 0. -1.
         11    1    4    4    0    0 -0.23601038009E+02  0.28130568358E+02  0.94567894188E+01  0.37917921058E+02  0.00000000000E+00 0.  1.
</event>
<event>
 8    1  0.3654190E-009  0.3635105E+03  0.7561462E-02  0.1057202E+00
          1   -1    0    0  501    0  0.00000000000E+00  0.00000000000E+00  0.21008037791E+04  0.21008037791E+04  0.00000000000E+00 0. -1.
         -1   -1    0    0    0  501 -0.00000000000E+00 -0.00000000000E+00 -0.81867317234E+02  0.81867317234E+02  0.00000000000E+00 0.  1.
         25    2    1    2    0    0  0.35028777294E+03 -0.14151257510E+02  0.15306442926E+04  0.15752525721E+04  0.12508770318E+03 0.  0.
         23    2    1    2    0    0 -0.35028777294E+03  0.14151257510E+02  0.48829216926E+03  0.60741852422E+03  0.87328340485E+02 0.  0.
          5    1    3    3  502    0  0.24785859762E+03 -0.66468438167E+02  0.10929250093E+04  0.11226551055E+04  0.41800000000E+01 0.  1.
         -5    1    3    3    0  502  0.10242917532E+03  0.52317180657E+02  0.43771928330E+03  0.45259746654E+03  0.41800000000E+01 0.  1.
        -11    1    4    4    0    0 -0.19099249947E+03  0.36419685273E+02  0.32138764585E+03  0.37562554125E+03  0.00000000000E+00 0. -1.
         11    1    4    4    0    0 -0.15929527347E+03 -0.22268427763E+02  0.16690452340E+03  0.23179298298E+03  0.00000000000E+00 0.  1.
</event>
<event>
 8    1  0.3654190E-009  0.1404345E+03  0.7561462E-02  0.1212746E+00
         -2   -1    0    0    0  501 -0.00000000000E+00  0.00000000000E+00  0.85703864017E+02  0.85703864017E+02  0.00000000000E+00 0.  1.
          2   -1    0    0  501    0  0.00000000000E+00 -0.00000000000E+00 -0.39275979569E+03  0.39275979569E+03  0.00000000000E+00 0. -1.
         25    2    1    2    0    0 -0.29519444970E+02 -0.10602024079E+03 -0.32876753777E+02  0.16982643358E+03  0.12509375490E+03 0.  0.
         23    2    1    2    0    0  0.29519444970E+02  0.10602024079E+03 -0.27417917789E+03  0.30863722612E+03  0.89280606350E+02 0.  0.
          5    1    3    3  502    0 -0.47687015557E+02 -0.21250544968E+02 -0.59281274792E+02  0.79103596980E+02  0.41800000000E+01 0. -1.
         -5    1    3    3    0  502  0.18167570587E+02 -0.84769695823E+02  0.26404521015E+02  0.90722836601E+02  0.41800000000E+01 0. -1.
        -11    1    4    4    0    0  0.60887155462E+02  0.56398744416E+02 -0.16276452821E+03  0.18270291655E+03  0.00000000000E+00 0. -1.
         11    1    4    4    0    0 -0.31367710492E+02  0.49621496375E+02 -0.11141464968E+03  0.12593430958E+03  0.00000000000E+00 0.  1.
</event>
<event>
 8    1  0.3654190E-009  0.1016802E+03  0.7561462E-02  0.1276802E+00
          1   -1    0    0  501    0  0.00000000000E+00  0.00000000000E+00  0.85269817582E+02  0.85269817582E+02  0.00000000000E+00 0. -1.
         -1   -1    0    0    0  501 -0.00000000000E+00 -0.00000000000E+00 -0.22033076042E+03  0.22033076042E+03  0.00000000000E+00 0.  1.
         25    2    1    2    0    0  0.66379649640E+02  0.33248007944E+02 -0.12330648428E+03  0.19068118972E+03  0.12507253548E+03 0.  0.
         23    2    1    2    0    0 -0.66379649640E+02 -0.33248007944E+02 -0.11754458557E+02  0.11491938828E+03  0.86928767319E+02 0.  0.
          5    1    3    3  502    0  0.51584859562E+02 -0.29907588460E+02 -0.10871438436E+03  0.12406349725E+03  0.41800000000E+01 0. -1.
         -5    1    3    3    0  502  0.14794790078E+02  0.63155596404E+02 -0.14592099924E+02  0.66617692475E+02  0.41800000000E+01 0. -1.
        -11    1    4    4    0    0 -0.28950507305E+02 -0.28898563245E+02  0.35721491405E+02  0.54307308707E+02  0.00000000000E+00 0. -1.
         11    1    4    4    0    0 -0.37429142335E+02 -0.43494446987E+01 -0.47475949962E+02  0.60612079571E+02  0.00000000000E+00 0.  1.
</event>
<event>
 8    1  0.3654190E-009  0.1508597E+03  0.7561462E-02  0.1199421E+00
         -1   -1    0    0    0  501 -0.00000000000E+00  0.00000000000E+00  0.71413207918E+03  0.71413207918E+03  0.00000000000E+00 0.  1.
          1   -1    0    0  501    0  0.00000000000E+00 -0.00000000000E+00 -0.34869152483E+02  0.34869152483E+02  0.00000000000E+00 0. -1.
         25    2    1    2    0    0 -0.44620454261E+02 -0.10552474676E+03  0.32741737633E+03  0.36875001664E+03  0.12509188357E+03 0.  0.
         23    2    1    2    0    0  0.44620454261E+02  0.10552474676E+03  0.35184555036E+03  0.38025121501E+03  0.87574186221E+02 0.  0.
          5    1    3    3  502    0 -0.86015884416E+02 -0.81624891486E+02  0.19935678143E+03  0.23199559044E+03  0.41800000000E+01 0. -1.
         -5    1    3    3    0  502  0.41395430155E+02 -0.23899855276E+02  0.12806059490E+03  0.13675442621E+03  0.41800000000E+01 0. -1.
        -11    1    4    4    0    0 -0.18222959442E+02  0.41723846859E+02  0.18899074475E+03  0.19439767810E+03  0.00000000000E+00 0.  1.
         11    1    4    4    0    0  0.62843413703E+02  0.63800899903E+02  0.16285480561E+03  0.18585353692E+03  0.00000000000E+00 0. -1.
</event>
<event>
 8    1  0.3654190E-009  0.9352244E+02  0.7561462E-02  0.1294539E+00
         -1   -1    0    0    0  501 -0.00000000000E+00  0.00000000000E+00  0.71426720482E+02  0.71426720482E+02  0.00000000000E+00 0.  1.
          1   -1    0    0  501    0  0.00000000000E+00 -0.00000000000E+00 -0.18233485635E+03  0.18233485635E+03  0.00000000000E+00 0. -1.
         25    2    1    2    0    0 -0.12621925198E+01 -0.29866368227E+02 -0.83494675937E+02  0.15333641271E+03  0.12508837465E+03 0.  0.
         23    2    1    2    0    0  0.12621925198E+01  0.29866368227E+02 -0.27413459929E+02  0.10042516412E+03  0.91870140537E+02 0.  0.
          5    1    3    3  502    0 -0.13711225694E+02  0.45505037602E+02 -0.52084680891E+02  0.70632800742E+02  0.41800000000E+01 0. -1.
         -5    1    3    3    0  502  0.12449033174E+02 -0.75371405829E+02 -0.31409995046E+02  0.82703611967E+02  0.41800000000E+01 0. -1.
        -11    1    4    4    0    0  0.27240092795E+02  0.23751605693E+02  0.23382323883E+02  0.43045261048E+02  0.00000000000E+00 0.  1.
         11    1    4    4    0    0 -0.25977900275E+02  0.61147625339E+01 -0.50795783812E+02  0.57379903073E+02  0.00000000000E+00 0. -1.
</event>
<event>
 8    1  0.3654190E-009  0.6504375E+02  0.7561462E-02  0.1377807E+00
          2   -1    0    0  501    0  0.00000000000E+00  0.00000000000E+00  0.23891253339E+03  0.23891253339E+03  0.00000000000E+00 0. -1.
         -2   -1    0    0    0  501 -0.00000000000E+00 -0.00000000000E+00 -0.58091326007E+02  0.58091326007E+02  0.00000000000E+00 0.  1.
         25    2    1    2    0    0  0.13854234957E+02 -0.41483082625E+02  0.87035691691E+02  0.15853496845E+03  0.12508132804E+03 0.  0.
         23    2    1    2    0    0 -0.13854234957E+02  0.41483082625E+02  0.93785515687E+02  0.13846889094E+03  0.92006113030E+02 0.  0.
          5    1    3    3  502    0 -0.13407064933E+02 -0.48908228281E+01  0.10737639957E+03  0.10840125978E+03  0.41800000000E+01 0.  1.
         -5    1    3    3    0  502  0.27261299890E+02 -0.36592259796E+02 -0.20340707874E+02  0.50133708675E+02  0.41800000000E+01 0.  1.
        -11    1    4    4    0    0 -0.29931316547E+02  0.61226764877E+01  0.94810954275E+02  0.99611685701E+02  0.00000000000E+00 0. -1.
         11    1    4    4    0    0  0.16077081590E+02  0.35360406137E+02 -0.10254385883E+01  0.38857205238E+02  0.00000000000E+00 0.  1.
</event>
<event>
 8    1  0.3654190E-009  0.1277462E+03  0.7561462E-02  0.1230839E+00
         -1   -1    0    0    0  501 -0.00000000000E+00  0.00000000000E+00  0.96854337561E+02  0.96854337561E+02  0.00000000000E+00 0.  1.
          1   -1    0    0  501    0  0.00000000000E+00 -0.00000000000E+00 -0.25861401466E+03  0.25861401466E+03  0.00000000000E+00 0. -1.
         25    2    1    2    0    0  0.10906764735E+03  0.23953446446E+02 -0.12078983732E+03  0.20665794670E+03  0.12509117810E+03 0.  0.
         23    2    1    2    0    0 -0.10906764735E+03 -0.23953446446E+02 -0.40969839775E+02  0.14881040552E+03  0.89423093911E+02 0.  0.
          5    1    3    3  502    0  0.74054099861E+02  0.27077457607E+02  0.18799959743E+01  0.78982309421E+02  0.41800000000E+01 0. -1.
         -5    1    3    3    0  502  0.35013547489E+02 -0.31240111608E+01 -0.12266983330E+03  0.12767563728E+03  0.41800000000E+01 0. -1.
        -11    1    4    4    0    0 -0.25157256427E+02 -0.47698996737E+02 -0.27622061512E+02  0.60589273991E+02  0.00000000000E+00 0.  1.
         11    1    4    4    0    0 -0.83910390923E+02  0.23745550291E+02 -0.13347778263E+02  0.88221131528E+02  0.00000000000E+00 0. -1.
</event>
<event>
 8    1  0.3654190E-009  0.7245549E+02  0.7561462E-02  0.1351937E+00
          2   -1    0    0  501    0  0.00000000000E+00  0.00000000000E+00  0.10553325154E+03  0.10553325154E+03  0.00000000000E+00 0.  1.
         -2   -1    0    0    0  501 -0.00000000000E+00 -0.00000000000E+00 -0.16007866617E+03  0.16007866617E+03  0.00000000000E+00 0. -1.
         25    2    1    2    0    0 -0.33561877256E+02  0.28206052635E+02 -0.86820617087E+02  0.15846025776E+03  0.12509937142E+03 0.  0.
         23    2    1    2    0    0  0.33561877256E+02 -0.28206052635E+02  0.32275202455E+02  0.10715165994E+03  0.92291974322E+02 0.  0.
          5    1    3    3  502    0  0.39923163161E+01  0.24297302627E+02 -0.11077167304E+03  0.11355233794E+03  0.41800000000E+01 0. -1.
         -5    1    3    3    0  502 -0.37554193572E+02  0.39087500079E+01  0.23951055951E+02  0.44907919821E+02  0.41800000000E+01 0. -1.
        -11    1    4    4    0    0 -0.21242985299E+02 -0.13623216569E+02 -0.18293152779E+02  0.31168828863E+02  0.00000000000E+00 0. -1.
         11    1    4    4    0    0  0.54804862555E+02 -0.14582836066E+02  0.50568355234E+02  0.75982831077E+02  0.00000000000E+00 0.  1.
</event>
<event>
 8    1  0.3654190E-009  0.1514965E+03  0.7561462E-02  0.1198646E+00
         -2   -1    0    0    0  501 -0.00000000000E+00  0.00000000000E+00  0.31972321933E+02  0.31972321933E+02  0.00000000000E+00 0.  1.
          2   -1    0    0  501    0  0.00000000000E+00 -0.00000000000E+00 -0.75238769197E+03  0.75238769197E+03  0.00000000000E+00 0. -1.
         25    2    1    2    0    0  0.40864329550E+02 -0.10143055293E+03 -0.44210388102E+03  0.47229343864E+03  0.12508876877E+03 0.  0.
         23    2    1    2    0    0 -0.40864329550E+02  0.10143055293E+03 -0.27831148901E+03  0.31206657526E+03  0.89276043706E+02 0.  0.
          5    1    3    3  502    0 -0.41459579610E+02 -0.20209592522E+02 -0.17844442798E+03  0.18435620589E+03  0.41800000000E+01 0. -1.
         -5    1    3    3    0  502  0.82323909160E+02 -0.81220960410E+02 -0.26365945304E+03  0.28793723275E+03  0.41800000000E+01 0. -1.
        -11    1    4    4    0    0 -0.32000823332E+02 -0.65091834453E+01 -0.71851539529E+02  0.78924431551E+02  0.00000000000E+00 0. -1.
         11    1    4    4    0    0 -0.88635062185E+01  0.10793973638E+03 -0.20645994949E+03  0.23314214371E+03  0.00000000000E+00 0.  1.
</event>
<event>
 8    1  0.3654190E-009  0.1256009E+03  0.7561462E-02  0.1234133E+00
         -2   -1    0    0    0  501 -0.00000000000E+00  0.00000000000E+00  0.83046165767E+02  0.83046165767E+02  0.00000000000E+00 0.  1.
          2   -1    0    0  501    0  0.00000000000E+00 -0.00000000000E+00 -0.21677860543E+03  0.21677860543E+03  0.00000000000E+00 0. -1.
         25    2    1    2    0    0 -0.62921426079E+02  0.42635255026E+02 -0.49948567582E+02  0.15465974493E+03  0.12509159231E+03 0.  0.
         23    2    1    2    0    0  0.62921426079E+02 -0.42635255026E+02 -0.83783872079E+02  0.14516502627E+03  0.90974044646E+02 0.  0.
          5    1    3    3  502    0 -0.34413705408E+02 -0.43439521625E+02 -0.17548768865E+02  0.58281445140E+02  0.41800000000E+01 0.  1.
         -5    1    3    3    0  502 -0.28507720671E+02  0.86074776652E+02 -0.32399798718E+02  0.96378299790E+02  0.41800000000E+01 0.  1.
        -11    1    4    4    0    0 -0.16274768888E+02 -0.10621209013E+02  0.68634590382E+01  0.20610319096E+02  0.00000000000E+00 0.  1.
         11    1    4    4    0    0  0.79196194967E+02 -0.32014046013E+02 -0.90647331117E+02  0.12455470717E+03  0.00000000000E+00 0. -1.
</event>
<event>
 8    1  0.3654190E-009  0.1612817E+03  0.7561462E-02  0.1187257E+00
         -3   -1    0    0    0  501 -0.00000000000E+00  0.00000000000E+00  0.36018824437E+03  0.36018824437E+03  0.00000000000E+00 0.  1.
          3   -1    0    0  501    0  0.00000000000E+00 -0.00000000000E+00 -0.10735651490E+03  0.10735651490E+03  0.00000000000E+00 0. -1.
         25    2    1    2    0    0  0.66354804025E+02  0.13783628832E+03  0.19988523339E+03  0.28107517593E+03  0.12508935048E+03 0.  0.
         23    2    1    2    0    0 -0.66354804025E+02 -0.13783628832E+03  0.52946496087E+02  0.18646958334E+03  0.92551454158E+02 0.  0.
          5    1    3    3  502    0  0.16721737895E+02  0.75190699411E+02  0.13607372234E+02  0.78331926922E+02  0.41800000000E+01 0. -1.
         -5    1    3    3    0  502  0.49633066130E+02  0.62645588908E+02  0.18627786115E+03  0.20274324901E+03  0.41800000000E+01 0. -1.
        -11    1    4    4    0    0 -0.40249534791E+01 -0.80803145461E+02  0.61397110067E+02  0.10156256048E+03  0.00000000000E+00 0.  1.
         11    1    4    4    0    0 -0.62329850546E+02 -0.57033142858E+02 -0.84506139804E+01  0.84907022855E+02  0.00000000000E+00 0. -1.
</event>
<event>
 8    1  0.3654190E-009  0.3628749E+02  0.7561462E-02  0.1537456E+00
          1   -1    0    0  501    0  0.00000000000E+00  0.00000000000E+00  0.59759676023E+03  0.59759676023E+03  0.00000000000E+00 0. -1.
         -1   -1    0    0    0  501 -0.00000000000E+00 -0.00000000000E+00 -0.20975680560E+02  0.20975680560E+02  0.00000000000E+00 0.  1.
         25    2    1    2    0    0 -0.11654318656E+02  0.14870475320E+02  0.39833826011E+03  0.41794485435E+03  0.12509027792E+03 0.  0.
         23    2    1    2    0    0  0.11654318656E+02 -0.14870475320E+02  0.17828281956E+03  0.20062758644E+03  0.90053931122E+02 0.  0.
          5    1    3    3  502    0 -0.11100867253E+02  0.28595470382E+01  0.40387790576E+03  0.40406217520E+03  0.41800000000E+01 0.  1.
         -5    1    3    3    0  502 -0.55345140261E+00  0.12010928282E+02 -0.55396456479E+01  0.13882679156E+02  0.41800000000E+01 0.  1.
        -11    1    4    4    0    0 -0.15266081163E+02  0.26914609614E+01 -0.36102770124E+01  0.15916384523E+02  0.00000000000E+00 0.  1.
         11    1    4    4    0    0  0.26920399819E+02 -0.17561936282E+02  0.18189309658E+03  0.18471120192E+03  0.00000000000E+00 0. -1.
</event>
<event>
 8    1  0.3654190E-009  0.9618625E+02  0.7561462E-02  0.1288526E+00
         -4   -1    0    0    0  501 -0.00000000000E+00  0.00000000000E+00  0.34983036322E+03  0.34983036322E+03  0.00000000000E+00 0.  1.
          4   -1    0    0  501    0  0.00000000000E+00 -0.00000000000E+00 -0.51977439591E+02  0.51977439591E+02  0.00000000000E+00 0. -1.
         25    2    1    2    0    0 -0.71159057861E+02  0.72366708283E+01  0.21763053059E+03  0.26101072324E+03  0.12509024296E+03 0.  0.
         23    2    1    2    0    0  0.71159057861E+02 -0.72366708283E+01  0.80222393045E+02  0.14079707957E+03  0.90951659414E+02 0.  0.
          5    1    3    3  502    0 -0.16245210997E+01 -0.37195301112E+02  0.11900731343E+02  0.39309404729E+02  0.41800000000E+01 0.  1.
         -5    1    3    3    0  502 -0.69534536761E+02  0.44431971941E+02  0.20572979924E+03  0.22170131851E+03  0.41800000000E+01 0.  1.
        -11    1    4    4    0    0  0.39871809302E+02  0.11626657506E+01 -0.13121571885E+02  0.41991530305E+02  0.00000000000E+00 0. -1.
         11    1    4    4    0    0  0.31287248559E+02 -0.83993365789E+01  0.93343964930E+02  0.98805549268E+02  0.00000000000E+00 0.  1.
</event>
<event>
 8    1  0.3654190E-009  0.1084685E+03  0.7561462E-02  0.1263432E+00
          2   -1    0    0  501    0  0.00000000000E+00  0.00000000000E+00  0.60601495053E+03  0.60601495053E+03  0.00000000000E+00 0.  1.
         -2   -1    0    0    0  501 -0.00000000000E+00 -0.00000000000E+00 -0.20913354079E+02  0.20913354079E+02  0.00000000000E+00 0. -1.
         25    2    1    2    0    0 -0.23715621068E+02 -0.13288557162E+02  0.34916593122E+03  0.37189153972E+03  0.12508978118E+03 0.  0.
         23    2    1    2    0    0  0.23715621068E+02  0.13288557162E+02  0.23593566523E+03  0.25503676489E+03  0.92946742191E+02 0.  0.
          5    1    3    3  502    0 -0.11280389495E+01  0.53834234849E+02  0.19207490144E+03  0.19952352613E+03  0.41800000000E+01 0.  1.
         -5    1    3    3    0  502 -0.22587582118E+02 -0.67122792011E+02  0.15709102978E+03  0.17236801360E+03  0.41800000000E+01 0.  1.
        -11    1    4    4    0    0  0.40763357105E+02  0.42040648335E+02  0.18555595712E+03  0.19457667028E+03  0.00000000000E+00 0.  1.
         11    1    4    4    0    0 -0.17047736038E+02 -0.28752091173E+02  0.50379708106E+02  0.60460094605E+02  0.00000000000E+00 0. -1.
</event>
<event>
 8    1  0.3654190E-009  0.6940200E+02  0.7561462E-02  0.1362138E+00
          2   -1    0    0  501    0  0.00000000000E+00  0.00000000000E+00  0.15586428946E+03  0.15586428946E+03  0.00000000000E+00 0. -1.
         -2   -1    0    0    0  501 -0.00000000000E+00 -0.00000000000E+00 -0.12071726587E+03  0.12071726587E+03  0.00000000000E+00 0.  1.
         25    2    1    2    0    0  0.13062137651E+02  0.21916482756E+02 -0.61947769266E+02  0.14190423165E+03  0.12509329793E+03 0.  0.
         23    2    1    2    0    0 -0.13062137651E+02 -0.21916482756E+02  0.97094792856E+02  0.13467732367E+03  0.89775447955E+02 0.  0.
          5    1    3    3  502    0 -0.77837284070E+01  0.43999060718E+02  0.23831290937E+02  0.50812465004E+02  0.41800000000E+01 0.  1.
         -5    1    3    3    0  502  0.20845866058E+02 -0.22082577963E+02 -0.85779060203E+02  0.91091766645E+02  0.41800000000E+01 0.  1.
        -11    1    4    4    0    0 -0.37402464848E+01 -0.41455518021E+02  0.10394607085E+03  0.11197024187E+03  0.00000000000E+00 0. -1.
         11    1    4    4    0    0 -0.93218911658E+01  0.19539035265E+02 -0.68512779949E+01  0.22707081807E+02  0.00000000000E+00 0.  1.
</event>
<event>
 8    1  0.3654190E-009  0.1810005E+03  0.7561462E-02  0.1166838E+00
          1   -1    0    0  501    0  0.00000000000E+00  0.00000000000E+00  0.24425774110E+03  0.24425774110E+03  0.00000000000E+00 0. -1.
         -1   -1    0    0    0  501 -0.00000000000E+00 -0.00000000000E+00 -0.19485561182E+03  0.19485561182E+03  0.00000000000E+00 0.  1.
         25    2    1    2    0    0  0.10064508217E+03 -0.12085902174E+03 -0.81344585080E+02  0.21679858621E+03  0.12509336417E+03 0.  0.
         23    2    1    2    0    0 -0.10064508217E+03  0.12085902174E+03  0.13074671435E+03  0.22231476671E+03  0.87136768842E+02 0.  0.
          5    1    3    3  502    0  0.68663174802E+02 -0.14207053051E+03 -0.82641001365E+02  0.17817315937E+03  0.41800000000E+01 0. -1.
         -5    1    3    3    0  502  0.31981907369E+02  0.21211508770E+02  0.12964162846E+01  0.38625426838E+02  0.41800000000E+01 0. -1.
        -11    1    4    4    0    0 -0.43886540678E+02  0.16752384628E+02  0.16170188663E+01  0.47003038130E+02  0.00000000000E+00 0.  1.
         11    1    4    4    0    0 -0.56758541492E+02  0.10410663711E+03  0.12912969549E+03  0.17531172858E+03  0.00000000000E+00 0. -1.
</event>
<event>
 8    1  0.3654190E-009  0.1661478E+03  0.7561462E-02  0.1181926E+00
         -3   -1    0    0    0  501 -0.00000000000E+00  0.00000000000E+00  0.27465300274E+03  0.27465300274E+03  0.00000000000E+00 0.  1.
          3   -1    0    0  501    0  0.00000000000E+00 -0.00000000000E+00 -0.13962929295E+03  0.13962929295E+03  0.00000000000E+00 0. -1.
         25    2    1    2    0    0 -0.64097862486E+02 -0.13906520946E+03  0.12418763378E+02  0.19811481245E+03  0.12509030645E+03 0.  0.
         23    2    1    2    0    0  0.64097862486E+02  0.13906520946E+03  0.12260494641E+03  0.21616748324E+03  0.90822571354E+02 0.  0.
          5    1    3    3  502    0 -0.39231155638E+02 -0.55088368017E+02  0.66628153250E+02  0.95029443168E+02  0.41800000000E+01 0. -1.
         -5    1    3    3    0  502 -0.24866706848E+02 -0.83976841448E+02 -0.54209389871E+02  0.10308536928E+03  0.41800000000E+01 0. -1.
        -11    1    4    4    0    0 -0.21084107064E+02  0.46524754947E+02  0.24479319606E+02  0.56642117563E+02  0.00000000000E+00 0.  1.
         11    1    4    4    0    0  0.85181969550E+02  0.92540454517E+02  0.98125626808E+02  0.15952536568E+03  0.00000000000E+00 0. -1.
</event>
<event>
 8    1  0.3654190E-009  0.1115170E+03  0.7561462E-02  0.1257786E+00
         -1   -1    0    0    0  501 -0.00000000000E+00  0.00000000000E+00  0.76322095630E+03  0.76322095630E+03  0.00000000000E+00 0. -1.
          1   -1    0    0  501    0  0.00000000000E+00 -0.00000000000E+00 -0.22572205355E+02  0.22572205355E+02  0.00000000000E+00 0.  1.
         25    2    1    2    0    0 -0.20471284234E+02 -0.56951040077E+02  0.28280901958E+03  0.31510220370E+03  0.12508382301E+03 0.  0.
         23    2    1    2    0    0  0.20471284234E+02  0.56951040077E+02  0.45783973137E+03  0.47069095796E+03  0.90940990959E+02 0.  0.
          5    1    3    3  502    0  0.43959438146E+01 -0.79954485911E+02  0.95454059281E+02  0.12466352302E+03  0.41800000000E+01 0.  1.
         -5    1    3    3    0  502 -0.24867228048E+02  0.23003445834E+02  0.18735496029E+03  0.19043868068E+03  0.41800000000E+01 0.  1.
        -11    1    4    4    0    0 -0.31827503836E+01 -0.24087781045E+02  0.84380953376E+02  0.87809432229E+02  0.00000000000E+00 0.  1.
         11    1    4    4    0    0  0.23654034617E+02  0.81038821122E+02  0.37345877800E+03  0.38288152573E+03  0.00000000000E+00 0. -1.
</event>
<event>
 8    1  0.3654190E-009  0.2697785E+03  0.7561462E-02  0.1101406E+00
          1   -1    0    0  501    0  0.00000000000E+00  0.00000000000E+00  0.10432980068E+04  0.10432980068E+04  0.00000000000E+00 0. -1.
         -1   -1    0    0    0  501 -0.00000000000E+00 -0.00000000000E+00 -0.78933286541E+02  0.78933286541E+02  0.00000000000E+00 0.  1.
         25    2    1    2    0    0 -0.14540449437E+03 -0.20568267023E+03  0.65634251180E+03  0.71405948162E+03  0.12509045800E+03 0.  0.
         23    2    1    2    0    0  0.14540449437E+03  0.20568267023E+03  0.30802220845E+03  0.40817181171E+03  0.90987467035E+02 0.  0.
          5    1    3    3  502    0 -0.57399719793E+02 -0.17955568287E+03  0.46574290616E+03  0.50246283258E+03  0.41800000000E+01 0.  1.
         -5    1    3    3    0  502 -0.88004774579E+02 -0.26126987366E+02  0.19059960564E+03  0.21159664904E+03  0.41800000000E+01 0.  1.
        -11    1    4    4    0    0  0.73691214423E+02  0.54103404659E+02  0.16106900737E+03  0.18520474781E+03  0.00000000000E+00 0.  1.
         11    1    4    4    0    0  0.71713279949E+02  0.15157926558E+03  0.14695320108E+03  0.22296706389E+03  0.00000000000E+00 0. -1.
</event>
<event>
 8    1  0.3654190E-009  0.1059341E+03  0.7561462E-02  0.1268290E+00
          1   -1    0    0  501    0  0.00000000000E+00  0.00000000000E+00  0.95842891635E+03  0.95842891635E+03  0.00000000000E+00 0. -1.
         -1   -1    0    0    0  501 -0.00000000000E+00 -0.00000000000E+00 -0.25848966494E+02  0.25848966494E+02  0.00000000000E+00 0.  1.
         25    2    1    2    0    0 -0.25992727502E+02 -0.13470368739E+02  0.85689856588E+03  0.86647395528E+03  0.12507953575E+03 0.  0.
         23    2    1    2    0    0  0.25992727502E+02  0.13470368739E+02  0.75681383977E+02  0.11780392756E+03  0.85399184721E+02 0.  0.
          5    1    3    3  502    0  0.44393969371E+02  0.20759868442E+02  0.28207827934E+03  0.28633446305E+03  0.41800000000E+01 0. -1.
         -5    1    3    3    0  502 -0.70386696873E+02 -0.34230237181E+02  0.57482028654E+03  0.58013949223E+03  0.41800000000E+01 0. -1.
        -11    1    4    4    0    0  0.22859363348E+02  0.46134759523E+02  0.24531163890E+02  0.57032837302E+02  0.00000000000E+00 0. -1.
         11    1    4    4    0    0  0.31333641533E+01 -0.32664390784E+02  0.51150220087E+02  0.60771090258E+02  0.00000000000E+00 0.  1.
</event>
<event>
 8    1  0.3654190E-009  0.1430776E+03  0.7561462E-02  0.1209247E+00
         -4   -1    0    0    0  501 -0.00000000000E+00  0.00000000000E+00  0.56327364660E+02  0.56327364660E+02  0.00000000000E+00 0.  1.
          4   -1    0    0  501    0  0.00000000000E+00 -0.00000000000E+00 -0.43692938548E+03  0.43692938548E+03  0.00000000000E+00 0. -1.
         25    2    1    2    0    0  0.80580452614E+02  0.83673365862E+02 -0.21016002169E+03  0.27075619192E+03  0.12508892536E+03 0.  0.
         23    2    1    2    0    0 -0.80580452614E+02 -0.83673365862E+02 -0.17044199913E+03  0.22250055822E+03  0.83436094372E+02 0.  0.
          5    1    3    3  502    0  0.94313907225E+01  0.95446963022E+02 -0.14221434952E+03  0.17158516104E+03  0.41800000000E+01 0. -1.
         -5    1    3    3    0  502  0.71149061892E+02 -0.11773597160E+02 -0.67945672175E+02  0.99171030878E+02  0.41800000000E+01 0. -1.
        -11    1    4    4    0    0 -0.40552857421E+02 -0.56451988202E+02 -0.15786027964E+03  0.17248544607E+03  0.00000000000E+00 0. -1.
         11    1    4    4    0    0 -0.40027595193E+02 -0.27221377660E+02 -0.12581719489E+02  0.50015112156E+02  0.00000000000E+00 0.  1.
</event>
<event>
 8    1  0.3654190E-009  0.1157328E+03  0.7561462E-02  0.1250307E+00
         -2   -1    0    0    0  501 -0.00000000000E+00  0.00000000000E+00  0.41610231559E+02  0.41610231559E+02  0.00000000000E+00 0.  1.
          2   -1    0    0  501    0  0.00000000000E+00 -0.00000000000E+00 -0.55913404725E+03  0.55913404725E+03  0.00000000000E+00 0. -1.
         25    2    1    2    0    0  0.90386999272E+02  0.19889667584E+02 -0.17091081898E+03  0.23113744958E+03  0.12509438052E+03 0.  0.
         23    2    1    2    0    0 -0.90386999272E+02 -0.19889667584E+02 -0.34661299671E+03  0.36960682923E+03  0.88900113679E+02 0.  0.
          5    1    3    3  502    0  0.31274262648E+02  0.36789565345E+02 -0.16172782645E+03  0.16883398316E+03  0.41800000000E+01 0.  1.
         -5    1    3    3    0  502  0.59112736624E+02 -0.16899897761E+02 -0.91829925314E+01  0.62303466415E+02  0.41800000000E+01 0.  1.
        -11    1    4    4    0    0  0.99367274230E+01  0.12485999788E+02 -0.16014059676E+02  0.22607274269E+02  0.00000000000E+00 0.  1.
         11    1    4    4    0    0 -0.10032372670E+03 -0.32375667372E+02 -0.33059893703E+03  0.34699955496E+03  0.00000000000E+00 0. -1.
</event>
<event>
 8    1  0.3654190E-009  0.1344100E+03  0.7561462E-02  0.1221055E+00
          1   -1    0    0  501    0  0.00000000000E+00  0.00000000000E+00  0.66770830951E+02  0.66770830951E+02  0.00000000000E+00 0. -1.
         -1   -1    0    0    0  501 -0.00000000000E+00 -0.00000000000E+00 -0.49771720607E+03  0.49771720607E+03  0.00000000000E+00 0.  1.
         25    2    1    2    0    0 -0.96276275919E+01  0.11343275704E+03 -0.36875927625E+03  0.40569756082E+03  0.12508966963E+03 0.  0.
         23    2    1    2    0    0  0.96276275919E+01 -0.11343275704E+03 -0.62187098862E+02  0.15879047620E+03  0.91583287149E+02 0.  0.
          5    1    3    3  502    0  0.17776650426E+02  0.32155717627E+02 -0.12195288374E+02  0.38938373554E+02  0.41800000000E+01 0.  1.
         -5    1    3    3    0  502 -0.27404278018E+02  0.81277039410E+02 -0.35656398788E+03  0.36675918726E+03  0.41800000000E+01 0.  1.
        -11    1    4    4    0    0 -0.26465419900E+02  0.48244083122E+00 -0.14000118336E+02  0.29944189972E+02  0.00000000000E+00 0.  1.
         11    1    4    4    0    0  0.36093047492E+02 -0.11391519787E+03 -0.48186980526E+02  0.12884628623E+03  0.00000000000E+00 0. -1.
</event>
<event>
 8    1  0.3654190E-009  0.2202193E+03  0.7561462E-02  0.1133720E+00
         -2   -1    0    0    0  501 -0.00000000000E+00  0.00000000000E+00  0.29142770540E+03  0.29142770540E+03  0.00000000000E+00 0.  1.
          2   -1    0    0  501    0  0.00000000000E+00 -0.00000000000E+00 -0.17962118838E+03  0.17962118838E+03  0.00000000000E+00 0. -1.
         25    2    1    2    0    0  0.50063139331E+02  0.19402752914E+03  0.63247214843E+02  0.24454323864E+03  0.12509270720E+03 0.  0.
         23    2    1    2    0    0 -0.50063139331E+02 -0.19402752914E+03  0.48559302173E+02  0.22650565514E+03  0.93775295260E+02 0.  0.
          5    1    3    3  502    0 -0.30863113687E+02  0.12896410502E+02  0.26175119801E+02  0.42678548323E+02  0.41800000000E+01 0. -1.
         -5    1    3    3    0  502  0.80926253018E+02  0.18113111864E+03  0.37072095042E+02  0.20186469032E+03  0.41800000000E+01 0. -1.
        -11    1    4    4    0    0 -0.33632077326E+02 -0.35427779715E+02  0.45906912948E+02  0.67034982340E+02  0.00000000000E+00 0.  1.
         11    1    4    4    0    0 -0.16431062004E+02 -0.15859974942E+03  0.26523892246E+01  0.15947067280E+03  0.00000000000E+00 0. -1.
</event>
<event>
 8    1  0.3654190E-009  0.9028802E+02  0.7561462E-02  0.1302156E+00
          1   -1    0    0  501    0  0.00000000000E+00  0.00000000000E+00  0.21741435527E+03  0.21741435527E+03  0.00000000000E+00 0. -1.
         -1   -1    0    0    0  501 -0.00000000000E+00 -0.00000000000E+00 -0.67544202909E+02  0.67544202909E+02  0.00000000000E+00 0.  1.
         25    2    1    2    0    0  0.44745596467E+02  0.23237674584E+01  0.48204082254E+02  0.14134527336E+03  0.12508910607E+03 0.  0.
         23    2    1    2    0    0 -0.44745596467E+02 -0.23237674584E+01  0.10166607011E+03  0.14361328482E+03  0.91001194870E+02 0.  0.
          5    1    3    3  502    0 -0.14741523748E+02 -0.14661720565E+02 -0.32968159406E+02  0.39200134017E+02  0.41800000000E+01 0.  1.
         -5    1    3    3    0  502  0.59487120215E+02  0.16985488023E+02  0.81172241660E+02  0.10214513934E+03  0.41800000000E+01 0.  1.
        -11    1    4    4    0    0  0.24121717846E+02  0.12123064854E+02  0.11766434981E+02  0.29449532517E+02  0.00000000000E+00 0. -1.
         11    1    4    4    0    0 -0.68867314313E+02 -0.14446832312E+02  0.89899635126E+02  0.11416375230E+03  0.00000000000E+00 0.  1.
</event>
<event>
 8    1  0.3654190E-009  0.1277684E+03  0.7561462E-02  0.1230805E+00
         -2   -1    0    0    0  501 -0.00000000000E+00  0.00000000000E+00  0.31213424629E+02  0.31213424629E+02  0.00000000000E+00 0.  1.
          2   -1    0    0  501    0  0.00000000000E+00 -0.00000000000E+00 -0.72452385473E+03  0.72452385473E+03  0.00000000000E+00 0. -1.
         25    2    1    2    0    0 -0.78863909542E+02 -0.51630205960E+02 -0.26813048094E+03  0.31052577476E+03  0.12508839907E+03 0.  0.
         23    2    1    2    0    0  0.78863909542E+02  0.51630205960E+02 -0.42517994915E+03  0.44521150460E+03  0.92466752228E+02 0.  0.
          5    1    3    3  502    0 -0.77400791555E+02  0.41438280157E+01 -0.69585415364E+02  0.10424805166E+03  0.41800000000E+01 0. -1.
         -5    1    3    3    0  502 -0.14631179872E+01 -0.55774033976E+02 -0.19854506558E+03  0.20627772310E+03  0.41800000000E+01 0. -1.
        -11    1    4    4    0    0  0.22217223512E+02  0.60660343948E+02 -0.13817900266E+03  0.15253432114E+03  0.00000000000E+00 0.  1.
         11    1    4    4    0    0  0.56646686030E+02 -0.90301379876E+01 -0.28700094649E+03  0.29267718346E+03  0.00000000000E+00 0. -1.
</event>
<event>
 8    1  0.3654190E-009  0.8153091E+02  0.7561462E-02  0.1324762E+00
         -1   -1    0    0    0  501 -0.00000000000E+00  0.00000000000E+00  0.34775078679E+02  0.34775078679E+02  0.00000000000E+00 0.  1.
          1   -1    0    0  501    0  0.00000000000E+00 -0.00000000000E+00 -0.63181723441E+03  0.63181723441E+03  0.00000000000E+00 0. -1.
         25    2    1    2    0    0 -0.48387735390E+02  0.17868701312E+02 -0.51928998751E+03  0.53662909953E+03  0.12509210973E+03 0.  0.
         23    2    1    2    0    0  0.48387735390E+02 -0.17868701312E+02 -0.77752168225E+02  0.12996321356E+03  0.90467528935E+02 0.  0.
          5    1    3    3  502    0  0.98787798785E+00 -0.13643328877E+02 -0.42700620564E+03  0.42724570025E+03  0.41800000000E+01 0. -1.
         -5    1    3    3    0  502 -0.49375613378E+02  0.31512030190E+02 -0.92283781867E+02  0.10938339928E+03  0.41800000000E+01 0. -1.
        -11    1    4    4    0    0  0.33856835215E+02  0.26724960298E+02 -0.50264167180E+01  0.43425495492E+02  0.00000000000E+00 0.  1.
         11    1    4    4    0    0  0.14530900175E+02 -0.44593661610E+02 -0.72725751507E+02  0.86537718066E+02  0.00000000000E+00 0. -1.
</event>
<event>
 8    1  0.3654190E-009  0.1213432E+03  0.7561462E-02  0.1240898E+00
          1   -1    0    0  501    0  0.00000000000E+00  0.00000000000E+00  0.48949050961E+03  0.48949050961E+03  0.00000000000E+00 0. -1.
         -1   -1    0    0    0  501 -0.00000000000E+00 -0.00000000000E+00 -0.36432945923E+02  0.36432945923E+02  0.00000000000E+00 0.  1.
         25    2    1    2    0    0 -0.19538313833E+02 -0.72395069256E+02  0.21256499890E+03  0.25779012954E+03  0.12509628439E+03 0.  0.
         23    2    1    2    0    0  0.19538313833E+02  0.72395069256E+02  0.24049256479E+03  0.26813332600E+03  0.91847781868E+02 0.  0.
          5    1    3    3  502    0 -0.59426485610E+02 -0.65008255945E+00  0.12016149364E+03  0.13412004606E+03  0.41800000000E+01 0. -1.
         -5    1    3    3    0  502  0.39888171777E+02 -0.71744986696E+02  0.92403505259E+02  0.12367008348E+03  0.41800000000E+01 0. -1.
        -11    1    4    4    0    0  0.27940943077E+02  0.82889147877E+02  0.23912372937E+03  0.25462023699E+03  0.00000000000E+00 0. -1.
         11    1    4    4    0    0 -0.84026292438E+01 -0.10494078621E+02  0.13688354193E+01  0.13513089015E+02  0.00000000000E+00 0.  1.
</event>
<event>
 8    1  0.3654190E-009  0.9592937E+02  0.7561462E-02  0.1289097E+00
         -1   -1    0    0    0  501 -0.00000000000E+00  0.00000000000E+00  0.30311151678E+02  0.30311151678E+02  0.00000000000E+00 0.  1.
          1   -1    0    0  501    0  0.00000000000E+00 -0.00000000000E+00 -0.53453599853E+03  0.53453599853E+03  0.00000000000E+00 0. -1.
         25    2    1    2    0    0  0.51728021290E+02  0.54881587480E+01 -0.37409942395E+03  0.39787302027E+03  0.12508658275E+03 0.  0.
         23    2    1    2    0    0 -0.51728021290E+02 -0.54881587480E+01 -0.13012542291E+03  0.16697412994E+03  0.90784504796E+02 0.  0.
          5    1    3    3  502    0 -0.35132331259E+02 -0.19087714503E+02 -0.71020128056E+02  0.81608532236E+02  0.41800000000E+01 0.  1.
         -5    1    3    3    0  502  0.86860352549E+02  0.24575873251E+02 -0.30307929589E+03  0.31626448803E+03  0.41800000000E+01 0.  1.
        -11    1    4    4    0    0 -0.48682316274E+01  0.10666542475E+02  0.11804606418E+02  0.16638014913E+02  0.00000000000E+00 0.  1.
         11    1    4    4    0    0 -0.46859789662E+02 -0.16154701223E+02 -0.14193002932E+03  0.15033611503E+03  0.00000000000E+00 0. -1.
</event>
<event>
 8    1  0.3654190E-009  0.1564477E+03  0.7561462E-02  0.1192767E+00
          1   -1    0    0  501    0  0.00000000000E+00  0.00000000000E+00  0.54663330986E+03  0.54663330986E+03  0.00000000000E+00 0. -1.
         -1   -1    0    0    0  501 -0.00000000000E+00 -0.00000000000E+00 -0.73107938767E+02  0.73107938767E+02  0.00000000000E+00 0.  1.
         25    2    1    2    0    0 -0.83396108660E+02 -0.10403545953E+03  0.87491589090E+02  0.20268446134E+03  0.12509166610E+03 0.  0.
         23    2    1    2    0    0  0.83396108660E+02  0.10403545953E+03  0.38603378200E+03  0.41705678728E+03  0.84474819869E+02 0.  0.
          5    1    3    3  502    0 -0.48472366074E+02  0.16773939063E+02  0.38736028873E+01  0.51608260035E+02  0.41800000000E+01 0. -1.
         -5    1    3    3    0  502 -0.34923742586E+02 -0.12080939859E+03  0.83617986203E+02  0.15107620131E+03  0.41800000000E+01 0. -1.
        -11    1    4    4    0    0  0.32855452106E+02  0.60744334636E+02  0.88955393881E+02  0.11261623783E+03  0.00000000000E+00 0. -1.
         11    1    4    4    0    0  0.50540656554E+02  0.43291124896E+02  0.29707838812E+03  0.30444054945E+03  0.00000000000E+00 0.  1.
</event>
<event>
 8    1  0.3654190E-009  0.9457377E+02  0.7561462E-02  0.1292139E+00
          3   -1    0    0  501    0  0.00000000000E+00  0.00000000000E+00  0.73115173896E+02  0.73115173896E+02  0.00000000000E+00 0. -1.
         -3   -1    0    0    0  501 -0.00000000000E+00 -0.00000000000E+00 -0.19303736140E+03  0.19303736140E+03  0.00000000000E+00 0.  1.
         25    2    1    2    0    0 -0.34887201844E+02 -0.70433453491E+01 -0.26569469240E+02  0.13274264491E+03  0.12509175639E+03 0.  0.
         23    2    1    2    0    0  0.34887201844E+02  0.70433453491E+01 -0.93352718259E+02  0.13340989038E+03  0.88412347995E+02 0.  0.
          5    1    3    3  502    0  0.36960842563E+02  0.13935562066E+02  0.20018706585E+02  0.44480611354E+02  0.41800000000E+01 0. -1.
         -5    1    3    3    0  502 -0.71848044406E+02 -0.20978907415E+02 -0.46588175826E+02  0.88262033560E+02  0.41800000000E+01 0. -1.
        -11    1    4    4    0    0  0.52070609494E+02  0.16784594946E+02 -0.21317257012E+02  0.58715385097E+02  0.00000000000E+00 0. -1.
         11    1    4    4    0    0 -0.17183407650E+02 -0.97412495964E+01 -0.72035461247E+02  0.74694505281E+02  0.00000000000E+00 0.  1.
</event>
<event>
 8    1  0.3654190E-009  0.1341161E+03  0.7561462E-02  0.1221473E+00
          1   -1    0    0  501    0  0.00000000000E+00  0.00000000000E+00  0.15336755364E+02  0.15336755364E+02  0.00000000000E+00 0. -1.
         -1   -1    0    0    0  501 -0.00000000000E+00 -0.00000000000E+00 -0.12262860839E+04  0.12262860839E+04  0.00000000000E+00 0.  1.
         25    2    1    2    0    0  0.47785144445E+02  0.70841437111E+02 -0.64070390385E+03  0.65836969251E+03  0.12508888984E+03 0.  0.
         23    2    1    2    0    0 -0.47785144445E+02 -0.70841437111E+02 -0.57024542470E+03  0.58325314677E+03  0.87763657554E+02 0.  0.
          5    1    3    3  502    0  0.12210439009E+02  0.99280332968E+02 -0.51410723843E+03  0.52376464595E+03  0.41800000000E+01 0. -1.
         -5    1    3    3    0  502  0.35574705436E+02 -0.28438895857E+02 -0.12659666542E+03  0.13460504656E+03  0.41800000000E+01 0. -1.
        -11    1    4    4    0    0 -0.43212060655E+02 -0.91516470856E+02 -0.48068443643E+03  0.49122303901E+03  0.00000000000E+00 0.  1.
         11    1    4    4    0    0 -0.45730837904E+01  0.20675033745E+02 -0.89560988269E+02  0.92030107766E+02  0.00000000000E+00 0. -1.
</event>
<event>
 8    1  0.3654190E-009  0.1144841E+03  0.7561462E-02  0.1252484E+00
          2   -1    0    0  501    0  0.00000000000E+00  0.00000000000E+00  0.64003423475E+02  0.64003423475E+02  0.00000000000E+00 0. -1.
         -2   -1    0    0    0  501 -0.00000000000E+00 -0.00000000000E+00 -0.34703748777E+03  0.34703748777E+03  0.00000000000E+00 0.  1.
         25    2    1    2    0    0 -0.54395787000E+02 -0.77539383613E+02 -0.20252835493E+03  0.25619684147E+03  0.12509128415E+03 0.  0.
         23    2    1    2    0    0  0.54395787000E+02  0.77539383613E+02 -0.80505709357E+02  0.15484406977E+03  0.92326914010E+02 0.  0.
          5    1    3    3  502    0 -0.57814874736E+02 -0.54217037758E+02 -0.34621452998E+02  0.86591941494E+02  0.41800000000E+01 0.  1.
         -5    1    3    3    0  502  0.34190877359E+01 -0.23322345855E+02 -0.16790690194E+03  0.16960489997E+03  0.41800000000E+01 0.  1.
        -11    1    4    4    0    0  0.55703591119E+02  0.81957499251E+01 -0.60532371447E+02  0.82669391999E+02  0.00000000000E+00 0.  1.
         11    1    4    4    0    0 -0.13078041187E+01  0.69343633688E+02 -0.19973337909E+02  0.72174677775E+02  0.00000000000E+00 0. -1.
</event>
<event>
 8    1  0.3654190E-009  0.1568926E+03  0.7561462E-02  0.1192250E+00
         -2   -1    0    0    0  501 -0.00000000000E+00  0.00000000000E+00  0.38210986553E+02  0.38210986553E+02  0.00000000000E+00 0.  1.
          2   -1    0    0  501    0  0.00000000000E+00 -0.00000000000E+00 -0.91539143890E+03  0.91539143890E+03  0.00000000000E+00 0. -1.
         25    2    1    2    0    0 -0.37305433960E+02 -0.14587191135E+03 -0.47028215899E+03  0.50939514420E+03  0.12509114254E+03 0.  0.
         23    2    1    2    0    0  0.37305433960E+02  0.14587191135E+03 -0.40689829335E+03  0.44420728125E+03  0.95307804834E+02 0.  0.
          5    1    3    3  502    0 -0.49279352902E+02 -0.74459931602E+02 -0.39449026396E+03  0.40449076232E+03  0.41800000000E+01 0. -1.
         -5    1    3    3    0  502  0.11973918942E+02 -0.71411979745E+02 -0.75791895030E+02  0.10490438188E+03  0.41800000000E+01 0. -1.
        -11    1    4    4    0    0  0.13880345871E+02  0.93118332745E+02 -0.35262951037E+03  0.36498117688E+03  0.00000000000E+00 0. -1.
         11    1    4    4    0    0  0.23425088089E+02  0.52753578602E+02 -0.54268782979E+02  0.79226104368E+02  0.00000000000E+00 0.  1.
</event>
<event>
 8    1  0.3654190E-009  0.6587174E+02  0.7561462E-02  0.1374722E+00
         -2   -1    0    0    0  501 -0.00000000000E+00  0.00000000000E+00  0.13823356708E+03  0.13823356708E+03  0.00000000000E+00 0.  1.
          2   -1    0    0  501    0  0.00000000000E+00 -0.00000000000E+00 -0.27918287787E+03  0.27918287787E+03  0.00000000000E+00 0. -1.
         25    2    1    2    0    0  0.26219995229E+02  0.40493084278E+02 -0.24100354718E+03  0.27578548996E+03  0.12509096169E+03 0.  0.
         23    2    1    2    0    0 -0.26219995229E+02 -0.40493084278E+02  0.10005423639E+03  0.14163095499E+03  0.87870923324E+02 0.  0.
          5    1    3    3  502    0  0.16534603604E+02  0.56362775192E+02 -0.34183064852E+02  0.68088984912E+02  0.41800000000E+01 0. -1.
         -5    1    3    3    0  502  0.96853916248E+01 -0.15869690913E+02 -0.20682048233E+03  0.20769650505E+03  0.41800000000E+01 0. -1.
        -11    1    4    4    0    0 -0.29851244412E+01 -0.26521516705E+02 -0.98373696254E+01  0.28444255262E+02  0.00000000000E+00 0. -1.
         11    1    4    4    0    0 -0.23234870788E+02 -0.13971567573E+02  0.10989160602E+03  0.11318669972E+03  0.00000000000E+00 0.  1.
</event>
<event>
 8    1  0.3654190E-009  0.1657577E+03  0.7561462E-02  0.1182345E+00
         -2   -1    0    0    0  501 -0.00000000000E+00  0.00000000000E+00  0.63578674743E+02  0.63578674743E+02  0.00000000000E+00 0.  1.
          2   -1    0    0  501    0  0.00000000000E+00 -0.00000000000E+00 -0.53729945842E+03  0.53729945842E+03  0.00000000000E+00 0. -1.
         25    2    1    2    0    0 -0.16952717688E+01  0.14847805083E+03 -0.24358811537E+03  0.31149844382E+03  0.12508998773E+03 0.  0.
         23    2    1    2    0    0  0.16952717688E+01 -0.14847805083E+03 -0.23013266831E+03  0.28937968934E+03  0.93439574342E+02 0.  0.
          5    1    3    3  502    0  0.28926858720E+02  0.30962505348E+02 -0.38843799135E+01  0.42755124841E+02  0.41800000000E+01 0. -1.
         -5    1    3    3    0  502 -0.30622130488E+02  0.11751554549E+03 -0.23970373545E+03  0.26874331898E+03  0.41800000000E+01 0. -1.
        -11    1    4    4    0    0 -0.37040308417E+02 -0.55762795964E+02 -0.13651266942E+03  0.15204335820E+03  0.00000000000E+00 0.  1.
         11    1    4    4    0    0  0.38735580186E+02 -0.92715254870E+02 -0.93619998886E+02  0.13733633113E+03  0.00000000000E+00 0. -1.
</event>
<event>
 8    1  0.3654190E-009  0.1123466E+03  0.7561462E-02  0.1256285E+00
         -1   -1    0    0    0  501 -0.00000000000E+00  0.00000000000E+00  0.29762743401E+02  0.29762743401E+02  0.00000000000E+00 0.  1.
          1   -1    0    0  501    0  0.00000000000E+00 -0.00000000000E+00 -0.45629218738E+03  0.45629218738E+03  0.00000000000E+00 0. -1.
         25    2    1    2    0    0 -0.19933665880E+01 -0.42327005795E+02 -0.27639120023E+03  0.30632401006E+03  0.12508698832E+03 0.  0.
         23    2    1    2    0    0  0.19933665880E+01  0.42327005795E+02 -0.15013824375E+03  0.17973092072E+03  0.89253362375E+02 0.  0.
          5    1    3    3  502    0 -0.58139861270E+01  0.44212958638E+02 -0.10780187251E+03  0.11673604526E+03  0.41800000000E+01 0.  1.
         -5    1    3    3    0  502  0.38206195389E+01 -0.86539964434E+02 -0.16858932772E+03  0.18958796480E+03  0.41800000000E+01 0.  1.
        -11    1    4    4    0    0  0.40472338843E+02  0.36033557986E+02 -0.56433073422E+02  0.78237582327E+02  0.00000000000E+00 0.  1.
         11    1    4    4    0    0 -0.38478972255E+02  0.62934478095E+01 -0.93705170328E+02  0.10149333839E+03  0.00000000000E+00 0. -1.
</event>
<event>
 8    1  0.3654190E-009  0.7226805E+02  0.7561462E-02  0.1352546E+00
          1   -1    0    0  501    0  0.00000000000E+00  0.00000000000E+00  0.52569575177E+02  0.52569575177E+02  0.00000000000E+00 0. -1.
         -1   -1    0    0    0  501 -0.00000000000E+00 -0.00000000000E+00 -0.25931288055E+03  0.25931288055E+03  0.00000000000E+00 0.  1.
         25    2    1    2    0    0 -0.31060727289E+02  0.27605128322E+02 -0.96462614847E+02  0.16333480658E+03  0.12508561503E+03 0.  0.
         23    2    1    2    0    0  0.31060727289E+02 -0.27605128322E+02 -0.11028069053E+03  0.14854764915E+03  0.90430976311E+02 0.  0.
          5    1    3    3  502    0 -0.11567412143E+02 -0.72420888293E+01  0.28612139252E+02  0.31974674148E+02  0.41800000000E+01 0. -1.
         -5    1    3    3    0  502 -0.19493315146E+02  0.34847217151E+02 -0.12507475410E+03  0.13136013243E+03  0.41800000000E+01 0. -1.
        -11    1    4    4    0    0 -0.15379131564E+02  0.18918324519E+02 -0.57237258910E+01  0.25043596554E+02  0.00000000000E+00 0. -1.
         11    1    4    4    0    0  0.46439858853E+02 -0.46523452841E+02 -0.10455696464E+03  0.12350405260E+03  0.00000000000E+00 0.  1.
</event>
<event>
 8    1  0.3654190E-009  0.1608654E+03  0.7561462E-02  0.1187723E+00
         -1   -1    0    0    0  501 -0.00000000000E+00  0.00000000000E+00  0.31951548410E+02  0.31951548410E+02  0.00000000000E+00 0.  1.
          1   -1    0    0  501    0  0.00000000000E+00 -0.00000000000E+00 -0.11440813852E+04  0.11440813852E+04  0.00000000000E+00 0. -1.
         25    2    1    2    0    0 -0.14385177303E+03  0.39277321862E+02 -0.42727663102E+03  0.46951963350E+03  0.12508927295E+03 0.  0.
         23    2    1    2    0    0  0.14385177303E+03 -0.39277321862E+02 -0.68485320577E+03  0.70651330011E+03  0.88888071024E+02 0.  0.
          5    1    3    3  502    0 -0.77501604955E+02  0.29024599736E+01 -0.35968042517E+03  0.36797065602E+03  0.41800000000E+01 0.  1.
         -5    1    3    3    0  502 -0.66350168071E+02  0.36374861889E+02 -0.67596205852E+02  0.10154897747E+03  0.41800000000E+01 0.  1.
        -11    1    4    4    0    0  0.86427193124E+02 -0.62165378775E+02 -0.51165611262E+03  0.52261474492E+03  0.00000000000E+00 0.  1.
         11    1    4    4    0    0  0.57424579901E+02  0.22888056912E+02 -0.17319709315E+03  0.18389855519E+03  0.00000000000E+00 0. -1.
</event>
<event>
 8    1  0.3654190E-009  0.1079132E+03  0.7561462E-02  0.1264484E+00
          2   -1    0    0  501    0  0.00000000000E+00  0.00000000000E+00  0.27145033036E+03  0.27145033036E+03  0.00000000000E+00 0. -1.
         -2   -1    0    0    0  501 -0.00000000000E+00 -0.00000000000E+00 -0.56457214056E+02  0.56457214056E+02  0.00000000000E+00 0.  1.
         25    2    1    2    0    0  0.40626560907E+02 -0.40697930151E+02  0.14391466714E+03  0.19916373502E+03  0.12509165823E+03 0.  0.
         23    2    1    2    0    0 -0.40626560907E+02  0.40697930151E+02  0.71078449167E+02  0.12874380940E+03  0.90642062829E+02 0.  0.
          5    1    3    3  502    0 -0.17178692416E+02  0.36830425653E+02  0.44480309004E+02  0.60395016483E+02  0.41800000000E+01 0. -1.
         -5    1    3    3    0  502  0.57805253323E+02 -0.77528355804E+02  0.99434358136E+02  0.13876871853E+03  0.41800000000E+01 0. -1.
        -11    1    4    4    0    0 -0.32163755738E+02  0.53739317813E+02  0.72478612994E+01  0.63047227977E+02  0.00000000000E+00 0.  1.
         11    1    4    4    0    0 -0.84628051688E+01 -0.13041387662E+02  0.63830587868E+02  0.65696581426E+02  0.00000000000E+00 0. -1.
</event>
<event>
 8    1  0.3654190E-009  0.3800262E+03  0.7561462E-02  0.1050924E+00
          3   -1    0    0  501    0  0.00000000000E+00  0.00000000000E+00  0.32433866322E+03  0.32433866322E+03  0.00000000000E+00 0.  1.
         -3   -1    0    0    0  501 -0.00000000000E+00 -0.00000000000E+00 -0.69127283654E+03  0.69127283654E+03  0.00000000000E+00 0. -1.
         25    2    1    2    0    0  0.14638532400E+03 -0.33350082004E+03  0.11766792976E+03  0.40267078538E+03  0.12508620891E+03 0.  0.
         23    2    1    2    0    0 -0.14638532400E+03  0.33350082004E+03 -0.48460210308E+03  0.61294071438E+03  0.90585103576E+02 0.  0.
          5    1    3    3  502    0 -0.20187582720E+02 -0.14525545245E+02  0.80127232533E+01  0.26461407647E+02  0.41800000000E+01 0.  1.
         -5    1    3    3    0  502  0.16657290672E+03 -0.31897527480E+03  0.10965520651E+03  0.37620937774E+03  0.41800000000E+01 0.  1.
        -11    1    4    4    0    0 -0.10734693714E+03  0.13410247413E+03 -0.20885798943E+03  0.27042281381E+03  0.00000000000E+00 0.  1.
         11    1    4    4    0    0 -0.39038386862E+02  0.19939834591E+03 -0.27574411365E+03  0.34251790057E+03  0.00000000000E+00 0. -1.
</event>
<event>
 8    1  0.3654190E-009  0.1032687E+03  0.7561462E-02  0.1273569E+00
         -2   -1    0    0    0  501 -0.00000000000E+00  0.00000000000E+00  0.27879974660E+02  0.27879974660E+02  0.00000000000E+00 0.  1.
          2   -1    0    0  501    0  0.00000000000E+00 -0.00000000000E+00 -0.75135647844E+03  0.75135647844E+03  0.00000000000E+00 0. -1.
         25    2    1    2    0    0  0.58638199908E+02 -0.58803649062E+01 -0.59045938264E+03  0.60643544887E+03  0.12509457989E+03 0.  0.
         23    2    1    2    0    0 -0.58638199908E+02  0.58803649062E+01 -0.13301712114E+03  0.17280100423E+03  0.93239559021E+02 0.  0.
          5    1    3    3  502    0  0.73235967335E+02 -0.24228498141E+02 -0.18774855897E+03  0.20302098618E+03  0.41800000000E+01 0. -1.
         -5    1    3    3    0  502 -0.14597767427E+02  0.18348133235E+02 -0.40271082367E+03  0.40341446269E+03  0.41800000000E+01 0. -1.
        -11    1    4    4    0    0 -0.28351066497E+02 -0.40884211096E+02 -0.37808834820E+02  0.62488476369E+02  0.00000000000E+00 0. -1.
         11    1    4    4    0    0 -0.30287133411E+02  0.46764576003E+02 -0.95208286319E+02  0.11031252786E+03  0.00000000000E+00 0.  1.
</event>
<event>
 8    1  0.3654190E-009  0.9981289E+02  0.7561462E-02  0.1280690E+00
         -1   -1    0    0    0  501 -0.00000000000E+00  0.00000000000E+00  0.79711259648E+02  0.79711259648E+02  0.00000000000E+00 0.  1.
          1   -1    0    0  501    0  0.00000000000E+00 -0.00000000000E+00 -0.24544213820E+03  0.24544213820E+03  0.00000000000E+00 0. -1.
         25    2    1    2    0    0  0.48971615025E+02  0.26164895402E+02 -0.16176868650E+03  0.21189646917E+03  0.12509270516E+03 0.  0.
         23    2    1    2    0    0 -0.48971615025E+02 -0.26164895402E+02 -0.39621920529E+01  0.11325692868E+03  0.98633726984E+02 0.  0.
          5    1    3    3  502    0 -0.79454445267E+01 -0.15177463443E+02 -0.13557115819E+03  0.13671319182E+03  0.41800000000E+01 0.  1.
         -5    1    3    3    0  502  0.56917059552E+02  0.41342358845E+02 -0.26197528310E+02  0.75183277346E+02  0.41800000000E+01 0.  1.
        -11    1    4    4    0    0  0.18206432682E+02 -0.39079335946E+02 -0.10983552680E+02  0.44489404563E+02  0.00000000000E+00 0. -1.
         11    1    4    4    0    0 -0.67178047707E+02  0.12914440543E+02  0.70213606269E+01  0.68767524118E+02  0.00000000000E+00 0.  1.
</event>
<event>
 8    1  0.3654190E-009  0.1090767E+03  0.7561462E-02  0.1262289E+00
         -1   -1    0    0    0  501 -0.00000000000E+00  0.00000000000E+00  0.12947613054E+03  0.12947613054E+03  0.00000000000E+00 0. -1.
          1   -1    0    0  501    0  0.00000000000E+00 -0.00000000000E+00 -0.13113976081E+03  0.13113976081E+03  0.00000000000E+00 0.  1.
         25    2    1    2    0    0 -0.16182020451E+02 -0.68052772527E+02 -0.14505953223E+02  0.14405091999E+03  0.12508879741E+03 0.  0.
         23    2    1    2    0    0  0.16182020451E+02  0.68052772527E+02  0.12842322949E+02  0.11656497136E+03  0.92354911370E+02 0.  0.
          5    1    3    3  502    0 -0.49818789955E+02  0.82290390758E+01  0.18988881638E+02  0.54108030296E+02  0.41800000000E+01 0. -1.
         -5    1    3    3    0  502  0.33636769503E+02 -0.76281811602E+02 -0.33494834862E+02  0.89942889693E+02  0.41800000000E+01 0. -1.
        -11    1    4    4    0    0 -0.14773266615E+02  0.88907299380E+01 -0.31849626656E+02  0.36217305303E+02  0.00000000000E+00 0.  1.
         11    1    4    4    0    0  0.30955287066E+02  0.59162042589E+02  0.44691949605E+02  0.80347666053E+02  0.00000000000E+00 0. -1.
</event>
<event>
 8    1  0.3654190E-009  0.1544820E+03  0.7561462E-02  0.1195071E+00
         -2   -1    0    0    0  501 -0.00000000000E+00  0.00000000000E+00  0.50255706308E+03  0.50255706308E+03  0.00000000000E+00 0.  1.
          2   -1    0    0  501    0  0.00000000000E+00 -0.00000000000E+00 -0.93978401557E+02  0.93978401557E+02  0.00000000000E+00 0. -1.
         25    2    1    2    0    0 -0.11335686085E+03  0.66930094096E+02  0.39703186589E+03  0.43659005093E+03  0.12508858716E+03 0.  0.
         23    2    1    2    0    0  0.11335686085E+03 -0.66930094096E+02  0.11546795632E+02  0.15994541371E+03  0.90109885587E+02 0.  0.
          5    1    3    3  502    0 -0.15905723471E+02 -0.33452771779E+02  0.12811703266E+03  0.13342985587E+03  0.41800000000E+01 0. -1.
         -5    1    3    3    0  502 -0.97451137377E+02  0.10038286588E+03  0.26891483323E+03  0.30316019506E+03  0.41800000000E+01 0. -1.
        -11    1    4    4    0    0  0.13550981170E+02 -0.63275211375E+01  0.37464575503E+02  0.40339323644E+02  0.00000000000E+00 0.  1.
         11    1    4    4    0    0  0.99805879678E+02 -0.60602572959E+02 -0.25917779871E+02  0.11960609007E+03  0.00000000000E+00 0. -1.
</event>
<event>
 8    1  0.3654190E-009  0.1597839E+03  0.7561462E-02  0.1188941E+00
          1   -1    0    0  501    0  0.00000000000E+00  0.00000000000E+00  0.51495552437E+03  0.51495552437E+03  0.00000000000E+00 0. -1.
         -1   -1    0    0    0  501 -0.00000000000E+00 -0.00000000000E+00 -0.64604322963E+02  0.64604322963E+02  0.00000000000E+00 0.  1.
         25    2    1    2    0    0  0.13898373666E+03  0.35183727834E+02  0.19472330952E+03  0.27224816543E+03  0.12509005775E+03 0.  0.
         23    2    1    2    0    0 -0.13898373666E+03 -0.35183727834E+02  0.25562789188E+03  0.30731168190E+03  0.92414701021E+02 0.  0.
          5    1    3    3  502    0  0.15409675694E+03  0.32324205962E+02  0.12600686522E+03  0.20170738031E+03  0.41800000000E+01 0.  1.
         -5    1    3    3    0  502 -0.15113020278E+02  0.28595218726E+01  0.68716444301E+02  0.70540785115E+02  0.41800000000E+01 0.  1.
        -11    1    4    4    0    0 -0.83578154206E+02 -0.67585439284E+01  0.63035348171E+02  0.10490205382E+03  0.00000000000E+00 0.  1.
         11    1    4    4    0    0 -0.55405582454E+02 -0.28425183906E+02  0.19259254371E+03  0.20240962808E+03  0.00000000000E+00 0. -1.
</event>
<event>
 8    1  0.3654190E-009  0.1277869E+03  0.7561462E-02  0.1230777E+00
          1   -1    0    0  501    0  0.00000000000E+00  0.00000000000E+00  0.11842216754E+03  0.11842216754E+03  0.00000000000E+00 0. -1.
         -1   -1    0    0    0  501 -0.00000000000E+00 -0.00000000000E+00 -0.20790594127E+03  0.20790594127E+03  0.00000000000E+00 0.  1.
         25    2    1    2    0    0 -0.10430874594E+02  0.97677595090E+02 -0.10707802296E+03  0.19173898102E+03  0.12509363739E+03 0.  0.
         23    2    1    2    0    0  0.10430874594E+02 -0.97677595090E+02  0.17594249226E+02  0.13458912780E+03  0.90304817078E+02 0.  0.
          5    1    3    3  502    0 -0.25528411183E+02 -0.23127577892E+02 -0.38953393080E+02  0.52167268178E+02  0.41800000000E+01 0.  1.
         -5    1    3    3    0  502  0.15097536589E+02  0.12080517298E+03 -0.68124629877E+02  0.13957171284E+03  0.41800000000E+01 0. -1.
        -11    1    4    4    0    0  0.67410559845E+00 -0.63788128182E+02 -0.33850999320E+02  0.72216825396E+02  0.00000000000E+00 0.  1.
         11    1    4    4    0    0  0.97567689957E+01 -0.33889466908E+02  0.51445248546E+02  0.62372302399E+02  0.00000000000E+00 0. -1.
</event>
<event>
 8    1  0.3654190E-009  0.1224516E+03  0.7561462E-02  0.1239107E+00
          1   -1    0    0  501    0  0.00000000000E+00  0.00000000000E+00  0.69298985605E+02  0.69298985605E+02  0.00000000000E+00 0. -1.
         -1   -1    0    0    0  501 -0.00000000000E+00 -0.00000000000E+00 -0.29595838326E+03  0.29595838326E+03  0.00000000000E+00 0.  1.
         25    2    1    2    0    0  0.72976906657E+02 -0.18743540845E+02 -0.20220141637E+03  0.24941832143E+03  0.12508851687E+03 0.  0.
         23    2    1    2    0    0 -0.72976906657E+02  0.18743540845E+02 -0.24457981283E+02  0.11583904744E+03  0.84519481979E+02 0.  0.
          5    1    3    3  502    0  0.48971523180E+02  0.51779934808E+02 -0.96744804155E+02  0.12023477559E+03  0.41800000000E+01 0. -1.
         -5    1    3    3    0  502  0.24005383476E+02 -0.70523475653E+02 -0.10545661221E+03  0.12918354583E+03  0.41800000000E+01 0. -1.
        -11    1    4    4    0    0 -0.24296291571E+02 -0.23972596691E+02  0.17812519524E+02  0.38500402959E+02  0.00000000000E+00 0. -1.
         11    1    4    4    0    0 -0.48680615085E+02  0.42716137536E+02 -0.42270500807E+02  0.77338644477E+02  0.00000000000E+00 0.  1.
</event>
<event>
 8    1  0.3654190E-009  0.4668148E+02  0.7561462E-02  0.1464109E+00
         -1   -1    0    0    0  501 -0.00000000000E+00  0.00000000000E+00  0.23448792684E+02  0.23448792684E+02  0.00000000000E+00 0.  1.
          1   -1    0    0  501    0  0.00000000000E+00 -0.00000000000E+00 -0.89183985355E+03  0.89183985355E+03  0.00000000000E+00 0. -1.
         25    2    1    2    0    0 -0.25670539980E+02  0.27095987038E+01 -0.75649370638E+03  0.76720031178E+03  0.12508905649E+03 0.  0.
         23    2    1    2    0    0  0.25670539980E+02 -0.27095987038E+01 -0.11189735449E+03  0.14808833446E+03  0.93503039056E+02 0.  0.
          5    1    3    3  502    0 -0.12978506462E+02 -0.20236846007E+02 -0.72740574157E+03  0.72781491935E+03  0.41800000000E+01 0.  1.
         -5    1    3    3    0  502 -0.12692033518E+02  0.22946444711E+02 -0.29087964812E+02  0.39385392426E+02  0.41800000000E+01 0.  1.
        -11    1    4    4    0    0  0.22010442232E+02  0.13479391555E+02 -0.12456381663E+03  0.12720966150E+03  0.00000000000E+00 0. -1.
         11    1    4    4    0    0  0.36600977486E+01 -0.16188990259E+02  0.12666462148E+02  0.20878672958E+02  0.00000000000E+00 0.  1.
</event>
<event>
 8    1  0.3654190E-009  0.1337137E+03  0.7561462E-02  0.1222047E+00
         -1   -1    0    0    0  501 -0.00000000000E+00  0.00000000000E+00  0.14034749627E+02  0.14034749627E+02  0.00000000000E+00 0.  1.
          1   -1    0    0  501    0  0.00000000000E+00 -0.00000000000E+00 -0.19195723623E+04  0.19195723623E+04  0.00000000000E+00 0. -1.
         25    2    1    2    0    0 -0.10989496123E+03  0.12119408177E+02 -0.13239939142E+04  0.13344761580E+04  0.12507177456E+03 0.  0.
         23    2    1    2    0    0  0.10989496123E+03 -0.12119408177E+02 -0.58154369853E+03  0.59913095402E+03  0.92417769939E+02 0.  0.
          5    1    3    3  502    0 -0.11554271576E+03  0.13029666154E+02 -0.13220078787E+04  0.13271180034E+04  0.41800000000E+01 0.  1.
         -5    1    3    3    0  502  0.56477545343E+01 -0.91025797710E+00 -0.19860355097E+01  0.73581545180E+01  0.41800000000E+01 0.  1.
        -11    1    4    4    0    0  0.17819062491E+00  0.27380916645E+02 -0.11995720878E+03  0.12304258729E+03  0.00000000000E+00 0. -1.
         11    1    4    4    0    0  0.10971677060E+03 -0.39500324823E+02 -0.46158648975E+03  0.47608836673E+03  0.00000000000E+00 0.  1.
</event>
<event>
 8    1  0.3654190E-009  0.1242070E+03  0.7561462E-02  0.1236314E+00
          1   -1    0    0  501    0  0.00000000000E+00  0.00000000000E+00  0.56715554260E+03  0.56715554260E+03  0.00000000000E+00 0. -1.
         -1   -1    0    0    0  501 -0.00000000000E+00 -0.00000000000E+00 -0.36131327446E+02  0.36131327446E+02  0.00000000000E+00 0.  1.
         25    2    1    2    0    0  0.34205780221E+02  0.60949944087E+02  0.15795226805E+03  0.21326425645E+03  0.12509113883E+03 0.  0.
         23    2    1    2    0    0 -0.34205780221E+02 -0.60949944087E+02  0.37307194711E+03  0.39002261359E+03  0.89721961139E+02 0.  0.
          5    1    3    3  502    0  0.54311004959E+02  0.86915874635E+02  0.14522531023E+03  0.17779740621E+03  0.41800000000E+01 0.  1.
         -5    1    3    3    0  502 -0.20105224737E+02 -0.25965930548E+02  0.12726957816E+02  0.35466850244E+02  0.41800000000E+01 0.  1.
        -11    1    4    4    0    0  0.28587755619E+02 -0.58192917914E+01  0.75487247097E+02  0.80928662429E+02  0.00000000000E+00 0.  1.
         11    1    4    4    0    0 -0.62793535840E+02 -0.55130652295E+02  0.29758470001E+03  0.30909395117E+03  0.00000000000E+00 0. -1.
</event>
<event>
 8    1  0.3654190E-009  0.9733778E+02  0.7561462E-02  0.1285996E+00
          2   -1    0    0  501    0  0.00000000000E+00  0.00000000000E+00  0.36878223766E+03  0.36878223766E+03  0.00000000000E+00 0. -1.
         -2   -1    0    0    0  501 -0.00000000000E+00 -0.00000000000E+00 -0.45905971849E+02  0.45905971849E+02  0.00000000000E+00 0.  1.
         25    2    1    2    0    0 -0.62512730041E+01  0.63983159853E+02  0.22965595734E+03  0.26929710848E+03  0.12508457433E+03 0.  0.
         23    2    1    2    0    0  0.62512730041E+01 -0.63983159853E+02  0.93220308464E+02  0.14539110102E+03  0.91190038861E+02 0.  0.
          5    1    3    3  502    0 -0.34821402890E+02  0.34872108221E+02  0.16356093001E+02  0.52092112736E+02  0.41800000000E+01 0.  1.
         -5    1    3    3    0  502  0.28570129886E+02  0.29111051632E+02  0.21329986434E+03  0.21720499575E+03  0.41800000000E+01 0.  1.
        -11    1    4    4    0    0  0.18731052420E+02  0.15158354434E+02  0.22983369236E+01  0.24205585854E+02  0.00000000000E+00 0.  1.
         11    1    4    4    0    0 -0.12479779416E+02 -0.79141514287E+02  0.90921971540E+02  0.12118551517E+03  0.00000000000E+00 0. -1.
</event>
<event>
 8    1  0.3654190E-009  0.7229447E+02  0.7561462E-02  0.1352460E+00
          2   -1    0    0  501    0  0.00000000000E+00  0.00000000000E+00  0.60448712341E+02  0.60448712341E+02  0.00000000000E+00 0. -1.
         -2   -1    0    0    0  501 -0.00000000000E+00 -0.00000000000E+00 -0.25346624936E+03  0.25346624936E+03  0.00000000000E+00 0.  1.
         25    2    1    2    0    0 -0.93553071475E+01 -0.25372913269E+02 -0.39257370411E+02  0.13386401881E+03  0.12508848029E+03 0.  0.
         23    2    1    2    0    0  0.93553071475E+01  0.25372913269E+02 -0.15376016661E+03  0.18005094289E+03  0.89693069406E+02 0.  0.
          5    1    3    3  502    0  0.12788839438E+02  0.79674486494E+01 -0.77072459355E+02  0.78642679527E+02  0.41800000000E+01 0. -1.
         -5    1    3    3    0  502 -0.22144146585E+02 -0.33340361918E+02  0.37815088944E+02  0.55221339287E+02  0.41800000000E+01 0. -1.
        -11    1    4    4    0    0 -0.31901192358E+02 -0.10964576318E+02 -0.32189083057E+02  0.46626656279E+02  0.00000000000E+00 0. -1.
         11    1    4    4    0    0  0.41256499506E+02  0.36337489587E+02 -0.12157108356E+03  0.13342428661E+03  0.00000000000E+00 0.  1.
</event>
<event>
 8    1  0.3654190E-009  0.1337405E+03  0.7561462E-02  0.1222009E+00
          1   -1    0    0  501    0  0.00000000000E+00  0.00000000000E+00  0.13719446742E+03  0.13719446742E+03  0.00000000000E+00 0. -1.
         -1   -1    0    0    0  501 -0.00000000000E+00 -0.00000000000E+00 -0.16470446667E+03  0.16470446667E+03  0.00000000000E+00 0.  1.
         25    2    1    2    0    0  0.90106625696E+02  0.50032755701E+02  0.31679408668E+01  0.16210846982E+03  0.12508652805E+03 0.  0.
         23    2    1    2    0    0 -0.90106625696E+02 -0.50032755701E+02 -0.30677940114E+02  0.13979046427E+03  0.89318291816E+02 0.  0.
          5    1    3    3  502    0  0.12904883169E+02 -0.35215608867E+02 -0.22851691053E+02  0.44117426278E+02  0.41800000000E+01 0. -1.
         -5    1    3    3    0  502  0.77201742528E+02  0.85248364567E+02  0.26019631920E+02  0.11799104354E+03  0.41800000000E+01 0. -1.
        -11    1    4    4    0    0 -0.53844922535E+02 -0.12327081001E+01 -0.52482418772E+02  0.75201060712E+02  0.00000000000E+00 0.  1.
         11    1    4    4    0    0 -0.36261703161E+02 -0.48800047600E+02  0.21804478658E+02  0.64589403555E+02  0.00000000000E+00 0. -1.
</event>
<event>
 8    1  0.3654190E-009  0.7059024E+02  0.7561462E-02  0.1358097E+00
         -2   -1    0    0    0  501 -0.00000000000E+00  0.00000000000E+00  0.14077172145E+02  0.14077172145E+02  0.00000000000E+00 0.  1.
          2   -1    0    0  501    0  0.00000000000E+00 -0.00000000000E+00 -0.12630466090E+04  0.12630466090E+04  0.00000000000E+00 0. -1.
         25    2    1    2    0    0 -0.45915215491E+01 -0.13829672864E+02 -0.10545804928E+04  0.10620732200E+04  0.12508863648E+03 0.  0.
         23    2    1    2    0    0  0.45915215491E+01  0.13829672864E+02 -0.19438894407E+03  0.21505056113E+03  0.90814868530E+02 0.  0.
          5    1    3    3  502    0  0.16280016388E+02  0.19017510536E+02 -0.44458081348E+02  0.51192753762E+02  0.41800000000E+01 0.  1.
         -5    1    3    3    0  502 -0.20871537937E+02 -0.32847183400E+02 -0.10101224114E+04  0.10108804662E+04  0.41800000000E+01 0.  1.
        -11    1    4    4    0    0 -0.34916427428E+02  0.36191903824E+00 -0.15043877769E+03  0.15443805788E+03  0.00000000000E+00 0. -1.
         11    1    4    4    0    0  0.39507948977E+02  0.13467753826E+02 -0.43950166373E+02  0.60612503246E+02  0.00000000000E+00 0.  1.
</event>
<event>
 8    1  0.3654190E-009  0.1089393E+03  0.7561462E-02  0.1262547E+00
          2   -1    0    0  501    0  0.00000000000E+00  0.00000000000E+00  0.13290612620E+03  0.13290612620E+03  0.00000000000E+00 0. -1.
         -2   -1    0    0    0  501 -0.00000000000E+00 -0.00000000000E+00 -0.12278496105E+03  0.12278496105E+03  0.00000000000E+00 0.  1.
         25    2    1    2    0    0  0.23681214091E+02 -0.52246871093E+02 -0.27448146412E+02  0.14031690003E+03  0.12507955970E+03 0.  0.
         23    2    1    2    0    0 -0.23681214091E+02  0.52246871093E+02  0.37569311567E+02  0.11537418722E+03  0.92785852720E+02 0.  0.
          5    1    3    3  502    0  0.64915353996E+02 -0.61322835738E+02 -0.37124680178E+02  0.96799832880E+02  0.41800000000E+01 0.  1.
         -5    1    3    3    0  502 -0.41234139904E+02  0.90759646448E+01  0.96765337661E+01  0.43517067153E+02  0.41800000000E+01 0.  1.
        -11    1    4    4    0    0 -0.32062772426E+01  0.62893886633E+02 -0.87922775184E+01  0.63586361223E+02  0.00000000000E+00 0.  1.
         11    1    4    4    0    0 -0.20474936849E+02 -0.10647015540E+02  0.46361589085E+02  0.51787825996E+02  0.00000000000E+00 0. -1.
</event>
<event>
 8    1  0.3654190E-009  0.8169383E+02  0.7561462E-02  0.1324312E+00
         -2   -1    0    0    0  501 -0.00000000000E+00  0.00000000000E+00  0.83516337435E+02  0.83516337435E+02  0.00000000000E+00 0.  1.
          2   -1    0    0  501    0  0.00000000000E+00 -0.00000000000E+00 -0.16658086234E+03  0.16658086234E+03  0.00000000000E+00 0. -1.
         25    2    1    2    0    0  0.35759812566E+02  0.26374130716E+02 -0.64602334086E+02  0.14763089380E+03  0.12508820995E+03 0.  0.
         23    2    1    2    0    0 -0.35759812566E+02 -0.26374130716E+02 -0.18462190823E+02  0.10246630598E+03  0.90466194821E+02 0.  0.
          5    1    3    3  502    0  0.14271947018E+02 -0.24645010476E+02  0.27681349244E+02  0.39934878352E+02  0.41800000000E+01 0.  1.
         -5    1    3    3    0  502  0.21487865548E+02  0.51019141193E+02 -0.92283683331E+02  0.10769601545E+03  0.41800000000E+01 0.  1.
        -11    1    4    4    0    0  0.24575631347E+01 -0.38816627797E+02 -0.40895474710E+02  0.56437665276E+02  0.00000000000E+00 0.  1.
         11    1    4    4    0    0 -0.38217375701E+02  0.12442497080E+02  0.22433283888E+02  0.46028640704E+02  0.00000000000E+00 0. -1.
</event>
<event>
 8    1  0.3654190E-009  0.8599426E+02  0.7561462E-02  0.1312853E+00
         -1   -1    0    0    0  501 -0.00000000000E+00  0.00000000000E+00  0.67116807777E+01  0.67116807777E+01  0.00000000000E+00 0.  1.
          1   -1    0    0  501    0  0.00000000000E+00 -0.00000000000E+00 -0.22969248082E+04  0.22969248082E+04  0.00000000000E+00 0. -1.
         25    2    1    2    0    0 -0.33905858222E+02 -0.14993683594E+02 -0.17281982418E+04  0.17331159455E+04  0.12508916745E+03 0.  0.
         23    2    1    2    0    0  0.33905858222E+02  0.14993683594E+02 -0.56201488558E+03  0.57052054344E+03  0.90876515667E+02 0.  0.
          5    1    3    3  502    0  0.17297171154E+02 -0.13866048814E+02 -0.14521822468E+04  0.14523574662E+04  0.41800000000E+01 0.  1.
         -5    1    3    3    0  502 -0.51203029375E+02 -0.11276347803E+01 -0.27601599507E+03  0.28075847933E+03  0.41800000000E+01 0.  1.
        -11    1    4    4    0    0  0.37849812006E+02  0.50058599306E+02 -0.37220352614E+03  0.37745719824E+03  0.00000000000E+00 0. -1.
         11    1    4    4    0    0 -0.39439537842E+01 -0.35064915711E+02 -0.18981135944E+03  0.19306334519E+03  0.00000000000E+00 0.  1.
</event>
<event>
 8    1  0.3654190E-009  0.1359475E+03  0.7561462E-02  0.1218888E+00
         -2   -1    0    0    0  501 -0.00000000000E+00  0.00000000000E+00  0.19569594948E+02  0.19569594948E+02  0.00000000000E+00 0.  1.
          2   -1    0    0  501    0  0.00000000000E+00 -0.00000000000E+00 -0.12854012125E+04  0.12854012125E+04  0.00000000000E+00 0. -1.
         25    2    1    2    0    0  0.10751640202E+03  0.43048375381E+02 -0.68178483923E+03  0.70277327828E+03  0.12508706700E+03 0.  0.
         23    2    1    2    0    0 -0.10751640202E+03 -0.43048375381E+02 -0.58404677835E+03  0.60219752920E+03  0.90101529099E+02 0.  0.
          5    1    3    3  502    0  0.71869934692E+02  0.73742294189E+02 -0.59603626377E+03  0.60488008200E+03  0.41800000000E+01 0. -1.
         -5    1    3    3    0  502  0.35646467330E+02 -0.30693918808E+02 -0.85748575459E+02  0.97893196282E+02  0.41800000000E+01 0. -1.
        -11    1    4    4    0    0 -0.22950587572E+01 -0.11553055552E+02 -0.49494252600E+01  0.12776431337E+02  0.00000000000E+00 0.  1.
         11    1    4    4    0    0 -0.10522134327E+03 -0.31495319829E+02 -0.57909735309E+03  0.58942109787E+03  0.00000000000E+00 0. -1.
</event>
<event>
 8    1  0.3654190E-009  0.9184923E+02  0.7561462E-02  0.1298434E+00
          2   -1    0    0  501    0  0.00000000000E+00  0.00000000000E+00  0.28462295945E+03  0.28462295945E+03  0.00000000000E+00 0. -1.
         -2   -1    0    0    0  501 -0.00000000000E+00 -0.00000000000E+00 -0.61591506428E+02  0.61591506428E+02  0.00000000000E+00 0.  1.
         25    2    1    2    0    0  0.71798083451E+02  0.33044689143E+02  0.11732656006E+03  0.18883803315E+03  0.12508942722E+03 0.  0.
         23    2    1    2    0    0 -0.71798083451E+02 -0.33044689143E+02  0.10570489297E+03  0.15737643273E+03  0.85714064856E+02 0.  0.
          5    1    3    3  502    0  0.43138131381E+00  0.10971145634E+02 -0.25235021496E+02  0.27835783378E+02  0.41800000000E+01 0.  1.
         -5    1    3    3    0  502  0.71366702137E+02  0.22073543509E+02  0.14256158155E+03  0.16100224977E+03  0.41800000000E+01 0.  1.
        -11    1    4    4    0    0 -0.22442902830E+01 -0.27243214608E+02 -0.37199324067E+01  0.27587451462E+02  0.00000000000E+00 0.  1.
         11    1    4    4    0    0 -0.69553793168E+02 -0.58014745356E+01  0.10942482537E+03  0.12978898127E+03  0.00000000000E+00 0. -1.
</event>
<event>
 8    1  0.3654190E-009  0.8921112E+02  0.7561462E-02  0.1304773E+00
         -4   -1    0    0    0  501 -0.00000000000E+00  0.00000000000E+00  0.53360776972E+02  0.53360776972E+02  0.00000000000E+00 0.  1.
          4   -1    0    0  501    0  0.00000000000E+00 -0.00000000000E+00 -0.27978727620E+03  0.27978727620E+03  0.00000000000E+00 0. -1.
         25    2    1    2    0    0 -0.41275661163E+02  0.31501810772E+02 -0.99045946822E+02  0.16779185659E+03  0.12509181935E+03 0.  0.
         23    2    1    2    0    0  0.41275661163E+02 -0.31501810772E+02 -0.12738055241E+03  0.16535619658E+03  0.91765038719E+02 0.  0.
          5    1    3    3  502    0 -0.72075923359E+02  0.28366216681E+02 -0.16188853875E+02  0.79240976563E+02  0.41800000000E+01 0.  1.
         -5    1    3    3    0  502  0.30800262196E+02  0.31355940910E+01 -0.82857092946E+02  0.88550880025E+02  0.41800000000E+01 0.  1.
        -11    1    4    4    0    0 -0.91588106390E+01 -0.12976325177E+02  0.93618856919E+01  0.18436749473E+02  0.00000000000E+00 0.  1.
         11    1    4    4    0    0  0.50434471802E+02 -0.18525485596E+02 -0.13674243810E+03  0.14691944711E+03  0.00000000000E+00 0. -1.
</event>
<event>
 8    1  0.3654190E-009  0.2932155E+03  0.7561462E-02  0.1088682E+00
         -2   -1    0    0    0  501 -0.00000000000E+00  0.00000000000E+00  0.11849477544E+03  0.11849477544E+03  0.00000000000E+00 0.  1.
          2   -1    0    0  501    0  0.00000000000E+00 -0.00000000000E+00 -0.18030246213E+04  0.18030246213E+04  0.00000000000E+00 0. -1.
         25    2    1    2    0    0 -0.11512389111E+03  0.24929501930E+03 -0.15871343831E+04  0.16155630925E+04  0.12508812401E+03 0.  0.
         23    2    1    2    0    0  0.11512389111E+03 -0.24929501930E+03 -0.97395462785E+02  0.30595630430E+03  0.93390936494E+02 0.  0.
          5    1    3    3  502    0 -0.10562954467E+03  0.95597603353E+02 -0.61503084571E+03  0.63132948295E+03  0.41800000000E+01 0.  1.
         -5    1    3    3    0  502 -0.94943464348E+01  0.15369741595E+03 -0.97210353740E+03  0.98423360952E+03  0.41800000000E+01 0.  1.
        -11    1    4    4    0    0  0.23079359347E+02 -0.15986238443E+03 -0.48860326685E+02  0.16874824534E+03  0.00000000000E+00 0. -1.
         11    1    4    4    0    0  0.92044531759E+02 -0.89432634877E+02 -0.48535136099E+02  0.13720805896E+03  0.00000000000E+00 0.  1.
</event>
<event>
 8    1  0.3654190E-009  0.1187400E+03  0.7561462E-02  0.1245190E+00
         -1   -1    0    0    0  501 -0.00000000000E+00  0.00000000000E+00  0.34530152393E+03  0.34530152393E+03  0.00000000000E+00 0.  1.
          1   -1    0    0  501    0  0.00000000000E+00 -0.00000000000E+00 -0.46285764724E+02  0.46285764724E+02  0.00000000000E+00 0. -1.
         25    2    1    2    0    0 -0.15024185523E+02 -0.46538259349E+02  0.22876957301E+03  0.26528238105E+03  0.12509072079E+03 0.  0.
         23    2    1    2    0    0  0.15024185523E+02  0.46538259349E+02  0.70246186190E+02  0.12630490760E+03  0.92880930632E+02 0.  0.
          5    1    3    3  502    0 -0.44047129661E+02  0.28920920766E+02  0.10167378780E+03  0.11459319708E+03  0.41800000000E+01 0. -1.
         -5    1    3    3    0  502  0.29022944138E+02 -0.75459180115E+02  0.12709578521E+03  0.15068918398E+03  0.41800000000E+01 0. -1.
        -11    1    4    4    0    0 -0.17145210416E+02  0.64555794583E+02  0.35501511396E+02  0.75642356956E+02  0.00000000000E+00 0.  1.
         11    1    4    4    0    0  0.32169395939E+02 -0.18017535234E+02  0.34744674793E+02  0.50662550641E+02  0.00000000000E+00 0. -1.
</event>
<event>
 8    1  0.3654190E-009  0.2289356E+03  0.7561462E-02  0.1127391E+00
          1   -1    0    0  501    0  0.00000000000E+00  0.00000000000E+00  0.10168715944E+04  0.10168715944E+04  0.00000000000E+00 0.  1.
         -1   -1    0    0    0  501 -0.00000000000E+00 -0.00000000000E+00 -0.62279830524E+02  0.62279830524E+02  0.00000000000E+00 0. -1.
         25    2    1    2    0    0 -0.10222023195E+03 -0.20106968712E+03  0.53501770531E+03  0.59394413492E+03  0.12509074911E+03 0.  0.
         23    2    1    2    0    0  0.10222023195E+03  0.20106968712E+03  0.41957405858E+03  0.48520729002E+03  0.92226507876E+02 0.  0.
          5    1    3    3  502    0  0.16708658252E+01 -0.11790878540E+02 -0.40281681876E+01  0.13248213023E+02  0.41800000000E+01 0. -1.
         -5    1    3    3    0  502 -0.10389109777E+03 -0.18927880858E+03  0.53904587350E+03  0.58069592190E+03  0.41800000000E+01 0. -1.
        -11    1    4    4    0    0  0.93088441242E+02  0.14380180244E+03  0.37429693058E+03  0.41163407113E+03  0.00000000000E+00 0.  1.
         11    1    4    4    0    0  0.91317907082E+01  0.57267884677E+02  0.45277128006E+02  0.73573218887E+02  0.00000000000E+00 0. -1.
</event>
<event>
 8    1  0.3654190E-009  0.8406728E+02  0.7561462E-02  0.1317890E+00
         -2   -1    0    0    0  501 -0.00000000000E+00  0.00000000000E+00  0.66701241106E+02  0.66701241106E+02  0.00000000000E+00 0. -1.
          2   -1    0    0  501    0  0.00000000000E+00 -0.00000000000E+00 -0.21807372254E+03  0.21807372254E+03  0.00000000000E+00 0.  1.
         25    2    1    2    0    0 -0.12895138603E+02  0.34403840460E+02 -0.40084364762E+02  0.13639023774E+03  0.12508250003E+03 0.  0.
         23    2    1    2    0    0  0.12895138603E+02 -0.34403840460E+02 -0.11128811667E+03  0.14838472590E+03  0.91011390120E+02 0.  0.
          5    1    3    3  502    0 -0.24238760271E+02  0.49607155890E+02  0.30477342749E+02  0.63203862509E+02  0.41800000000E+01 0.  1.
         -5    1    3    3    0  502  0.11343621668E+02 -0.15203315430E+02 -0.70561707511E+02  0.73186375231E+02  0.41800000000E+01 0.  1.
        -11    1    4    4    0    0 -0.24717598109E+02  0.16741542239E+02 -0.59056602797E+02  0.66173417826E+02  0.00000000000E+00 0.  1.
         11    1    4    4    0    0  0.37612736712E+02 -0.51145382699E+02 -0.52231513874E+02  0.82211308079E+02  0.00000000000E+00 0. -1.
</event>
<event>
 8    1  0.3654190E-009  0.9541525E+02  0.7561462E-02  0.1290244E+00
         -2   -1    0    0    0  501 -0.00000000000E+00  0.00000000000E+00  0.26125804979E+03  0.26125804979E+03  0.00000000000E+00 0.  1.
          2   -1    0    0  501    0  0.00000000000E+00 -0.00000000000E+00 -0.54671140614E+02  0.54671140614E+02  0.00000000000E+00 0. -1.
         25    2    1    2    0    0  0.14164447993E+02  0.32591502752E+02  0.16847265898E+03  0.21281170586E+03  0.12507177014E+03 0.  0.
         23    2    1    2    0    0 -0.14164447993E+02 -0.32591502752E+02  0.38114250189E+02  0.10311748454E+03  0.88981357106E+02 0.  0.
          5    1    3    3  502    0  0.35253647854E+02  0.54955072564E+02  0.16958748313E+03  0.18176981741E+03  0.41800000000E+01 0.  1.
         -5    1    3    3    0  502 -0.21089199861E+02 -0.22363569813E+02 -0.11148241439E+01  0.31041888448E+02  0.41800000000E+01 0.  1.
        -11    1    4    4    0    0 -0.77091268229E+01 -0.62912810504E+02  0.17047087854E+02  0.65635779619E+02  0.00000000000E+00 0. -1.
         11    1    4    4    0    0 -0.64553211706E+01  0.30321307752E+02  0.21067162335E+02  0.37481704924E+02  0.00000000000E+00 0.  1.
</event>
<event>
 8    1  0.3654190E-009  0.1198037E+03  0.7561462E-02  0.1243421E+00
         -1   -1    0    0    0  501 -0.00000000000E+00  0.00000000000E+00  0.22994824241E+02  0.22994824241E+02  0.00000000000E+00 0.  1.
          1   -1    0    0  501    0  0.00000000000E+00 -0.00000000000E+00 -0.12869379988E+04  0.12869379988E+04  0.00000000000E+00 0. -1.
         25    2    1    2    0    0  0.50883947516E+02  0.54573675113E+02 -0.11115388464E+04  0.11210410814E+04  0.12508811657E+03 0.  0.
         23    2    1    2    0    0 -0.50883947516E+02 -0.54573675113E+02 -0.15240432816E+03  0.18889174168E+03  0.82979206457E+02 0.  0.
          5    1    3    3  502    0  0.80751732344E+02  0.64485951846E+02 -0.62784828646E+03  0.63630984864E+03  0.41800000000E+01 0.  1.
         -5    1    3    3    0  502 -0.29867784828E+02 -0.99122767329E+01 -0.48369055998E+03  0.48473123276E+03  0.41800000000E+01 0.  1.
        -11    1    4    4    0    0 -0.54441458563E+02 -0.49288117382E+01 -0.11257472922E+03  0.12514485708E+03  0.00000000000E+00 0.  1.
         11    1    4    4    0    0  0.35575110477E+01 -0.49644863375E+02 -0.39829598939E+02  0.63746884599E+02  0.00000000000E+00 0. -1.
</event>
<event>
 8    1  0.3654190E-009  0.1309359E+03  0.7561462E-02  0.1226074E+00
          1   -1    0    0  501    0  0.00000000000E+00  0.00000000000E+00  0.63560243846E+03  0.63560243846E+03  0.00000000000E+00 0. -1.
         -1   -1    0    0    0  501 -0.00000000000E+00 -0.00000000000E+00 -0.34602677025E+02  0.34602677025E+02  0.00000000000E+00 0.  1.
         25    2    1    2    0    0  0.77977764234E+02  0.29080593149E+01  0.18343777565E+03  0.23534423614E+03  0.12509397837E+03 0.  0.
         23    2    1    2    0    0 -0.77977764234E+02 -0.29080593149E+01  0.41756198579E+03  0.43486087935E+03  0.93042914244E+02 0.  0.
          5    1    3    3  502    0  0.11825911972E+02 -0.52546368766E+02  0.37587261124E+02  0.65812215152E+02  0.41800000000E+01 0. -1.
         -5    1    3    3    0  502  0.66151852262E+02  0.55454428081E+02  0.14585051453E+03  0.16953202099E+03  0.41800000000E+01 0. -1.
        -11    1    4    4    0    0 -0.79831023487E+02 -0.36503417149E+02  0.30372469458E+03  0.31615531289E+03  0.00000000000E+00 0.  1.
         11    1    4    4    0    0  0.18532592534E+01  0.33595357834E+02  0.11383729121E+03  0.11870556646E+03  0.00000000000E+00 0. -1.
</event>
<event>
 8    1  0.3654190E-009  0.1336173E+03  0.7561462E-02  0.1222185E+00
          2   -1    0    0  501    0  0.00000000000E+00  0.00000000000E+00  0.48949637061E+02  0.48949637061E+02  0.00000000000E+00 0. -1.
         -2   -1    0    0    0  501 -0.00000000000E+00 -0.00000000000E+00 -0.58570776102E+03  0.58570776102E+03  0.00000000000E+00 0.  1.
         25    2    1    2    0    0 -0.54923005770E+02  0.97534719310E+02 -0.40532763183E+03  0.43870648011E+03  0.12507329263E+03 0.  0.
         23    2    1    2    0    0  0.54923005770E+02 -0.97534719310E+02 -0.13143049212E+03  0.19595091797E+03  0.92699676153E+02 0.  0.
          5    1    3    3  502    0 -0.29055402145E+02 -0.17975081733E+02 -0.18868879289E+03  0.19180264054E+03  0.41800000000E+01 0.  1.
         -5    1    3    3    0  502 -0.25867603625E+02  0.11550980104E+03 -0.21663883895E+03  0.24690383957E+03  0.41800000000E+01 0.  1.
        -11    1    4    4    0    0  0.18649971904E+02 -0.57004266680E+02 -0.72918718888E+01  0.60419196183E+02  0.00000000000E+00 0. -1.
         11    1    4    4    0    0  0.36273033866E+02 -0.40530452630E+02 -0.12413862023E+03  0.13553172178E+03  0.00000000000E+00 0.  1.
</event>
<event>
 8    1  0.3654190E-009  0.9379900E+02  0.7561462E-02  0.1293904E+00
          1   -1    0    0  501    0  0.00000000000E+00  0.00000000000E+00  0.35464965433E+03  0.35464965433E+03  0.00000000000E+00 0. -1.
         -1   -1    0    0    0  501 -0.00000000000E+00 -0.00000000000E+00 -0.40037839091E+02  0.40037839091E+02  0.00000000000E+00 0.  1.
         25    2    1    2    0    0 -0.49490651010E+02  0.70229163738E+01  0.13058165394E+03  0.18760987420E+03  0.12508897097E+03 0.  0.
         23    2    1    2    0    0  0.49490651010E+02 -0.70229163738E+01  0.18403016129E+03  0.20707761922E+03  0.80717991946E+02 0.  0.
          5    1    3    3  502    0 -0.16011947365E+02  0.43249297261E+02  0.13010860783E+03  0.13810360750E+03  0.41800000000E+01 0. -1.
         -5    1    3    3    0  502 -0.33478703645E+02 -0.36226380887E+02  0.47304610838E+00  0.49506266700E+02  0.41800000000E+01 0. -1.
        -11    1    4    4    0    0 -0.20972909372E+02 -0.32406307646E+01  0.68398496899E+02  0.71615075182E+02  0.00000000000E+00 0.  1.
         11    1    4    4    0    0  0.70463560383E+02 -0.37822856092E+01  0.11563166439E+03  0.13546254404E+03  0.00000000000E+00 0. -1.
</event>
<event>
 8    1  0.3654190E-009  0.1004592E+03  0.7561462E-02  0.1279333E+00
         -2   -1    0    0    0  501 -0.00000000000E+00  0.00000000000E+00  0.54227688427E+02  0.54227688427E+02  0.00000000000E+00 0.  1.
          2   -1    0    0  501    0  0.00000000000E+00 -0.00000000000E+00 -0.34091821059E+03  0.34091821059E+03  0.00000000000E+00 0. -1.
         25    2    1    2    0    0  0.62374403246E+02 -0.32121430929E+02 -0.23390980278E+03  0.27437923838E+03  0.12509123914E+03 0.  0.
         23    2    1    2    0    0 -0.62374403246E+02  0.32121430929E+02 -0.52780719379E+02  0.12076666064E+03  0.82924239388E+02 0.  0.
          5    1    3    3  502    0  0.23902979340E+02 -0.51372590175E+02 -0.26820554566E+02  0.62827621234E+02  0.41800000000E+01 0. -1.
         -5    1    3    3    0  502  0.38471423907E+02  0.19251159246E+02 -0.20708924822E+03  0.21155161715E+03  0.41800000000E+01 0. -1.
        -11    1    4    4    0    0 -0.76659259133E+02  0.37845675407E+02 -0.25108468598E+02  0.89103155686E+02  0.00000000000E+00 0.  1.
         11    1    4    4    0    0  0.14284855886E+02 -0.57242444782E+01 -0.27672250781E+02  0.31663504952E+02  0.00000000000E+00 0. -1.
</event>
<event>
 8    1  0.3654190E-009  0.2415384E+03  0.7561462E-02  0.1118772E+00
         -1   -1    0    0    0  501 -0.00000000000E+00  0.00000000000E+00  0.10901311459E+03  0.10901311459E+03  0.00000000000E+00 0.  1.
          1   -1    0    0  501    0  0.00000000000E+00 -0.00000000000E+00 -0.55497568719E+03  0.55497568719E+03  0.00000000000E+00 0. -1.
         25    2    1    2    0    0  0.17615339360E+03 -0.13321385269E+03 -0.23708468596E+03  0.34732197669E+03  0.12508980195E+03 0.  0.
         23    2    1    2    0    0 -0.17615339360E+03  0.13321385269E+03 -0.20887788664E+03  0.31666682509E+03  0.88724055143E+02 0.  0.
          5    1    3    3  502    0  0.61432013276E+02  0.17513755727E+02 -0.67790004316E+02  0.93239374623E+02  0.41800000000E+01 0.  1.
         -5    1    3    3    0  502  0.11472138032E+03 -0.15072760841E+03 -0.16929468164E+03  0.25408260207E+03  0.41800000000E+01 0.  1.
        -11    1    4    4    0    0 -0.16057122856E+03  0.90927848042E+02 -0.12966054817E+03  0.22552793784E+03  0.00000000000E+00 0. -1.
         11    1    4    4    0    0 -0.15582165033E+02  0.42286004643E+02 -0.79217338464E+02  0.91138887250E+02  0.00000000000E+00 0.  1.
</event>
<event>
 8    1  0.3654190E-009  0.9372380E+02  0.7561462E-02  0.1294077E+00
          3   -1    0    0  501    0  0.00000000000E+00  0.00000000000E+00  0.19114760610E+03  0.19114760610E+03  0.00000000000E+00 0. -1.
         -3   -1    0    0    0  501 -0.00000000000E+00 -0.00000000000E+00 -0.64727283614E+02  0.64727283614E+02  0.00000000000E+00 0.  1.
         25    2    1    2    0    0 -0.10761426524E+02 -0.52756539710E+01  0.10627341975E+03  0.16457627682E+03  0.12509064842E+03 0.  0.
         23    2    1    2    0    0  0.10761426524E+02  0.52756539710E+01  0.20146902735E+02  0.91298612893E+02  0.88237736829E+02 0.  0.
          5    1    3    3  502    0  0.52838448698E+02  0.15887596893E+02  0.29974164726E+02  0.62930440542E+02  0.41800000000E+01 0.  1.
         -5    1    3    3    0  502 -0.63599875222E+02 -0.21163250864E+02  0.76299255021E+02  0.10164583628E+03  0.41800000000E+01 0.  1.
        -11    1    4    4    0    0 -0.21165877936E+02 -0.16048136848E+02  0.40046327099E+02  0.48054608511E+02  0.00000000000E+00 0. -1.
         11    1    4    4    0    0  0.31927304460E+02  0.21323790819E+02 -0.19899424364E+02  0.43244004382E+02  0.00000000000E+00 0.  1.
</event>
<event>
 8    1  0.3654190E-009  0.1223740E+03  0.7561462E-02  0.1239231E+00
         -2   -1    0    0    0  501 -0.00000000000E+00  0.00000000000E+00  0.42724409064E+02  0.42724409064E+02  0.00000000000E+00 0. -1.
          2   -1    0    0  501    0  0.00000000000E+00 -0.00000000000E+00 -0.47046779268E+03  0.47046779268E+03  0.00000000000E+00 0.  1.
         25    2    1    2    0    0  0.44955935098E+02 -0.34459685060E+02 -0.35687345490E+03  0.38238010762E+03  0.12508947954E+03 0.  0.
         23    2    1    2    0    0 -0.44955935098E+02  0.34459685060E+02 -0.70869928710E+02  0.13081209412E+03  0.94237737551E+02 0.  0.
          5    1    3    3  502    0  0.75710195345E+02 -0.60296092709E+02 -0.24681876642E+03  0.26515019957E+03  0.41800000000E+01 0.  1.
         -5    1    3    3    0  502 -0.30754260247E+02  0.25836407649E+02 -0.11005468848E+03  0.11722990805E+03  0.41800000000E+01 0.  1.
        -11    1    4    4    0    0  0.27194450921E+02  0.20362769179E+02 -0.35823191075E+02  0.49370857278E+02  0.00000000000E+00 0.  1.
         11    1    4    4    0    0 -0.72150386020E+02  0.14096915881E+02 -0.35046737635E+02  0.81441236846E+02  0.00000000000E+00 0. -1.
</event>
<event>
 8    1  0.3654190E-009  0.1638025E+03  0.7561462E-02  0.1184469E+00
          1   -1    0    0  501    0  0.00000000000E+00  0.00000000000E+00  0.15325410906E+04  0.15325410906E+04  0.00000000000E+00 0. -1.
         -1   -1    0    0    0  501 -0.00000000000E+00 -0.00000000000E+00 -0.25396028605E+02  0.25396028605E+02  0.00000000000E+00 0.  1.
         25    2    1    2    0    0 -0.33712490034E+02 -0.15696856815E+03  0.92788938860E+03  0.94994856687E+03  0.12509156191E+03 0.  0.
         23    2    1    2    0    0  0.33712490034E+02  0.15696856815E+03  0.57925567337E+03  0.60798855230E+03  0.91308713865E+02 0.  0.
          5    1    3    3  502    0 -0.22879945706E+02 -0.43286745326E+02  0.61298248201E+03  0.61494896527E+03  0.41800000000E+01 0. -1.
         -5    1    3    3    0  502 -0.10832544328E+02 -0.11368182283E+03  0.31490690659E+03  0.33499960161E+03  0.41800000000E+01 0. -1.
        -11    1    4    4    0    0  0.40534480620E+02  0.12179369152E+03  0.53910137261E+03  0.55417238957E+03  0.00000000000E+00 0. -1.
         11    1    4    4    0    0 -0.68219905861E+01  0.35174876629E+02  0.40154300755E+02  0.53816162726E+02  0.00000000000E+00 0.  1.
</event>
<event>
 8    1  0.3654190E-009  0.8587619E+02  0.7561462E-02  0.1313157E+00
         -1   -1    0    0    0  501 -0.00000000000E+00  0.00000000000E+00  0.35673127383E+02  0.35673127383E+02  0.00000000000E+00 0.  1.
          1   -1    0    0  501    0  0.00000000000E+00 -0.00000000000E+00 -0.76945685229E+03  0.76945685229E+03  0.00000000000E+00 0. -1.
         25    2    1    2    0    0 -0.36028155837E+02  0.33876938647E+02 -0.66880972453E+03  0.68220192070E+03  0.12508932003E+03 0.  0.
         23    2    1    2    0    0  0.36028155837E+02 -0.33876938647E+02 -0.64974000371E+02  0.12292805897E+03  0.91891305213E+02 0.  0.
          5    1    3    3  502    0  0.11043968319E+02 -0.24315143251E+01 -0.14005906319E+01  0.12137361833E+02  0.41800000000E+01 0.  1.
         -5    1    3    3    0  502 -0.47072124156E+02  0.36308452972E+02 -0.66740913390E+03  0.67006455886E+03  0.41800000000E+01 0.  1.
        -11    1    4    4    0    0  0.63818255843E+02 -0.34001076182E+02 -0.30074509261E+02  0.78315509751E+02  0.00000000000E+00 0. -1.
         11    1    4    4    0    0 -0.27790100005E+02  0.12413753529E+00 -0.34899491110E+02  0.44612549223E+02  0.00000000000E+00 0.  1.
</event>
<event>
 8    1  0.3654190E-009  0.1150391E+03  0.7561462E-02  0.1251513E+00
         -2   -1    0    0    0  501 -0.00000000000E+00  0.00000000000E+00  0.11683908092E+04  0.11683908092E+04  0.00000000000E+00 0. -1.
          2   -1    0    0  501    0  0.00000000000E+00 -0.00000000000E+00 -0.25299985021E+02  0.25299985021E+02  0.00000000000E+00 0.  1.
         25    2    1    2    0    0  0.73936197551E+02 -0.27634824966E+02  0.97849200475E+03  0.98960807986E+03  0.12508918222E+03 0.  0.
         23    2    1    2    0    0 -0.73936197551E+02  0.27634824966E+02  0.16459881941E+03  0.20408271434E+03  0.91250962088E+02 0.  0.
          5    1    3    3  502    0  0.55029680765E+02 -0.54823443036E+02  0.91097955069E+03  0.91429485936E+03  0.41800000000E+01 0.  1.
         -5    1    3    3    0  502  0.18906516787E+02  0.27188618070E+02  0.67512454062E+02  0.75313220506E+02  0.41800000000E+01 0.  1.
        -11    1    4    4    0    0 -0.45119983259E+02  0.60324402464E+02  0.86971752253E+02  0.11506055845E+03  0.00000000000E+00 0. -1.
         11    1    4    4    0    0 -0.28816214293E+02 -0.32689577498E+02  0.77627067153E+02  0.89022155882E+02  0.00000000000E+00 0.  1.
</event>
<event>
 8    1  0.3654190E-009  0.2010246E+03  0.7561462E-02  0.1148877E+00
         -4   -1    0    0    0  501 -0.00000000000E+00  0.00000000000E+00  0.29637846486E+02  0.29637846486E+02  0.00000000000E+00 0.  1.
          4   -1    0    0  501    0  0.00000000000E+00 -0.00000000000E+00 -0.15131365716E+04  0.15131365716E+04  0.00000000000E+00 0. -1.
         25    2    1    2    0    0 -0.55469402153E+02  0.17037025215E+03 -0.65950430709E+03  0.69476345351E+03  0.12508975925E+03 0.  0.
         23    2    1    2    0    0  0.55469402153E+02 -0.17037025215E+03 -0.82399441802E+03  0.84801096458E+03  0.89738050550E+02 0.  0.
          5    1    3    3  502    0 -0.31925127091E+02 -0.55876066022E+01 -0.19020383475E+03  0.19299068952E+03  0.41800000000E+01 0.  1.
         -5    1    3    3    0  502 -0.23544275062E+02  0.17595785875E+03 -0.46930047234E+03  0.50177276399E+03  0.41800000000E+01 0.  1.
        -11    1    4    4    0    0  0.57328543304E+02 -0.66054878247E+02 -0.25639871612E+03  0.27090609157E+03  0.00000000000E+00 0. -1.
         11    1    4    4    0    0 -0.18591411511E+01 -0.10431537390E+03 -0.56759570190E+03  0.57710487301E+03  0.00000000000E+00 0.  1.
</event>
<event>
 8    1  0.3654190E-009  0.8587913E+02  0.7561462E-02  0.1313149E+00
          2   -1    0    0  501    0  0.00000000000E+00  0.00000000000E+00  0.54689656874E+02  0.54689656874E+02  0.00000000000E+00 0. -1.
         -2   -1    0    0    0  501 -0.00000000000E+00 -0.00000000000E+00 -0.22496384423E+03  0.22496384423E+03  0.00000000000E+00 0.  1.
         25    2    1    2    0    0  0.78150639120E+01 -0.23030088142E+02 -0.11585469645E+03  0.17222374686E+03  0.12508896077E+03 0.  0.
         23    2    1    2    0    0 -0.78150639120E+01  0.23030088142E+02 -0.54419490899E+02  0.10742975424E+03  0.89376791862E+02 0.  0.
          5    1    3    3  502    0 -0.30503866547E+02  0.28415537259E+02 -0.25770200208E+01  0.41976684769E+02  0.41800000000E+01 0.  1.
         -5    1    3    3    0  502  0.38318930459E+02 -0.51445625401E+02 -0.11327767643E+03  0.13024706209E+03  0.41800000000E+01 0.  1.
        -11    1    4    4    0    0  0.66511105669E+01  0.41548525014E+02  0.60914457605E+01  0.42516148862E+02  0.00000000000E+00 0. -1.
         11    1    4    4    0    0 -0.14466174479E+02 -0.18518436872E+02 -0.60510936660E+02  0.64913605382E+02  0.00000000000E+00 0.  1.
</event>
<event>
 8    1  0.3654190E-009  0.1363237E+03  0.7561462E-02  0.1218363E+00
          1   -1    0    0  501    0  0.00000000000E+00  0.00000000000E+00  0.32041502658E+03  0.32041502658E+03  0.00000000000E+00 0. -1.
         -1   -1    0    0    0  501 -0.00000000000E+00 -0.00000000000E+00 -0.70270460924E+02  0.70270460924E+02  0.00000000000E+00 0.  1.
         25    2    1    2    0    0 -0.77655134089E+02  0.49627906426E+02  0.74386415316E+02  0.17226073164E+03  0.12508865630E+03 0.  0.
         23    2    1    2    0    0  0.77655134089E+02 -0.49627906426E+02  0.17575815034E+03  0.21842475586E+03  0.91242520877E+02 0.  0.
          5    1    3    3  502    0 -0.10404182984E+03  0.63927297868E+02  0.45454180310E+02  0.13036470641E+03  0.41800000000E+01 0. -1.
         -5    1    3    3    0  502  0.26386695748E+02 -0.14299391442E+02  0.28932235005E+02  0.41896025236E+02  0.41800000000E+01 0. -1.
        -11    1    4    4    0    0  0.16515518221E+02  0.21019714712E+02  0.10771103450E+02  0.28820260550E+02  0.00000000000E+00 0.  1.
         11    1    4    4    0    0  0.61139615868E+02 -0.70647621138E+02  0.16498704689E+03  0.18960449531E+03  0.00000000000E+00 0. -1.
</event>
<event>
 8    1  0.3654190E-009  0.1048129E+03  0.7561462E-02  0.1270489E+00
          1   -1    0    0  501    0  0.00000000000E+00  0.00000000000E+00  0.16654236079E+02  0.16654236079E+02  0.00000000000E+00 0. -1.
         -1   -1    0    0    0  501 -0.00000000000E+00 -0.00000000000E+00 -0.76363079900E+03  0.76363079900E+03  0.00000000000E+00 0.  1.
         25    2    1    2    0    0  0.12106488673E+02 -0.25395344097E+02 -0.47776567105E+03  0.49466978426E+03  0.12508664379E+03 0.  0.
         23    2    1    2    0    0 -0.12106488673E+02  0.25395344097E+02 -0.26921089187E+03  0.28561525082E+03  0.91159621707E+02 0.  0.
          5    1    3    3  502    0 -0.14142788608E+02  0.44489919615E+02 -0.11327031221E+03  0.12258469499E+03  0.41800000000E+01 0. -1.
         -5    1    3    3    0  502  0.26249277281E+02 -0.69885263713E+02 -0.36449535884E+03  0.37208508927E+03  0.41800000000E+01 0. -1.
        -11    1    4    4    0    0  0.35274802210E+02  0.25009408646E+01 -0.16643971474E+03  0.17015506169E+03  0.00000000000E+00 0.  1.
         11    1    4    4    0    0 -0.47381290883E+02  0.22894403233E+02 -0.10277117713E+03  0.11546018913E+03  0.00000000000E+00 0. -1.
</event>
<event>
 8    1  0.3654190E-009  0.1033716E+03  0.7561462E-02  0.1273362E+00
          2   -1    0    0  501    0  0.00000000000E+00  0.00000000000E+00  0.47785507147E+03  0.47785507147E+03  0.00000000000E+00 0.  1.
         -2   -1    0    0    0  501 -0.00000000000E+00 -0.00000000000E+00 -0.29476032141E+02  0.29476032141E+02  0.00000000000E+00 0. -1.
         25    2    1    2    0    0  0.33169628632E+02 -0.24286710377E+02  0.19028684459E+03  0.23140834040E+03  0.12510263073E+03 0.  0.
         23    2    1    2    0    0 -0.33169628632E+02  0.24286710377E+02  0.25809219474E+03  0.27592276322E+03  0.88497015270E+02 0.  0.
          5    1    3    3  502    0 -0.36192430069E+02 -0.12568553260E+00  0.13375470741E+03  0.13862792628E+03  0.41800000000E+01 0.  1.
         -5    1    3    3    0  502  0.69362058701E+02 -0.24161024844E+02  0.56532137186E+02  0.92780414116E+02  0.41800000000E+01 0.  1.
        -11    1    4    4    0    0  0.83238997968E+01  0.48157496959E+02  0.14840217531E+03  0.15624223967E+03  0.00000000000E+00 0. -1.
         11    1    4    4    0    0 -0.41493528429E+02 -0.23870786583E+02  0.10969001943E+03  0.11968052355E+03  0.00000000000E+00 0.  1.
</event>
<event>
 8    1  0.3654190E-009  0.2707622E+03  0.7561462E-02  0.1100844E+00
          1   -1    0    0  501    0  0.00000000000E+00  0.00000000000E+00  0.37199520184E+03  0.37199520184E+03  0.00000000000E+00 0. -1.
         -1   -1    0    0    0  501 -0.00000000000E+00 -0.00000000000E+00 -0.22923871143E+03  0.22923871143E+03  0.00000000000E+00 0.  1.
         25    2    1    2    0    0 -0.25267464006E+03 -0.74049603574E+02  0.13914350813E+03  0.32301225035E+03  0.12509268765E+03 0.  0.
         23    2    1    2    0    0  0.25267464006E+03  0.74049603574E+02  0.36129822760E+01  0.27822166292E+03  0.89813264941E+02 0.  0.
          5    1    3    3  502    0 -0.19731432332E+03 -0.57202451802E+02  0.16097001116E+03  0.26102467235E+03  0.41800000000E+01 0.  1.
         -5    1    3    3    0  502 -0.55360316738E+02 -0.16847151772E+02 -0.21826503032E+02  0.61987578003E+02  0.41800000000E+01 0.  1.
        -11    1    4    4    0    0  0.18461738215E+02  0.36388544693E+02  0.40031627280E+01  0.40999844812E+02  0.00000000000E+00 0.  1.
         11    1    4    4    0    0  0.23421290184E+03  0.37661058881E+02 -0.39018045194E+00  0.23722181811E+03  0.00000000000E+00 0. -1.
</event>
<event>
 8    1  0.3654190E-009  0.1049206E+03  0.7561462E-02  0.1270276E+00
         -2   -1    0    0    0  501 -0.00000000000E+00  0.00000000000E+00  0.86097175149E+02  0.86097175149E+02  0.00000000000E+00 0. -1.
          2   -1    0    0  501    0  0.00000000000E+00 -0.00000000000E+00 -0.14718169612E+03  0.14718169612E+03  0.00000000000E+00 0.  1.
         25    2    1    2    0    0  0.21712430583E+02  0.18261230011E+02 -0.44839990146E+02  0.13587873579E+03  0.12508998346E+03 0.  0.
         23    2    1    2    0    0 -0.21712430583E+02 -0.18261230011E+02 -0.16244530826E+02  0.97400135479E+02  0.91749656382E+02 0.  0.
          5    1    3    3  502    0 -0.16695169583E+02  0.62105788470E+02 -0.42880070618E+02  0.77408206963E+02  0.41800000000E+01 0.  1.
         -5    1    3    3    0  502  0.38407600166E+02 -0.43844558460E+02 -0.19599195280E+01  0.58470528830E+02  0.41800000000E+01 0.  1.
        -11    1    4    4    0    0  0.30054430196E+02 -0.18305569416E+02 -0.27211853229E+02  0.44484239931E+02  0.00000000000E+00 0.  1.
         11    1    4    4    0    0 -0.51766860779E+02  0.44339405691E-01  0.10967322403E+02  0.52915895548E+02  0.00000000000E+00 0. -1.
</event>
<event>
 8    1  0.3654190E-009  0.1252531E+03  0.7561462E-02  0.1234674E+00
         -2   -1    0    0    0  501 -0.00000000000E+00  0.00000000000E+00  0.88351001446E+02  0.88351001446E+02  0.00000000000E+00 0.  1.
          2   -1    0    0  501    0  0.00000000000E+00 -0.00000000000E+00 -0.22753412091E+03  0.22753412091E+03  0.00000000000E+00 0. -1.
         25    2    1    2    0    0  0.77154104743E+02  0.34163260300E+02 -0.40504643209E+02  0.15623018652E+03  0.12508941133E+03 0.  0.
         23    2    1    2    0    0 -0.77154104743E+02 -0.34163260300E+02 -0.98678476259E+02  0.15965493584E+03  0.92910562516E+02 0.  0.
          5    1    3    3  502    0  0.49583110303E+02  0.66019904675E+02  0.17415547955E+02  0.84486012755E+02  0.41800000000E+01 0.  1.
         -5    1    3    3    0  502  0.27570994440E+02 -0.31856644375E+02 -0.57920191165E+02  0.71744173769E+02  0.41800000000E+01 0.  1.
        -11    1    4    4    0    0  0.12250855991E+02  0.18160453614E+02 -0.16425398489E+02  0.27380271428E+02  0.00000000000E+00 0. -1.
         11    1    4    4    0    0 -0.89404960734E+02 -0.52323713914E+02 -0.82253077771E+02  0.13227466441E+03  0.00000000000E+00 0.  1.
</event>
<event>
 8    1  0.3654190E-009  0.1012413E+03  0.7561462E-02  0.1277707E+00
          1   -1    0    0  501    0  0.00000000000E+00  0.00000000000E+00  0.93165032518E+02  0.93165032518E+02  0.00000000000E+00 0. -1.
         -1   -1    0    0    0  501 -0.00000000000E+00 -0.00000000000E+00 -0.14212941050E+03  0.14212941050E+03  0.00000000000E+00 0.  1.
         25    2    1    2    0    0  0.13680635161E+01 -0.44275057292E+02 -0.35631613023E+02  0.13740268725E+03  0.12509090423E+03 0.  0.
         23    2    1    2    0    0 -0.13680635161E+01  0.44275057292E+02 -0.13332764961E+02  0.97891755769E+02  0.86272132987E+02 0.  0.
          5    1    3    3  502    0 -0.38799692550E+02  0.21736470832E+02 -0.39907415676E+02  0.59899620467E+02  0.41800000000E+01 0. -1.
         -5    1    3    3    0  502  0.40167756066E+02 -0.66011528124E+02  0.42758026527E+01  0.77503066784E+02  0.41800000000E+01 0. -1.
        -11    1    4    4    0    0 -0.34217409916E+02  0.20652440049E+02 -0.33986766146E+02  0.52463841781E+02  0.00000000000E+00 0.  1.
         11    1    4    4    0    0  0.32849346400E+02  0.23622617243E+02  0.20654001185E+02  0.45427913988E+02  0.00000000000E+00 0. -1.
</event>
<event>
 8    1  0.3654190E-009  0.1432270E+03  0.7561462E-02  0.1209052E+00
         -2   -1    0    0    0  501 -0.00000000000E+00  0.00000000000E+00  0.61751573637E+02  0.61751573637E+02  0.00000000000E+00 0.  1.
          2   -1    0    0  501    0  0.00000000000E+00 -0.00000000000E+00 -0.41008644477E+03  0.41008644477E+03  0.00000000000E+00 0. -1.
         25    2    1    2    0    0 -0.12539013391E+02 -0.11282358818E+03 -0.15522818568E+03  0.22941149047E+03  0.12508978144E+03 0.  0.
         23    2    1    2    0    0  0.12539013391E+02  0.11282358818E+03 -0.19310668545E+03  0.24242652794E+03  0.92704048333E+02 0.  0.
          5    1    3    3  502    0 -0.47813868434E+02 -0.93067528715E+02 -0.15701110871E+03  0.18872649939E+03  0.41800000000E+01 0. -1.
         -5    1    3    3    0  502  0.35274855044E+02 -0.19756059468E+02  0.17829230241E+01  0.40684991072E+02  0.41800000000E+01 0. -1.
        -11    1    4    4    0    0  0.36296233947E+02  0.11154481638E+03 -0.13059915481E+03  0.17554430181E+03  0.00000000000E+00 0.  1.
         11    1    4    4    0    0 -0.23757220557E+02  0.12787718014E+01 -0.62507530639E+02  0.66882226133E+02  0.00000000000E+00 0. -1.
</event>
<event>
 8    1  0.3654190E-009  0.2185943E+03  0.7561462E-02  0.1134935E+00
          1   -1    0    0  501    0  0.00000000000E+00  0.00000000000E+00  0.16222723815E+04  0.16222723815E+04  0.00000000000E+00 0. -1.
         -1   -1    0    0    0  501 -0.00000000000E+00 -0.00000000000E+00 -0.42022731216E+02  0.42022731216E+02  0.00000000000E+00 0.  1.
         25    2    1    2    0    0  0.19077434345E+03 -0.58525117547E+02  0.12173255004E+04  0.12398988570E+04  0.12509101523E+03 0.  0.
         23    2    1    2    0    0 -0.19077434345E+03  0.58525117547E+02  0.36292414990E+03  0.42439625577E+03  0.92618593279E+02 0.  0.
          5    1    3    3  502    0  0.19357016816E+03 -0.29996886703E+02  0.89084263459E+03  0.91213337578E+03  0.41800000000E+01 0. -1.
         -5    1    3    3    0  502 -0.27958247124E+01 -0.28528230843E+02  0.32648286580E+03  0.32776548118E+03  0.41800000000E+01 0. -1.
        -11    1    4    4    0    0 -0.58689225925E+02  0.54587811049E+02  0.19415341309E+03  0.21004714273E+03  0.00000000000E+00 0. -1.
         11    1    4    4    0    0 -0.13208511753E+03  0.39373064974E+01  0.16877073682E+03  0.21434911304E+03  0.00000000000E+00 0.  1.
</event>
<event>
 8    1  0.3654190E-009  0.1358611E+03  0.7561462E-02  0.1219009E+00
          2   -1    0    0  501    0  0.00000000000E+00  0.00000000000E+00  0.35809634530E+03  0.35809634530E+03  0.00000000000E+00 0. -1.
         -2   -1    0    0    0  501 -0.00000000000E+00 -0.00000000000E+00 -0.11770905993E+03  0.11770905993E+03  0.00000000000E+00 0.  1.
         25    2    1    2    0    0 -0.79276672784E+02 -0.65892603838E+02  0.28739535255E+03  0.32995389585E+03  0.12508740396E+03 0.  0.
         23    2    1    2    0    0  0.79276672784E+02  0.65892603838E+02 -0.47008067180E+02  0.14585150937E+03  0.91849215121E+02 0.  0.
          5    1    3    3  502    0  0.29746628466E+02 -0.68052522885E+01  0.24880799461E+02  0.39594190806E+02  0.41800000000E+01 0.  1.
         -5    1    3    3    0  502 -0.10902330125E+03 -0.59087351550E+02  0.26251455309E+03  0.29035970504E+03  0.41800000000E+01 0.  1.
        -11    1    4    4    0    0  0.61574858096E+02  0.15587240198E+02 -0.63714950764E+02  0.89966772519E+02  0.00000000000E+00 0.  1.
         11    1    4    4    0    0  0.17701814687E+02  0.50305363641E+02  0.16706883584E+02  0.55884736855E+02  0.00000000000E+00 0. -1.
</event>
<event>
 8    1  0.3654190E-009  0.1429687E+03  0.7561462E-02  0.1209389E+00
         -1   -1    0    0    0  501 -0.00000000000E+00  0.00000000000E+00  0.33631440561E+02  0.33631440561E+02  0.00000000000E+00 0.  1.
          1   -1    0    0  501    0  0.00000000000E+00 -0.00000000000E+00 -0.76214497133E+03  0.76214497133E+03  0.00000000000E+00 0. -1.
         25    2    1    2    0    0  0.71167655867E+02 -0.89869007299E+02 -0.32798883523E+03  0.36927898508E+03  0.12509603939E+03 0.  0.
         23    2    1    2    0    0 -0.71167655867E+02  0.89869007299E+02 -0.40052469554E+03  0.42649742681E+03  0.91316754359E+02 0.  0.
          5    1    3    3  502    0  0.22718422220E+02  0.31169384754E+02 -0.64474960603E+02  0.75247260408E+02  0.41800000000E+01 0. -1.
         -5    1    3    3    0  502  0.48449233646E+02 -0.12103839205E+03 -0.26351387463E+03  0.29403172467E+03  0.41800000000E+01 0. -1.
        -11    1    4    4    0    0 -0.47480810076E+02  0.74892210229E+02 -0.38369357179E+03  0.39380709428E+03  0.00000000000E+00 0. -1.
         11    1    4    4    0    0 -0.23686845791E+02  0.14976797070E+02 -0.16831123751E+02  0.32690332527E+02  0.00000000000E+00 0.  1.
</event>
<event>
 8    1  0.3654190E-009  0.2583536E+03  0.7561462E-02  0.1108136E+00
          2   -1    0    0  501    0  0.00000000000E+00  0.00000000000E+00  0.51562961954E+03  0.51562961954E+03  0.00000000000E+00 0. -1.
         -2   -1    0    0    0  501 -0.00000000000E+00 -0.00000000000E+00 -0.14848356616E+03  0.14848356616E+03  0.00000000000E+00 0.  1.
         25    2    1    2    0    0  0.37026605008E+02  0.23711317503E+03  0.89716774051E+02  0.28511460427E+03  0.12509041039E+03 0.  0.
         23    2    1    2    0    0 -0.37026605008E+02 -0.23711317503E+03  0.27742927933E+03  0.37899858143E+03  0.95285321261E+02 0.  0.
          5    1    3    3  502    0 -0.33517727006E+02  0.92820442198E+02  0.74512783742E+02  0.12372833085E+03  0.41800000000E+01 0. -1.
         -5    1    3    3    0  502  0.70544332014E+02  0.14429273283E+03  0.15203990308E+02  0.16138627342E+03  0.41800000000E+01 0. -1.
        -11    1    4    4    0    0  0.17510645166E+02 -0.16947505645E+03  0.16805535860E+03  0.23931364568E+03  0.00000000000E+00 0.  1.
         11    1    4    4    0    0 -0.54537250174E+02 -0.67638118578E+02  0.10937392072E+03  0.13968493575E+03  0.00000000000E+00 0. -1.
</event>
<event>
 8    1  0.3654190E-009  0.1235214E+03  0.7561462E-02  0.1237398E+00
         -2   -1    0    0    0  501 -0.00000000000E+00  0.00000000000E+00  0.11111366150E+03  0.11111366150E+03  0.00000000000E+00 0.  1.
          2   -1    0    0  501    0  0.00000000000E+00 -0.00000000000E+00 -0.19337882814E+03  0.19337882814E+03  0.00000000000E+00 0. -1.
         25    2    1    2    0    0  0.85119786094E+02  0.14771972421E+02 -0.77153085717E+01  0.15222551626E+03  0.12509793228E+03 0.  0.
         23    2    1    2    0    0 -0.85119786094E+02 -0.14771972421E+02 -0.74549858063E+02  0.15226697339E+03  0.10081647034E+03 0.  0.
          5    1    3    3  502    0 -0.10446235589E+02 -0.11582933861E+02  0.39255936087E+02  0.42447486532E+02  0.41800000000E+01 0. -1.
         -5    1    3    3    0  502  0.95566021683E+02  0.26354906282E+02 -0.46971244659E+02  0.10977802973E+03  0.41800000000E+01 0. -1.
        -11    1    4    4    0    0 -0.92996609869E+02 -0.42934930719E+02 -0.49508354884E+02  0.11376666878E+03  0.00000000000E+00 0.  1.
         11    1    4    4    0    0  0.78768237753E+01  0.28162958298E+02 -0.25041503179E+02  0.38500304600E+02  0.00000000000E+00 0. -1.
</event>
<event>
 8    1  0.3654190E-009  0.1447515E+03  0.7561462E-02  0.1207075E+00
         -2   -1    0    0    0  501 -0.00000000000E+00  0.00000000000E+00  0.44741157448E+03  0.44741157448E+03  0.00000000000E+00 0.  1.
          2   -1    0    0  501    0  0.00000000000E+00 -0.00000000000E+00 -0.59320162148E+02  0.59320162148E+02  0.00000000000E+00 0. -1.
         25    2    1    2    0    0  0.35981399675E+02 -0.11147100006E+03  0.15340319024E+03  0.23000027422E+03  0.12508853819E+03 0.  0.
         23    2    1    2    0    0 -0.35981399675E+02  0.11147100006E+03  0.23468822210E+03  0.27673146242E+03  0.88211652985E+02 0.  0.
          5    1    3    3  502    0 -0.10526546079E+02 -0.12191466241E+03  0.12148729020E+03  0.17248370115E+03  0.41800000000E+01 0.  1.
         -5    1    3    3    0  502  0.46507945754E+02  0.10443662354E+02  0.31915900041E+02  0.57516573064E+02  0.41800000000E+01 0.  1.
        -11    1    4    4    0    0 -0.34731974227E+02  0.74242940209E+02  0.69709346808E+02  0.10759980129E+03  0.00000000000E+00 0. -1.
         11    1    4    4    0    0 -0.12494254474E+01  0.37228059850E+02  0.16497887529E+03  0.16913166113E+03  0.00000000000E+00 0.  1.
</event>
<event>
 8    1  0.3654190E-009  0.1405665E+03  0.7561462E-02  0.1212569E+00
         -2   -1    0    0    0  501 -0.00000000000E+00  0.00000000000E+00  0.43327751115E+02  0.43327751115E+02  0.00000000000E+00 0.  1.
          2   -1    0    0  501    0  0.00000000000E+00 -0.00000000000E+00 -0.54462074113E+03  0.54462074113E+03  0.00000000000E+00 0. -1.
         25    2    1    2    0    0 -0.99308018252E+02  0.26265306625E+02 -0.25764210503E+03  0.30426574435E+03  0.12508493145E+03 0.  0.
         23    2    1    2    0    0  0.99308018252E+02 -0.26265306625E+02 -0.24365088498E+03  0.28368274789E+03  0.10275309669E+03 0.  0.
          5    1    3    3  502    0  0.18131831262E+02  0.26751470742E+02 -0.17680225392E+02  0.37073808298E+02  0.41800000000E+01 0.  1.
         -5    1    3    3    0  502 -0.11743984951E+03 -0.48616411707E+00 -0.23996187964E+03  0.26719193605E+03  0.41800000000E+01 0.  1.
        -11    1    4    4    0    0 -0.10917829991E+02 -0.17279564573E+02 -0.55935586974E+01  0.21191277980E+02  0.00000000000E+00 0.  1.
         11    1    4    4    0    0  0.11022584824E+03 -0.89857420518E+01 -0.23805732628E+03  0.26249146991E+03  0.00000000000E+00 0. -1.
</event>
<event>
 8    1  0.3654190E-009  0.1084213E+03  0.7561462E-02  0.1263522E+00
          2   -1    0    0  501    0  0.00000000000E+00  0.00000000000E+00  0.86715503356E+02  0.86715503356E+02  0.00000000000E+00 0. -1.
         -2   -1    0    0    0  501 -0.00000000000E+00 -0.00000000000E+00 -0.14998757806E+03  0.14998757806E+03  0.00000000000E+00 0.  1.
         25    2    1    2    0    0 -0.65533144807E+01  0.11904560812E+02 -0.67880659659E+02  0.14296973538E+03  0.12509155359E+03 0.  0.
         23    2    1    2    0    0  0.65533144807E+01 -0.11904560812E+02  0.46085849535E+01  0.93733346036E+02  0.92628487006E+02 0.  0.
          5    1    3    3  502    0  0.35509674607E+02  0.54497445061E+02 -0.28132358042E+02  0.70991622590E+02  0.41800000000E+01 0. -1.
         -5    1    3    3    0  502 -0.42062989088E+02 -0.42592884249E+02 -0.39748301617E+02  0.71978112792E+02  0.41800000000E+01 0. -1.
        -11    1    4    4    0    0 -0.41910249087E+02 -0.10338366889E+02 -0.73592795990E+01  0.43789380044E+02  0.00000000000E+00 0.  1.
         11    1    4    4    0    0  0.48463563568E+02 -0.15661939231E+01  0.11967864552E+02  0.49943965992E+02  0.00000000000E+00 0. -1.
</event>
<event>
 8    1  0.3654190E-009  0.1684097E+03  0.7561462E-02  0.1179516E+00
          4   -1    0    0  501    0  0.00000000000E+00  0.00000000000E+00  0.24102342659E+03  0.24102342659E+03  0.00000000000E+00 0. -1.
         -4   -1    0    0    0  501 -0.00000000000E+00 -0.00000000000E+00 -0.29380666162E+03  0.29380666162E+03  0.00000000000E+00 0.  1.
         25    2    1    2    0    0 -0.12126725246E+03 -0.75769157622E+02 -0.22426486308E+03  0.29391953228E+03  0.12508897186E+03 0.  0.
         23    2    1    2    0    0  0.12126725246E+03  0.75769157622E+02  0.17148162805E+03  0.24091055593E+03  0.90472290974E+02 0.  0.
          5    1    3    3  502    0 -0.11220564947E+02  0.32993097745E+02 -0.37738571711E+02  0.51537537497E+02  0.41800000000E+01 0. -1.
         -5    1    3    3    0  502 -0.11004668751E+03 -0.10876225537E+03 -0.18652629136E+03  0.24238199478E+03  0.41800000000E+01 0. -1.
        -11    1    4    4    0    0  0.69070614779E+02  0.23209109697E+02  0.25479121058E+02  0.77191956892E+02  0.00000000000E+00 0. -1.
         11    1    4    4    0    0  0.52196637677E+02  0.52560047925E+02  0.14600250699E+03  0.16371859904E+03  0.00000000000E+00 0.  1.
</event>
<event>
 8    1  0.3654190E-009  0.1573286E+03  0.7561462E-02  0.1191746E+00
         -1   -1    0    0    0  501 -0.00000000000E+00  0.00000000000E+00  0.39894219801E+02  0.39894219801E+02  0.00000000000E+00 0.  1.
          1   -1    0    0  501    0  0.00000000000E+00 -0.00000000000E+00 -0.74808664164E+03  0.74808664164E+03  0.00000000000E+00 0. -1.
         25    2    1    2    0    0 -0.12958762685E+03  0.19378608290E+02 -0.31673752110E+03  0.36488303133E+03  0.12509390787E+03 0.  0.
         23    2    1    2    0    0  0.12958762685E+03 -0.19378608290E+02 -0.39145490074E+03  0.42309783011E+03  0.92770421160E+02 0.  0.
          5    1    3    3  502    0 -0.12602381237E+03  0.59745132766E+02 -0.25940919159E+03  0.29455404132E+03  0.41800000000E+01 0.  1.
         -5    1    3    3    0  502 -0.35638144810E+01 -0.40366524476E+02 -0.57328329510E+02  0.70328990013E+02  0.41800000000E+01 0.  1.
        -11    1    4    4    0    0  0.31607296588E+02  0.80964532976E+01 -0.20719846646E+02  0.38650818861E+02  0.00000000000E+00 0.  1.
         11    1    4    4    0    0  0.97980330261E+02 -0.27475061587E+02 -0.37073505409E+03  0.38444701125E+03  0.00000000000E+00 0. -1.
</event>
<event>
 8    1  0.3654190E-009  0.1126228E+03  0.7561462E-02  0.1255789E+00
         -1   -1    0    0    0  501 -0.00000000000E+00  0.00000000000E+00  0.14575038943E+03  0.14575038943E+03  0.00000000000E+00 0.  1.
          1   -1    0    0  501    0  0.00000000000E+00 -0.00000000000E+00 -0.10685497680E+03  0.10685497680E+03  0.00000000000E+00 0. -1.
         25    2    1    2    0    0 -0.42025303871E+02 -0.32646639072E+02 -0.76611558725E+01  0.13615648595E+03  0.12509183086E+03 0.  0.
         23    2    1    2    0    0  0.42025303871E+02  0.32646639072E+02  0.46556568503E+02  0.11644888027E+03  0.92525123279E+02 0.  0.
          5    1    3    3  502    0 -0.65700184961E+02  0.24989964424E+02 -0.18422482259E+02  0.72786488296E+02  0.41800000000E+01 0. -1.
         -5    1    3    3    0  502  0.23674881090E+02 -0.57636603496E+02  0.10761326386E+02  0.63369997655E+02  0.41800000000E+01 0. -1.
        -11    1    4    4    0    0  0.22394420566E+02  0.56916783707E+02  0.56926107651E+02  0.83556041507E+02  0.00000000000E+00 0.  1.
         11    1    4    4    0    0  0.19630883306E+02 -0.24270144635E+02 -0.10369539148E+02  0.32892838766E+02  0.00000000000E+00 0. -1.
</event>
<event>
 8    1  0.3654190E-009  0.1511406E+03  0.7561462E-02  0.1199078E+00
          2   -1    0    0  501    0  0.00000000000E+00  0.00000000000E+00  0.14552242336E+04  0.14552242336E+04  0.00000000000E+00 0. -1.
         -2   -1    0    0    0  501 -0.00000000000E+00 -0.00000000000E+00 -0.19598906430E+02  0.19598906430E+02  0.00000000000E+00 0.  1.
         25    2    1    2    0    0 -0.90492948763E+02  0.78820053855E+02  0.96949862068E+03  0.98487473167E+03  0.12509631057E+03 0.  0.
         23    2    1    2    0    0  0.90492948763E+02 -0.78820053855E+02  0.46612670650E+03  0.48994840837E+03  0.91508260206E+02 0.  0.
          5    1    3    3  502    0 -0.83337336770E+02  0.11093324603E+03  0.72877255842E+03  0.74187479474E+03  0.41800000000E+01 0.  1.
         -5    1    3    3    0  502 -0.71556119933E+01 -0.32113192170E+02  0.24072606226E+03  0.24299993693E+03  0.41800000000E+01 0.  1.
        -11    1    4    4    0    0  0.43871581516E+02 -0.66321113862E+01  0.58837388904E+02  0.73692190218E+02  0.00000000000E+00 0.  1.
         11    1    4    4    0    0  0.46621367247E+02 -0.72187942469E+02  0.40728931759E+03  0.41625621815E+03  0.00000000000E+00 0. -1.
</event>
<event>
 8    1  0.3654190E-009  0.1154310E+03  0.7561462E-02  0.1250831E+00
          1   -1    0    0  501    0  0.00000000000E+00  0.00000000000E+00  0.48204104502E+03  0.48204104502E+03  0.00000000000E+00 0. -1.
         -1   -1    0    0    0  501 -0.00000000000E+00 -0.00000000000E+00 -0.56619965695E+02  0.56619965695E+02  0.00000000000E+00 0.  1.
         25    2    1    2    0    0 -0.42529441841E+02  0.16194650460E+02  0.38521647778E+02  0.13857224144E+03  0.12508928261E+03 0.  0.
         23    2    1    2    0    0  0.42529441841E+02 -0.16194650460E+02  0.38689943154E+03  0.40008876927E+03  0.91152800512E+02 0.  0.
          5    1    3    3  502    0  0.17789382514E+02  0.55292090507E+02  0.30691756583E+01  0.58314403385E+02  0.41800000000E+01 0. -1.
         -5    1    3    3    0  502 -0.60318824356E+02 -0.39097440047E+02  0.35452472119E+02  0.80257838055E+02  0.41800000000E+01 0. -1.
        -11    1    4    4    0    0 -0.26869051086E+02 -0.15910114343E+02  0.15089831345E+03  0.15409535570E+03  0.00000000000E+00 0. -1.
         11    1    4    4    0    0  0.69398492928E+02 -0.28453611683E+00  0.23600111809E+03  0.24599341358E+03  0.00000000000E+00 0.  1.
</event>
<event>
 8    1  0.3654190E-009  0.6440295E+02  0.7561462E-02  0.1380232E+00
         -1   -1    0    0    0  501 -0.00000000000E+00  0.00000000000E+00  0.15756644565E+03  0.15756644565E+03  0.00000000000E+00 0. -1.
          1   -1    0    0  501    0  0.00000000000E+00 -0.00000000000E+00 -0.78808333327E+02  0.78808333327E+02  0.00000000000E+00 0.  1.
         25    2    1    2    0    0 -0.53211529759E+01  0.13596475527E+02  0.66260384830E+02  0.14230442452E+03  0.12508769654E+03 0.  0.
         23    2    1    2    0    0  0.53211529759E+01 -0.13596475527E+02  0.12497727491E+02  0.94070354450E+02  0.92086153021E+02 0.  0.
          5    1    3    3  502    0 -0.19128448548E+02  0.13934713853E+01  0.10092948483E+03  0.10282058459E+03  0.41800000000E+01 0. -1.
         -5    1    3    3    0  502  0.13807295572E+02  0.12203004142E+02 -0.34669100003E+02  0.39483839936E+02  0.41800000000E+01 0. -1.
        -11    1    4    4    0    0  0.40430279919E+02  0.16858115033E+02  0.17818482453E+02  0.47289553749E+02  0.00000000000E+00 0. -1.
         11    1    4    4    0    0 -0.35109126943E+02 -0.30454590560E+02 -0.53207549627E+01  0.46780800701E+02  0.00000000000E+00 0.  1.
</event>
<event>
 8    1  0.3654190E-009  0.1605874E+03  0.7561462E-02  0.1188035E+00
          1   -1    0    0  501    0  0.00000000000E+00  0.00000000000E+00  0.20927603106E+03  0.20927603106E+03  0.00000000000E+00 0. -1.
         -1   -1    0    0    0  501 -0.00000000000E+00 -0.00000000000E+00 -0.29750668758E+03  0.29750668758E+03  0.00000000000E+00 0.  1.
         25    2    1    2    0    0 -0.79805808060E+02  0.11981253390E+03  0.12898776340E+03  0.23023717816E+03  0.12508918747E+03 0.  0.
         23    2    1    2    0    0  0.79805808060E+02 -0.11981253390E+03 -0.21721841991E+03  0.27654554047E+03  0.92572046135E+02 0.  0.
          5    1    3    3  502    0 -0.56486667646E+02  0.29252374352E+02  0.12040128942E+03  0.13623651464E+03  0.41800000000E+01 0.  1.
         -5    1    3    3    0  502 -0.23319140414E+02  0.90560159552E+02  0.85864739781E+01  0.94000663525E+02  0.41800000000E+01 0.  1.
        -11    1    4    4    0    0  0.69422208048E+02 -0.33857680235E+02 -0.14292268784E+03  0.16245824134E+03  0.00000000000E+00 0.  1.
         11    1    4    4    0    0  0.10383600011E+02 -0.85954853669E+02 -0.74295732075E+02  0.11408729913E+03  0.00000000000E+00 0. -1.
</event>
<event>
 8    1  0.3654190E-009  0.8862097E+02  0.7561462E-02  0.1306226E+00
          1   -1    0    0  501    0  0.00000000000E+00  0.00000000000E+00  0.20807671432E+03  0.20807671432E+03  0.00000000000E+00 0. -1.
         -1   -1    0    0    0  501 -0.00000000000E+00 -0.00000000000E+00 -0.66083665991E+02  0.66083665991E+02  0.00000000000E+00 0.  1.
         25    2    1    2    0    0 -0.28614757073E+02 -0.11694089072E+02  0.11334221858E+03  0.17160980624E+03  0.12509161060E+03 0.  0.
         23    2    1    2    0    0  0.28614757073E+02  0.11694089072E+02  0.28650829751E+02  0.10255057407E+03  0.93489005535E+02 0.  0.
          5    1    3    3  502    0  0.16465048683E+02  0.45925741876E+02  0.19886479866E+02  0.52850885295E+02  0.41800000000E+01 0.  1.
         -5    1    3    3    0  502 -0.45079805756E+02 -0.57619830947E+02  0.93455738717E+02  0.11875892095E+03  0.41800000000E+01 0.  1.
        -11    1    4    4    0    0 -0.12173069248E+02  0.67258972660E+01  0.52996063933E+02  0.54790547554E+02  0.00000000000E+00 0. -1.
         11    1    4    4    0    0  0.40787826321E+02  0.49681918056E+01 -0.24345234181E+02  0.47760026519E+02  0.00000000000E+00 0.  1.
</event>
<event>
 8    1  0.3654190E-009  0.1677937E+03  0.7561462E-02  0.1180168E+00
          1   -1    0    0  501    0  0.00000000000E+00  0.00000000000E+00  0.52944727886E+02  0.52944727886E+02  0.00000000000E+00 0. -1.
         -1   -1    0    0    0  501 -0.00000000000E+00 -0.00000000000E+00 -0.69775665011E+03  0.69775665011E+03  0.00000000000E+00 0.  1.
         25    2    1    2    0    0 -0.57228722551E+02 -0.14578095380E+03 -0.32772256928E+03  0.38415721441E+03  0.12508984689E+03 0.  0.
         23    2    1    2    0    0  0.57228722551E+02  0.14578095380E+03 -0.31708935294E+03  0.36654416358E+03  0.96341854505E+02 0.  0.
          5    1    3    3  502    0 -0.48118382599E+02 -0.12245550863E+03 -0.13068444843E+03  0.18549023640E+03  0.41800000000E+01 0. -1.
         -5    1    3    3    0  502 -0.91103399525E+01 -0.23325445174E+02 -0.19703812085E+03  0.19866697802E+03  0.41800000000E+01 0. -1.
        -11    1    4    4    0    0  0.78314948490E+02  0.92136791772E+02 -0.17048330060E+03  0.20901429458E+03  0.00000000000E+00 0.  1.
         11    1    4    4    0    0 -0.21086225939E+02  0.53644162029E+02 -0.14660605234E+03  0.15752986900E+03  0.00000000000E+00 0. -1.
</event>
<event>
 8    1  0.3654190E-009  0.9005717E+02  0.7561462E-02  0.1302713E+00
         -2   -1    0    0    0  501 -0.00000000000E+00  0.00000000000E+00  0.11628256602E+03  0.11628256602E+03  0.00000000000E+00 0.  1.
          2   -1    0    0  501    0  0.00000000000E+00 -0.00000000000E+00 -0.13183599280E+03  0.13183599280E+03  0.00000000000E+00 0. -1.
         25    2    1    2    0    0 -0.51286005930E+02 -0.30822677626E+02 -0.85964267648E+00  0.13866804354E+03  0.12509114858E+03 0.  0.
         23    2    1    2    0    0  0.51286005930E+02  0.30822677626E+02 -0.14693784101E+02  0.10945051528E+03  0.90461130570E+02 0.  0.
          5    1    3    3  502    0 -0.45301149852E+02 -0.53718773755E+01  0.58128760249E+02  0.74009975088E+02  0.41800000000E+01 0. -1.
         -5    1    3    3    0  502 -0.59848560777E+01 -0.25450800250E+02 -0.58988402925E+02  0.64658068447E+02  0.41800000000E+01 0. -1.
        -11    1    4    4    0    0  0.71452835352E+02  0.55272725075E+00 -0.15291834334E+02  0.73072931955E+02  0.00000000000E+00 0. -1.
         11    1    4    4    0    0 -0.20166829421E+02  0.30269950375E+02  0.59805023287E+00  0.36377583327E+02  0.00000000000E+00 0.  1.
</event>
<event>
 8    1  0.3654190E-009  0.1305039E+03  0.7561462E-02  0.1226710E+00
          1   -1    0    0  501    0  0.00000000000E+00  0.00000000000E+00  0.40244747426E+03  0.40244747426E+03  0.00000000000E+00 0. -1.
         -1   -1    0    0    0  501 -0.00000000000E+00 -0.00000000000E+00 -0.59886284432E+02  0.59886284432E+02  0.00000000000E+00 0.  1.
         25    2    1    2    0    0  0.14256126458E+01  0.10511919036E+03  0.23524034308E+03  0.28642341596E+03  0.12509307593E+03 0.  0.
         23    2    1    2    0    0 -0.14256126458E+01 -0.10511919036E+03  0.10732084675E+03  0.17591034273E+03  0.91512884232E+02 0.  0.
          5    1    3    3  502    0  0.94684496041E+01  0.12934077079E+03  0.22255524216E+03  0.25761792395E+03  0.41800000000E+01 0.  1.
         -5    1    3    3    0  502 -0.80428369582E+01 -0.24221580427E+02  0.12685100917E+02  0.28805492011E+02  0.41800000000E+01 0.  1.
        -11    1    4    4    0    0 -0.30005676147E+01 -0.17298113758E+02  0.82906781612E+02  0.84745280594E+02  0.00000000000E+00 0. -1.
         11    1    4    4    0    0  0.15749549689E+01 -0.87821076600E+02  0.24414065137E+02  0.91165062139E+02  0.00000000000E+00 0.  1.
</event>
<event>
 8    1  0.3654190E-009  0.9611322E+02  0.7561462E-02  0.1288688E+00
          2   -1    0    0  501    0  0.00000000000E+00  0.00000000000E+00  0.27830580071E+02  0.27830580071E+02  0.00000000000E+00 0. -1.
         -2   -1    0    0    0  501 -0.00000000000E+00 -0.00000000000E+00 -0.50874859736E+03  0.50874859736E+03  0.00000000000E+00 0.  1.
         25    2    1    2    0    0  0.20919564592E+02  0.27694469586E+02 -0.34654900604E+03  0.37006538550E+03  0.12509022396E+03 0.  0.
         23    2    1    2    0    0 -0.20919564592E+02 -0.27694469586E+02 -0.13436901125E+03  0.16651379194E+03  0.92017389069E+02 0.  0.
          5    1    3    3  502    0 -0.19015768250E+02  0.51401719099E+02 -0.29692937084E+03  0.30197393901E+03  0.41800000000E+01 0.  1.
         -5    1    3    3    0  502  0.39935332842E+02 -0.23707249513E+02 -0.49619635193E+02  0.68091446492E+02  0.41800000000E+01 0.  1.
        -11    1    4    4    0    0  0.31956561306E+02 -0.18609522875E+02 -0.88544858573E+02  0.95956907682E+02  0.00000000000E+00 0.  1.
         11    1    4    4    0    0 -0.52876125897E+02 -0.90849467107E+01 -0.45824152681E+02  0.70556884254E+02  0.00000000000E+00 0. -1.
</event>
<event>
 8    1  0.3654190E-009  0.1105546E+03  0.7561462E-02  0.1259546E+00
         -1   -1    0    0    0  501 -0.00000000000E+00  0.00000000000E+00  0.88531970904E+02  0.88531970904E+02  0.00000000000E+00 0.  1.
          1   -1    0    0  501    0  0.00000000000E+00 -0.00000000000E+00 -0.16437630386E+03  0.16437630386E+03  0.00000000000E+00 0. -1.
         25    2    1    2    0    0 -0.24620770811E+02  0.14417097681E+02 -0.86267270820E+02  0.15462312465E+03  0.12510888698E+03 0.  0.
         23    2    1    2    0    0  0.24620770811E+02 -0.14417097681E+02  0.10422937865E+02  0.98285150110E+02  0.93473515166E+02 0.  0.
          5    1    3    3  502    0  0.31708160684E+02 -0.35994572686E+02 -0.53930785646E+02  0.72298124161E+02  0.41800000000E+01 0. -1.
         -5    1    3    3    0  502 -0.56328931495E+02  0.50411670367E+02 -0.32336485174E+02  0.82325000492E+02  0.41800000000E+01 0. -1.
        -11    1    4    4    0    0 -0.35771627516E+02 -0.46376925415E+01 -0.82623541161E+00  0.36080468292E+02  0.00000000000E+00 0. -1.
         11    1    4    4    0    0  0.60392398327E+02 -0.97794051396E+01  0.11249173277E+02  0.62204681817E+02  0.00000000000E+00 0.  1.
</event>
<event>
 8    1  0.3654190E-009  0.1252495E+03  0.7561462E-02  0.1234680E+00
         -1   -1    0    0    0  501 -0.00000000000E+00  0.00000000000E+00  0.51927125838E+03  0.51927125838E+03  0.00000000000E+00 0. -1.
          1   -1    0    0  501    0  0.00000000000E+00 -0.00000000000E+00 -0.60996471333E+02  0.60996471333E+02  0.00000000000E+00 0.  1.
         25    2    1    2    0    0  0.20987076762E+02 -0.81541201218E+02  0.42528917893E+03  0.45122837163E+03  0.12508690086E+03 0.  0.
         23    2    1    2    0    0 -0.20987076762E+02  0.81541201218E+02  0.32985608116E+02  0.12903935808E+03  0.92052597482E+02 0.  0.
          5    1    3    3  502    0  0.10427965751E+02  0.32460736736E+02  0.13090807901E+03  0.13533971867E+03  0.41800000000E+01 0.  1.
         -5    1    3    3    0  502  0.10559111011E+02 -0.11400193795E+03  0.29438109992E+03  0.31588865297E+03  0.41800000000E+01 0.  1.
        -11    1    4    4    0    0  0.18460259904E+02  0.13270675714E+02 -0.22997480602E+02  0.32338462296E+02  0.00000000000E+00 0.  1.
         11    1    4    4    0    0 -0.39447336665E+02  0.68270525504E+02  0.55983088718E+02  0.96700895782E+02  0.00000000000E+00 0. -1.
</event>
<event>
 8    1  0.3654190E-009  0.1018664E+03  0.7561462E-02  0.1276419E+00
          1   -1    0    0  501    0  0.00000000000E+00  0.00000000000E+00  0.29681391740E+03  0.29681391740E+03  0.00000000000E+00 0. -1.
         -1   -1    0    0    0  501 -0.00000000000E+00 -0.00000000000E+00 -0.49470774344E+02  0.49470774344E+02  0.00000000000E+00 0.  1.
         25    2    1    2    0    0 -0.49883889909E+02 -0.13287909294E+02  0.16638835445E+03  0.21446214286E+03  0.12507579788E+03 0.  0.
         23    2    1    2    0    0  0.49883889909E+02  0.13287909294E+02  0.80954788603E+02  0.13182254889E+03  0.90324612325E+02 0.  0.
          5    1    3    3  502    0 -0.81082171550E+02 -0.39666365229E+02  0.13637612721E+03  0.16359602546E+03  0.41800000000E+01 0. -1.
         -5    1    3    3    0  502  0.31198281640E+02  0.26378455935E+02  0.30012227244E+02  0.50866117396E+02  0.41800000000E+01 0. -1.
        -11    1    4    4    0    0  0.26858509247E+02  0.32608197614E+02  0.90838949443E+02  0.10018177881E+03  0.00000000000E+00 0. -1.
         11    1    4    4    0    0  0.23025380662E+02 -0.19320288320E+02 -0.98841608392E+01  0.31640770074E+02  0.00000000000E+00 0.  1.
</event>
<event>
 8    1  0.3654190E-009  0.1026292E+03  0.7561462E-02  0.1274862E+00
         -1   -1    0    0    0  501 -0.00000000000E+00  0.00000000000E+00  0.29219471862E+03  0.29219471862E+03  0.00000000000E+00 0.  1.
          1   -1    0    0  501    0  0.00000000000E+00 -0.00000000000E+00 -0.51284903043E+02  0.51284903043E+02  0.00000000000E+00 0. -1.
         25    2    1    2    0    0  0.25042225570E+02 -0.32501363031E+01  0.64243926524E+02  0.14287320548E+03  0.12509114397E+03 0.  0.
         23    2    1    2    0    0 -0.25042225570E+02  0.32501363031E+01  0.17666588905E+03  0.20060641618E+03  0.91621075156E+02 0.  0.
          5    1    3    3  502    0  0.19314693611E+02  0.54837631056E+02  0.33004347988E+01  0.58383117757E+02  0.41800000000E+01 0. -1.
         -5    1    3    3    0  502  0.57275319589E+01 -0.58087767359E+02  0.60943491725E+02  0.84490087719E+02  0.41800000000E+01 0. -1.
        -11    1    4    4    0    0  0.11755984816E+02  0.36812840132E+02  0.42238775714E+02  0.57249476429E+02  0.00000000000E+00 0.  1.
         11    1    4    4    0    0 -0.36798210386E+02 -0.33562703829E+02  0.13442711334E+03  0.14335693976E+03  0.00000000000E+00 0. -1.
</event>
<event>
 8    1  0.3654190E-009  0.1047238E+03  0.7561462E-02  0.1270665E+00
          1   -1    0    0  501    0  0.00000000000E+00  0.00000000000E+00  0.32668162722E+02  0.32668162722E+02  0.00000000000E+00 0. -1.
         -1   -1    0    0    0  501 -0.00000000000E+00 -0.00000000000E+00 -0.61443243902E+03  0.61443243902E+03  0.00000000000E+00 0.  1.
         25    2    1    2    0    0 -0.49004966184E+02 -0.11823574531E+01 -0.49142884250E+03  0.50946191205E+03  0.12508496277E+03 0.  0.
         23    2    1    2    0    0  0.49004966184E+02  0.11823574531E+01 -0.90335433797E+02  0.13763868969E+03  0.91547985340E+02 0.  0.
          5    1    3    3  502    0  0.35253762259E+02  0.10555676452E+02 -0.66852672579E+02  0.76426450197E+02  0.41800000000E+01 0.  1.
         -5    1    3    3    0  502 -0.84258728444E+02 -0.11738033905E+02 -0.42457616992E+03  0.43303546185E+03  0.41800000000E+01 0.  1.
        -11    1    4    4    0    0  0.54792727994E+02  0.26783467384E+02 -0.93045196025E+02  0.11125199176E+03  0.00000000000E+00 0.  1.
         11    1    4    4    0    0 -0.57877618098E+01 -0.25601109931E+02  0.27097622280E+01  0.26386697933E+02  0.00000000000E+00 0. -1.
</event>
<event>
 8    1  0.3654190E-009  0.1115389E+03  0.7561462E-02  0.1257746E+00
         -2   -1    0    0    0  501 -0.00000000000E+00  0.00000000000E+00  0.16217927153E+02  0.16217927153E+02  0.00000000000E+00 0.  1.
          2   -1    0    0  501    0  0.00000000000E+00 -0.00000000000E+00 -0.10724793688E+04  0.10724793688E+04  0.00000000000E+00 0. -1.
         25    2    1    2    0    0 -0.25478467540E+02  0.60287595442E+02 -0.73460840001E+03  0.74805155481E+03  0.12509148973E+03 0.  0.
         23    2    1    2    0    0  0.25478467540E+02 -0.60287595442E+02 -0.32165304160E+03  0.34064574111E+03  0.91077413757E+02 0.  0.
          5    1    3    3  502    0  0.47548100960E+02  0.76066859454E+01 -0.19103820902E+03  0.19705774098E+03  0.41800000000E+01 0. -1.
         -5    1    3    3    0  502 -0.73026568500E+02  0.52680909497E+02 -0.54357019099E+03  0.55099381382E+03  0.41800000000E+01 0. -1.
        -11    1    4    4    0    0  0.27155893027E+02 -0.30353932800E+01 -0.20672605935E+02  0.34263869814E+02  0.00000000000E+00 0.  1.
         11    1    4    4    0    0 -0.16774254872E+01 -0.57252202162E+02 -0.30098043566E+03  0.30638187130E+03  0.00000000000E+00 0. -1.
</event>
<event>
 8    1  0.3654190E-009  0.6873654E+02  0.7561462E-02  0.1364443E+00
         -2   -1    0    0    0  501 -0.00000000000E+00  0.00000000000E+00  0.15808717860E+03  0.15808717860E+03  0.00000000000E+00 0. -1.
          2   -1    0    0  501    0  0.00000000000E+00 -0.00000000000E+00 -0.84639114869E+02  0.84639114869E+02  0.00000000000E+00 0.  1.
         25    2    1    2    0    0  0.35808187775E+02 -0.11187776287E+02  0.21918121829E+02  0.13241688757E+03  0.12508571222E+03 0.  0.
         23    2    1    2    0    0 -0.35808187775E+02  0.11187776287E+02  0.51529941897E+02  0.11030940589E+03  0.90030203077E+02 0.  0.
          5    1    3    3  502    0 -0.91682252167E+00  0.18283062340E+02  0.65488718430E+02  0.68127494991E+02  0.41800000000E+01 0.  1.
         -5    1    3    3    0  502  0.36725010296E+02 -0.29470838627E+02 -0.43570596601E+02  0.64289392584E+02  0.41800000000E+01 0.  1.
        -11    1    4    4    0    0  0.17325402091E+02  0.12718763620E+01  0.53472455266E+02  0.56223577788E+02  0.00000000000E+00 0. -1.
         11    1    4    4    0    0 -0.53133589866E+02  0.99158999252E+01 -0.19425133693E+01  0.54085828103E+02  0.00000000000E+00 0.  1.
</event>
<event>
 8    1  0.3654190E-009  0.1364863E+03  0.7561462E-02  0.1218137E+00
          4   -1    0    0  501    0  0.00000000000E+00  0.00000000000E+00  0.47824946696E+03  0.47824946696E+03  0.00000000000E+00 0. -1.
         -4   -1    0    0    0  501 -0.00000000000E+00 -0.00000000000E+00 -0.61111266804E+02  0.61111266804E+02  0.00000000000E+00 0.  1.
         25    2    1    2    0    0  0.49113369587E+02 -0.10121802043E+03  0.11431766574E+03  0.20340007325E+03  0.12508337365E+03 0.  0.
         23    2    1    2    0    0 -0.49113369587E+02  0.10121802043E+03  0.30282053441E+03  0.33596066052E+03  0.92260926835E+02 0.  0.
          5    1    3    3  502    0  0.65616520929E+02 -0.87293804533E+02  0.13467070099E+03  0.17343415533E+03  0.41800000000E+01 0.  1.
         -5    1    3    3    0  502 -0.16503151342E+02 -0.13924215902E+02 -0.20353035251E+02  0.29965917917E+02  0.41800000000E+01 0.  1.
        -11    1    4    4    0    0  0.19099931469E+02 -0.63340158634E+00  0.19723404692E+02  0.27463089272E+02  0.00000000000E+00 0. -1.
         11    1    4    4    0    0 -0.68213301056E+02  0.10185142202E+03  0.28309712972E+03  0.30849757125E+03  0.00000000000E+00 0.  1.
</event>
<event>
 8    1  0.3654190E-009  0.2192992E+03  0.7561462E-02  0.1134407E+00
          1   -1    0    0  501    0  0.00000000000E+00  0.00000000000E+00  0.19878933267E+04  0.19878933267E+04  0.00000000000E+00 0. -1.
         -1   -1    0    0    0  501 -0.00000000000E+00 -0.00000000000E+00 -0.27137575089E+02  0.27137575089E+02  0.00000000000E+00 0.  1.
         25    2    1    2    0    0 -0.19283338073E+03  0.28201437520E+02  0.12850113111E+04  0.13057107524E+04  0.12508583319E+03 0.  0.
         23    2    1    2    0    0  0.19283338073E+03 -0.28201437520E+02  0.67574444056E+03  0.70932014937E+03  0.92328173086E+02 0.  0.
          5    1    3    3  502    0 -0.77359263139E+02 -0.49652434808E+02  0.48315907294E+03  0.49184345278E+03  0.41800000000E+01 0. -1.
         -5    1    3    3    0  502 -0.11547411759E+03  0.77853872328E+02  0.80185223811E+03  0.81386729964E+03  0.41800000000E+01 0. -1.
        -11    1    4    4    0    0  0.66637852304E+02  0.23799737999E+02  0.14554832113E+03  0.16183740195E+03  0.00000000000E+00 0.  1.
         11    1    4    4    0    0  0.12619552843E+03 -0.52001175520E+02  0.53019611943E+03  0.54748274741E+03  0.00000000000E+00 0. -1.
</event>
<event>
 8    1  0.3654190E-009  0.8809703E+02  0.7561462E-02  0.1307527E+00
         -2   -1    0    0    0  501 -0.00000000000E+00  0.00000000000E+00  0.23946902781E+02  0.23946902781E+02  0.00000000000E+00 0.  1.
          2   -1    0    0  501    0  0.00000000000E+00 -0.00000000000E+00 -0.75817168568E+03  0.75817168568E+03  0.00000000000E+00 0. -1.
         25    2    1    2    0    0 -0.73027104882E+02  0.28504631173E+02 -0.44263408343E+03  0.46660185119E+03  0.12508750406E+03 0.  0.
         23    2    1    2    0    0  0.73027104882E+02 -0.28504631173E+02 -0.29159069947E+03  0.31551673727E+03  0.91543451088E+02 0.  0.
          5    1    3    3  502    0 -0.18762399043E+01 -0.13867545136E+02 -0.30892203117E+03  0.30926707362E+03  0.41800000000E+01 0.  1.
         -5    1    3    3    0  502 -0.71150864978E+02  0.42372176310E+02 -0.13371205226E+03  0.15733477757E+03  0.41800000000E+01 0.  1.
        -11    1    4    4    0    0  0.46302332511E+02 -0.21461955045E+02 -0.28150984907E+03  0.28609843871E+03  0.00000000000E+00 0.  1.
         11    1    4    4    0    0  0.26724772371E+02 -0.70426761278E+01 -0.10080850396E+02  0.29418298558E+02  0.00000000000E+00 0. -1.
</event>
<event>
 8    1  0.3654190E-009  0.1093499E+03  0.7561462E-02  0.1261779E+00
         -1   -1    0    0    0  501 -0.00000000000E+00  0.00000000000E+00  0.75720478601E+02  0.75720478601E+02  0.00000000000E+00 0.  1.
          1   -1    0    0  501    0  0.00000000000E+00 -0.00000000000E+00 -0.69724876132E+03  0.69724876132E+03  0.00000000000E+00 0. -1.
         25    2    1    2    0    0 -0.61406476751E+02 -0.13818321253E+02 -0.64457558903E+03  0.65961203202E+03  0.12509452996E+03 0.  0.
         23    2    1    2    0    0  0.61406476751E+02  0.13818321253E+02  0.23047306308E+02  0.11335720790E+03  0.91416502154E+02 0.  0.
          5    1    3    3  502    0 -0.31675891750E+02  0.40185646262E+02 -0.49670623314E+03  0.49935238331E+03  0.41800000000E+01 0.  1.
         -5    1    3    3    0  502 -0.29730585000E+02 -0.54003967516E+02 -0.14786935589E+03  0.16025964871E+03  0.41800000000E+01 0.  1.
        -11    1    4    4    0    0  0.26292336928E+02 -0.36026673276E+02  0.27207034158E+02  0.52243955403E+02  0.00000000000E+00 0.  1.
         11    1    4    4    0    0  0.35114139823E+02  0.49844994530E+02 -0.41597278498E+01  0.61113252499E+02  0.00000000000E+00 0. -1.
</event>
<event>
 8    1  0.3654190E-009  0.1132266E+03  0.7561462E-02  0.1254709E+00
          2   -1    0    0  501    0  0.00000000000E+00  0.00000000000E+00  0.36529822827E+03  0.36529822827E+03  0.00000000000E+00 0.  1.
         -2   -1    0    0    0  501 -0.00000000000E+00 -0.00000000000E+00 -0.44186635693E+02  0.44186635693E+02  0.00000000000E+00 0. -1.
         25    2    1    2    0    0  0.22204536464E+02 -0.38897273444E+02  0.25868433680E+03  0.29080720379E+03  0.12508079128E+03 0.  0.
         23    2    1    2    0    0 -0.22204536464E+02  0.38897273444E+02  0.62427255776E+02  0.11867766018E+03  0.90449905696E+02 0.  0.
          5    1    3    3  502    0 -0.12902382432E+02 -0.77759206259E+02  0.13423235204E+03  0.15572014116E+03  0.41800000000E+01 0.  1.
         -5    1    3    3    0  502  0.35106918897E+02  0.38861932815E+02  0.12445198477E+03  0.13508706263E+03  0.41800000000E+01 0.  1.
        -11    1    4    4    0    0 -0.23442095361E+02 -0.23136156603E+02  0.35232713671E+01  0.33124417254E+02  0.00000000000E+00 0. -1.
         11    1    4    4    0    0  0.12375588970E+01  0.62033430047E+02  0.58903984409E+02  0.85553242923E+02  0.00000000000E+00 0.  1.
</event>
<event>
 8    1  0.3654190E-009  0.1629145E+03  0.7561462E-02  0.1185445E+00
          2   -1    0    0  501    0  0.00000000000E+00  0.00000000000E+00  0.46136735494E+03  0.46136735494E+03  0.00000000000E+00 0. -1.
         -2   -1    0    0    0  501 -0.00000000000E+00 -0.00000000000E+00 -0.82258266395E+02  0.82258266395E+02  0.00000000000E+00 0.  1.
         25    2    1    2    0    0  0.82321113979E+02  0.98795127693E+02  0.60581313311E+02  0.18935624960E+03  0.12509376755E+03 0.  0.
         23    2    1    2    0    0 -0.82321113979E+02 -0.98795127693E+02  0.31852777523E+03  0.35426937173E+03  0.86657954559E+02 0.  0.
          5    1    3    3  502    0  0.62879241148E+02 -0.14068608473E+02  0.26477617120E+02  0.69787257577E+02  0.41800000000E+01 0. -1.
         -5    1    3    3    0  502  0.19441872831E+02  0.11286373617E+03  0.34103696191E+02  0.11956899203E+03  0.41800000000E+01 0. -1.
        -11    1    4    4    0    0 -0.22511696591E+02 -0.81274534967E+02  0.23761326046E+03  0.25213565409E+03  0.00000000000E+00 0. -1.
         11    1    4    4    0    0 -0.59809417389E+02 -0.17520592726E+02  0.80914514774E+02  0.10213371764E+03  0.00000000000E+00 0.  1.
</event>
<event>
 8    1  0.3654190E-009  0.1190547E+03  0.7561462E-02  0.1244665E+00
          1   -1    0    0  501    0  0.00000000000E+00  0.00000000000E+00  0.11088655578E+03  0.11088655578E+03  0.00000000000E+00 0. -1.
         -1   -1    0    0    0  501 -0.00000000000E+00 -0.00000000000E+00 -0.21984489128E+03  0.21984489128E+03  0.00000000000E+00 0.  1.
         25    2    1    2    0    0 -0.18412282102E+02  0.85094420376E+02 -0.13336076177E+03  0.20251846987E+03  0.12509422587E+03 0.  0.
         23    2    1    2    0    0  0.18412282102E+02 -0.85094420376E+02  0.24402426273E+02  0.12821297719E+03  0.90901136404E+02 0.  0.
          5    1    3    3  502    0 -0.59922431577E+02  0.42477891519E+02 -0.23012147000E+02  0.77085020487E+02  0.41800000000E+01 0.  1.
         -5    1    3    3    0  502  0.41510149475E+02  0.42616528857E+02 -0.11034861477E+03  0.12543344938E+03  0.41800000000E+01 0.  1.
        -11    1    4    4    0    0 -0.18227495656E+02 -0.87482464690E+01 -0.23435968797E+02  0.30951866626E+02  0.00000000000E+00 0.  1.
         11    1    4    4    0    0  0.36639777758E+02 -0.76346173907E+02  0.47838395070E+02  0.97261110560E+02  0.00000000000E+00 0. -1.
</event>
<event>
 8    1  0.3654190E-009  0.2525649E+03  0.7561462E-02  0.1111694E+00
         -2   -1    0    0    0  501 -0.00000000000E+00  0.00000000000E+00  0.52312825700E+02  0.52312825700E+02  0.00000000000E+00 0.  1.
          2   -1    0    0  501    0  0.00000000000E+00 -0.00000000000E+00 -0.16299751745E+04  0.16299751745E+04  0.00000000000E+00 0. -1.
         25    2    1    2    0    0  0.22081925319E+02  0.24007808926E+03 -0.11599988020E+04  0.11913730923E+04  0.12509006385E+03 0.  0.
         23    2    1    2    0    0 -0.22081925319E+02 -0.24007808926E+03 -0.41766354682E+03  0.49091490791E+03  0.91812352624E+02 0.  0.
          5    1    3    3  502    0  0.97234226711E+01 -0.46307420282E+01 -0.20864169338E+03  0.20896128190E+03  0.41800000000E+01 0.  1.
         -5    1    3    3    0  502  0.12358502648E+02  0.24470883129E+03 -0.95135710863E+03  0.98241181042E+03  0.41800000000E+01 0.  1.
        -11    1    4    4    0    0 -0.38672867762E+02 -0.96091577614E+02 -0.11157005375E+03  0.15224013558E+03  0.00000000000E+00 0.  1.
         11    1    4    4    0    0  0.16590942443E+02 -0.14398651165E+03 -0.30609349307E+03  0.33867477232E+03  0.00000000000E+00 0. -1.
</event>
<event>
 8    1  0.3654190E-009  0.1649221E+03  0.7561462E-02  0.1183249E+00
          1   -1    0    0  501    0  0.00000000000E+00  0.00000000000E+00  0.26953546126E+03  0.26953546126E+03  0.00000000000E+00 0. -1.
         -1   -1    0    0    0  501 -0.00000000000E+00 -0.00000000000E+00 -0.11964093498E+03  0.11964093498E+03  0.00000000000E+00 0.  1.
         25    2    1    2    0    0  0.11853246707E+03  0.84773583064E+02  0.90228983418E+02  0.21219320105E+03  0.12509268159E+03 0.  0.
         23    2    1    2    0    0 -0.11853246707E+03 -0.84773583064E+02  0.59665542867E+02  0.17698319520E+03  0.80787178684E+02 0.  0.
          5    1    3    3  502    0  0.10369832042E+03  0.98944677358E+02  0.27422832154E+02  0.14598929741E+03  0.41800000000E+01 0.  1.
         -5    1    3    3    0  502  0.14834146659E+02 -0.14171094294E+02  0.62806151264E+02  0.66203903640E+02  0.41800000000E+01 0.  1.
        -11    1    4    4    0    0 -0.11162763146E+03 -0.37524326601E+02  0.51520220537E+02  0.12854235223E+03  0.00000000000E+00 0. -1.
         11    1    4    4    0    0 -0.69048356095E+01 -0.47249256463E+02  0.81453223305E+01  0.48440842963E+02  0.00000000000E+00 0.  1.
</event>
<event>
 8    1  0.3654190E-009  0.2301666E+03  0.7561462E-02  0.1126523E+00
          1   -1    0    0  501    0  0.00000000000E+00  0.00000000000E+00  0.95447199972E+03  0.95447199972E+03  0.00000000000E+00 0. -1.
         -1   -1    0    0    0  501 -0.00000000000E+00 -0.00000000000E+00 -0.59906690621E+02  0.59906690621E+02  0.00000000000E+00 0.  1.
         25    2    1    2    0    0  0.19927212273E+03  0.75278339687E+02  0.49818381710E+03  0.55606655505E+03  0.12508673269E+03 0.  0.
         23    2    1    2    0    0 -0.19927212273E+03 -0.75278339687E+02  0.39638149200E+03  0.45831213529E+03  0.86922487513E+02 0.  0.
          5    1    3    3  502    0  0.12250850172E+03 -0.19846711693E+02  0.23250688840E+03  0.26358898026E+03  0.41800000000E+01 0. -1.
         -5    1    3    3    0  502  0.76763621013E+02  0.95125051380E+02  0.26567692870E+03  0.29247757479E+03  0.41800000000E+01 0. -1.
        -11    1    4    4    0    0 -0.17904464198E+03 -0.73503663953E+02  0.39251952712E+03  0.43764294991E+03  0.00000000000E+00 0. -1.
         11    1    4    4    0    0 -0.20227480753E+02 -0.17746757346E+01  0.38619648728E+01  0.20669185379E+02  0.00000000000E+00 0.  1.
</event>
<event>
 8    1  0.3654190E-009  0.1308272E+03  0.7561462E-02  0.1226233E+00
         -2   -1    0    0    0  501 -0.00000000000E+00  0.00000000000E+00  0.12170333603E+03  0.12170333603E+03  0.00000000000E+00 0.  1.
          2   -1    0    0  501    0  0.00000000000E+00 -0.00000000000E+00 -0.21667941091E+03  0.21667941091E+03  0.00000000000E+00 0. -1.
         25    2    1    2    0    0 -0.51128240942E+02 -0.92183231399E+02  0.93851874894E+01  0.16385640870E+03  0.12509594619E+03 0.  0.
         23    2    1    2    0    0  0.51128240942E+02  0.92183231399E+02 -0.10436126238E+03  0.17452633824E+03  0.91958275767E+02 0.  0.
          5    1    3    3  502    0  0.16399104433E+02 -0.60013942036E+02 -0.40042650517E+02  0.74104589098E+02  0.41800000000E+01 0. -1.
         -5    1    3    3    0  502 -0.67527345376E+02 -0.32169289363E+02  0.49427838006E+02  0.89751819600E+02  0.41800000000E+01 0. -1.
        -11    1    4    4    0    0  0.66385802427E+02  0.84017676102E+02 -0.11257753240E+03  0.15536970574E+03  0.00000000000E+00 0. -1.
         11    1    4    4    0    0 -0.15257561484E+02  0.81655552969E+01  0.82162700192E+01  0.19156632501E+02  0.00000000000E+00 0.  1.
</event>
<event>
 8    1  0.3654190E-009  0.5812438E+02  0.7561462E-02  0.1405876E+00
          3   -1    0    0  501    0  0.00000000000E+00  0.00000000000E+00  0.32061749913E+02  0.32061749913E+02  0.00000000000E+00 0. -1.
         -3   -1    0    0    0  501 -0.00000000000E+00 -0.00000000000E+00 -0.40393756025E+03  0.40393756025E+03  0.00000000000E+00 0.  1.
         25    2    1    2    0    0 -0.27442805588E+02 -0.15556709017E+02 -0.22791859547E+03  0.26189639566E+03  0.12509083550E+03 0.  0.
         23    2    1    2    0    0  0.27442805588E+02  0.15556709017E+02 -0.14395721487E+03  0.17410291450E+03  0.92698577935E+02 0.  0.
          5    1    3    3  502    0  0.19168565274E+01  0.16965416404E+02 -0.21542985765E+03  0.21614577409E+03  0.41800000000E+01 0. -1.
         -5    1    3    3    0  502 -0.29359662115E+02 -0.32522125421E+02 -0.12488737821E+02  0.45750621567E+02  0.41800000000E+01 0. -1.
        -11    1    4    4    0    0 -0.11243067033E+02  0.10958027606E+02  0.77250779772E+01  0.17497478535E+02  0.00000000000E+00 0. -1.
         11    1    4    4    0    0  0.38685872621E+02  0.45986814111E+01 -0.15168229285E+03  0.15660543597E+03  0.00000000000E+00 0.  1.
</event>
<event>
 8    1  0.3654190E-009  0.3101468E+03  0.7561462E-02  0.1080276E+00
         -4   -1    0    0    0  501 -0.00000000000E+00  0.00000000000E+00  0.27819242369E+03  0.27819242369E+03  0.00000000000E+00 0.  1.
          4   -1    0    0  501    0  0.00000000000E+00 -0.00000000000E+00 -0.35576621174E+03  0.35576621174E+03  0.00000000000E+00 0. -1.
         25    2    1    2    0    0  0.32461624896E+02 -0.29286055117E+03 -0.54327387782E+02  0.32468809230E+03  0.12509929133E+03 0.  0.
         23    2    1    2    0    0 -0.32461624896E+02  0.29286055117E+03 -0.23246400266E+02  0.30927054313E+03  0.91031940554E+02 0.  0.
          5    1    3    3  502    0  0.79993290503E+02 -0.20360796185E+03 -0.33250433833E+02  0.22131017239E+03  0.41800000000E+01 0. -1.
         -5    1    3    3    0  502 -0.47531665607E+02 -0.89252589322E+02 -0.21076953949E+02  0.10337791990E+03  0.41800000000E+01 0. -1.
        -11    1    4    4    0    0  0.16436000881E+02  0.99105186967E+02 -0.41319923955E+02  0.10862465799E+03  0.00000000000E+00 0. -1.
         11    1    4    4    0    0 -0.48897625776E+02  0.19375536420E+03  0.18073523689E+02  0.20064588514E+03  0.00000000000E+00 0.  1.
</event>
<event>
 8    1  0.3654190E-009  0.1045941E+03  0.7561462E-02  0.1270921E+00
          2   -1    0    0  501    0  0.00000000000E+00  0.00000000000E+00  0.11881015804E+04  0.11881015804E+04  0.00000000000E+00 0. -1.
         -2   -1    0    0    0  501 -0.00000000000E+00 -0.00000000000E+00 -0.17542496134E+02  0.17542496134E+02  0.00000000000E+00 0.  1.
         25    2    1    2    0    0 -0.17907653087E+02  0.26922634346E+02  0.10084526589E+04  0.10166953753E+04  0.12508880304E+03 0.  0.
         23    2    1    2    0    0  0.17907653087E+02 -0.26922634346E+02  0.16210642531E+03  0.18894870118E+03  0.91529264548E+02 0.  0.
          5    1    3    3  502    0 -0.69422043703E+02  0.23324786924E+02  0.46137495309E+03  0.46716997504E+03  0.41800000000E+01 0.  1.
         -5    1    3    3    0  502  0.51514390616E+02  0.35978474220E+01  0.54707770582E+03  0.54952540028E+03  0.41800000000E+01 0.  1.
        -11    1    4    4    0    0 -0.11402059358E+02  0.23262930168E+02  0.13144273513E+02  0.29050693688E+02  0.00000000000E+00 0.  1.
         11    1    4    4    0    0  0.29309712445E+02 -0.50185564514E+02  0.14896215180E+03  0.15989800749E+03  0.00000000000E+00 0. -1.
</event>
<event>
 8    1  0.3654190E-009  0.2553931E+03  0.7561462E-02  0.1109943E+00
          2   -1    0    0  501    0  0.00000000000E+00  0.00000000000E+00  0.42558853313E+03  0.42558853313E+03  0.00000000000E+00 0. -1.
         -2   -1    0    0    0  501 -0.00000000000E+00 -0.00000000000E+00 -0.22439430655E+03  0.22439430655E+03  0.00000000000E+00 0.  1.
         25    2    1    2    0    0  0.15394520851E+03 -0.20352000461E+03 -0.40241435075E+02  0.28703145942E+03  0.12509263007E+03 0.  0.
         23    2    1    2    0    0 -0.15394520851E+03  0.20352000461E+03  0.24143566165E+03  0.36295138027E+03  0.91230511479E+02 0.  0.
          5    1    3    3  502    0  0.11790175515E+03 -0.16119399605E+03 -0.83462398149E+02  0.21648965919E+03  0.41800000000E+01 0. -1.
         -5    1    3    3    0  502  0.36043453357E+02 -0.42326008559E+02  0.43220963074E+02  0.70541800229E+02  0.41800000000E+01 0. -1.
        -11    1    4    4    0    0 -0.69370163892E+02  0.97507457183E+02  0.17483109348E+03  0.21186277420E+03  0.00000000000E+00 0. -1.
         11    1    4    4    0    0 -0.84575044617E+02  0.10601254742E+03  0.66604568177E+02  0.15108860607E+03  0.00000000000E+00 0.  1.
</event>
<event>
 8    1  0.3654190E-009  0.1140463E+03  0.7561462E-02  0.1253255E+00
          1   -1    0    0  501    0  0.00000000000E+00  0.00000000000E+00  0.42251987719E+03  0.42251987719E+03  0.00000000000E+00 0. -1.
         -1   -1    0    0    0  501 -0.00000000000E+00 -0.00000000000E+00 -0.57453709693E+02  0.57453709693E+02  0.00000000000E+00 0.  1.
         25    2    1    2    0    0 -0.56024256869E+02 -0.54558487012E+02  0.71816847816E+02  0.16406909145E+03  0.12508261780E+03 0.  0.
         23    2    1    2    0    0  0.56024256869E+02  0.54558487012E+02  0.29324931968E+03  0.31590449544E+03  0.87664935292E+02 0.  0.
          5    1    3    3  502    0 -0.39646522233E+02  0.36489715704E+02  0.35152980738E+02  0.64471315576E+02  0.41800000000E+01 0.  1.
         -5    1    3    3    0  502 -0.16377734636E+02 -0.91048202716E+02  0.36663867078E+02  0.99597775872E+02  0.41800000000E+01 0.  1.
        -11    1    4    4    0    0  0.15410117479E+02  0.30674587989E+02  0.22404984162E+02  0.40992504002E+02  0.00000000000E+00 0.  1.
         11    1    4    4    0    0  0.40614139390E+02  0.23883899022E+02  0.27084433552E+03  0.27491199144E+03  0.00000000000E+00 0. -1.
</event>
<event>
 8    1  0.3654190E-009  0.1809292E+03  0.7561462E-02  0.1166907E+00
          2   -1    0    0  501    0  0.00000000000E+00  0.00000000000E+00  0.12986581495E+03  0.12986581495E+03  0.00000000000E+00 0. -1.
         -2   -1    0    0    0  501 -0.00000000000E+00 -0.00000000000E+00 -0.33880478152E+03  0.33880478152E+03  0.00000000000E+00 0.  1.
         25    2    1    2    0    0  0.14650966057E+03  0.14760783799E+01  0.68011904687E+01  0.19277169050E+03  0.12508960396E+03 0.  0.
         23    2    1    2    0    0 -0.14650966057E+03 -0.14760783799E+01 -0.21574015704E+03  0.27589890597E+03  0.90050716305E+02 0.  0.
          5    1    3    3  502    0  0.99205913108E+02 -0.58747250201E+02 -0.32807245798E+01  0.11541788490E+03  0.41800000000E+01 0.  1.
         -5    1    3    3    0  502  0.47303747462E+02  0.60223328581E+02  0.10081915049E+02  0.77353805598E+02  0.41800000000E+01 0.  1.
        -11    1    4    4    0    0 -0.12821131530E+03 -0.33851089951E+02 -0.18519385923E+03  0.22777357871E+03  0.00000000000E+00 0.  1.
         11    1    4    4    0    0 -0.18298345275E+02  0.32375011571E+02 -0.30546297807E+02  0.48125327259E+02  0.00000000000E+00 0. -1.
</event>
<event>
 8    1  0.3654190E-009  0.1284450E+03  0.7561462E-02  0.1229781E+00
          2   -1    0    0  501    0  0.00000000000E+00  0.00000000000E+00  0.14485026746E+03  0.14485026746E+03  0.00000000000E+00 0. -1.
         -2   -1    0    0    0  501 -0.00000000000E+00 -0.00000000000E+00 -0.24326865758E+03  0.24326865758E+03  0.00000000000E+00 0.  1.
         25    2    1    2    0    0 -0.87243091458E+00 -0.75696500080E+02  0.85159822353E+02  0.16920214836E+03  0.12508577220E+03 0.  0.
         23    2    1    2    0    0  0.87243091458E+00  0.75696500080E+02 -0.18357821247E+03  0.21891677668E+03  0.92156788984E+02 0.  0.
          5    1    3    3  502    0 -0.40102508074E+02  0.12942353221E+02  0.36819640279E+01  0.42505822187E+02  0.41800000000E+01 0.  1.
         -5    1    3    3    0  502  0.39230077159E+02 -0.88638853301E+02  0.81477858325E+02  0.12669632617E+03  0.41800000000E+01 0.  1.
        -11    1    4    4    0    0  0.32670591912E+02  0.79061694394E+02 -0.14906577531E+03  0.17186833468E+03  0.00000000000E+00 0. -1.
         11    1    4    4    0    0 -0.31798160997E+02 -0.33651943140E+01 -0.34512437163E+02  0.47048441998E+02  0.00000000000E+00 0.  1.
</event>
<event>
 8    1  0.3654190E-009  0.9929439E+02  0.7561462E-02  0.1281787E+00
          1   -1    0    0  501    0  0.00000000000E+00  0.00000000000E+00  0.52651676429E+03  0.52651676429E+03  0.00000000000E+00 0. -1.
         -1   -1    0    0    0  501 -0.00000000000E+00 -0.00000000000E+00 -0.33902146009E+02  0.33902146009E+02  0.00000000000E+00 0.  1.
         25    2    1    2    0    0 -0.68340912679E+02 -0.43700705587E+02  0.29440828005E+03  0.33000632813E+03  0.12509080395E+03 0.  0.
         23    2    1    2    0    0  0.68340912679E+02  0.43700705587E+02  0.19820633823E+03  0.23041258217E+03  0.84993961492E+02 0.  0.
          5    1    3    3  502    0 -0.24080520809E+02 -0.40299544184E+02  0.18683626003E+02  0.50699852312E+02  0.41800000000E+01 0.  1.
         -5    1    3    3    0  502 -0.44260391870E+02 -0.34011614026E+01  0.27572465404E+03  0.27930647582E+03  0.41800000000E+01 0.  1.
        -11    1    4    4    0    0  0.78951728807E+02  0.20823489004E+02  0.10041735313E+03  0.12942425578E+03  0.00000000000E+00 0.  1.
         11    1    4    4    0    0 -0.10610816128E+02  0.22877216582E+02  0.97788985109E+02  0.10098832639E+03  0.00000000000E+00 0. -1.
</event>
<event>
 8    1  0.3654190E-009  0.1298827E+03  0.7561462E-02  0.1227630E+00
          2   -1    0    0  501    0  0.00000000000E+00  0.00000000000E+00  0.83654459366E+02  0.83654459366E+02  0.00000000000E+00 0. -1.
         -2   -1    0    0    0  501 -0.00000000000E+00 -0.00000000000E+00 -0.32194516260E+03  0.32194516260E+03  0.00000000000E+00 0.  1.
         25    2    1    2    0    0  0.49870356381E+02 -0.81855130011E+02 -0.32251776935E+02  0.16086123097E+03  0.12509533868E+03 0.  0.
         23    2    1    2    0    0 -0.49870356381E+02  0.81855130011E+02 -0.20603892630E+03  0.24473839100E+03  0.90870931115E+02 0.  0.
          5    1    3    3  502    0  0.41961260151E+02  0.13410992795E+02 -0.46421064475E+02  0.64132594741E+02  0.41800000000E+01 0. -1.
         -5    1    3    3    0  502  0.79090962306E+01 -0.95266122806E+02  0.14169287540E+02  0.96728636230E+02  0.41800000000E+01 0. -1.
        -11    1    4    4    0    0  0.11214749781E+02  0.49402856991E+02 -0.14087690467E+03  0.14970876781E+03  0.00000000000E+00 0.  1.
         11    1    4    4    0    0 -0.61085106162E+02  0.32452273020E+02 -0.65162021633E+02  0.95029623183E+02  0.00000000000E+00 0. -1.
</event>
<event>
 8    1  0.3654190E-009  0.1018979E+03  0.7561462E-02  0.1276355E+00
         -2   -1    0    0    0  501 -0.00000000000E+00  0.00000000000E+00  0.77180079144E+02  0.77180079144E+02  0.00000000000E+00 0.  1.
          2   -1    0    0  501    0  0.00000000000E+00 -0.00000000000E+00 -0.29194973693E+03  0.29194973693E+03  0.00000000000E+00 0. -1.
         25    2    1    2    0    0  0.16293521628E+02  0.23603363768E+02  0.59670296719E+01  0.12847658361E+03  0.12509208394E+03 0.  0.
         23    2    1    2    0    0 -0.16293521628E+02 -0.23603363768E+02 -0.22073668745E+03  0.24065323246E+03  0.91469642389E+02 0.  0.
          5    1    3    3  502    0  0.39688840795E+01  0.73489073330E+02 -0.10265571854E+02  0.74426139932E+02  0.41800000000E+01 0.  1.
         -5    1    3    3    0  502  0.12324637548E+02 -0.49885709562E+02  0.16232601526E+02  0.54050443675E+02  0.41800000000E+01 0.  1.
        -11    1    4    4    0    0  0.21013734832E+02  0.14240592060E+02 -0.18131946273E+02  0.31195175740E+02  0.00000000000E+00 0.  1.
         11    1    4    4    0    0 -0.37307256460E+02 -0.37843955828E+02 -0.20260474118E+03  0.20945805672E+03  0.00000000000E+00 0. -1.
</event>
<event>
 8    1  0.3654190E-009  0.1293678E+03  0.7561462E-02  0.1228397E+00
         -2   -1    0    0    0  501 -0.00000000000E+00  0.00000000000E+00  0.14174371342E+02  0.14174371342E+02  0.00000000000E+00 0.  1.
          2   -1    0    0  501    0  0.00000000000E+00 -0.00000000000E+00 -0.15160968345E+04  0.15160968345E+04  0.00000000000E+00 0. -1.
         25    2    1    2    0    0 -0.78301261115E+02 -0.58634001574E+02 -0.86761879491E+03  0.88203297103E+03  0.12510297783E+03 0.  0.
         23    2    1    2    0    0  0.78301261115E+02  0.58634001574E+02 -0.63430366828E+03  0.64823823484E+03  0.91118779040E+02 0.  0.
          5    1    3    3  502    0 -0.22429298046E+02 -0.65873145103E+02 -0.19574354979E+03  0.20778680021E+03  0.41800000000E+01 0. -1.
         -5    1    3    3    0  502 -0.55871963068E+02  0.72391435291E+01 -0.67187524512E+03  0.67424617082E+03  0.41800000000E+01 0. -1.
        -11    1    4    4    0    0 -0.11120890808E+02 -0.13606376933E+02 -0.58985136889E+02  0.61547169549E+02  0.00000000000E+00 0.  1.
         11    1    4    4    0    0  0.89422151923E+02  0.72240378507E+02 -0.57531853139E+03  0.58669106530E+03  0.00000000000E+00 0. -1.
</event>
<event>
 8    1  0.3654190E-009  0.1202252E+03  0.7561462E-02  0.1242726E+00
         -1   -1    0    0    0  501 -0.00000000000E+00  0.00000000000E+00  0.44453889954E+02  0.44453889954E+02  0.00000000000E+00 0.  1.
          1   -1    0    0  501    0  0.00000000000E+00 -0.00000000000E+00 -0.38871813229E+03  0.38871813229E+03  0.00000000000E+00 0. -1.
         25    2    1    2    0    0 -0.12332207887E+01 -0.70545869592E+02 -0.21694692410E+03  0.26017463589E+03  0.12508650100E+03 0.  0.
         23    2    1    2    0    0  0.12332207887E+01  0.70545869592E+02 -0.12731731824E+03  0.17299738636E+03  0.93488799400E+02 0.  0.
          5    1    3    3  502    0  0.57457087600E+02 -0.34481819129E+02 -0.65750432902E+02  0.93972892861E+02  0.41800000000E+01 0.  1.
         -5    1    3    3    0  502 -0.58690308388E+02 -0.36064050463E+02 -0.15119649120E+03  0.16620174303E+03  0.41800000000E+01 0.  1.
        -11    1    4    4    0    0  0.25994871960E+02 -0.34931270949E+01 -0.73861138217E+02  0.78379863765E+02  0.00000000000E+00 0.  1.
         11    1    4    4    0    0 -0.24761651171E+02  0.74038996687E+02 -0.53456180018E+02  0.94617522591E+02  0.00000000000E+00 0. -1.
</event>
<event>
 8    1  0.3654190E-009  0.1081909E+03  0.7561462E-02  0.1263957E+00
         -1   -1    0    0    0  501 -0.00000000000E+00  0.00000000000E+00  0.20269919401E+02  0.20269919401E+02  0.00000000000E+00 0.  1.
          1   -1    0    0  501    0  0.00000000000E+00 -0.00000000000E+00 -0.14208875032E+04  0.14208875032E+04  0.00000000000E+00 0. -1.
         25    2    1    2    0    0  0.46605201091E+02 -0.50938139621E+02 -0.12127429218E+04  0.12211304266E+04  0.12508950993E+03 0.  0.
         23    2    1    2    0    0 -0.46605201091E+02  0.50938139621E+02 -0.18787466197E+03  0.22002699599E+03  0.91368766654E+02 0.  0.
          5    1    3    3  502    0 -0.15148966825E+02  0.18945392948E+02 -0.66749288490E+03  0.66794658687E+03  0.41800000000E+01 0.  1.
         -5    1    3    3    0  502  0.61754167915E+02 -0.69883532570E+02 -0.54525003691E+03  0.55318383972E+03  0.41800000000E+01 0.  1.
        -11    1    4    4    0    0 -0.10297311113E+02  0.60093769434E+02 -0.55461642925E+02  0.82421414552E+02  0.00000000000E+00 0.  1.
         11    1    4    4    0    0 -0.36307889977E+02 -0.91556298123E+01 -0.13241301904E+03  0.13760558144E+03  0.00000000000E+00 0. -1.
</event>
<event>
 8    1  0.3654190E-009  0.9973576E+02  0.7561462E-02  0.1280853E+00
          1   -1    0    0  501    0  0.00000000000E+00  0.00000000000E+00  0.24129889267E+03  0.24129889267E+03  0.00000000000E+00 0. -1.
         -1   -1    0    0    0  501 -0.00000000000E+00 -0.00000000000E+00 -0.76629447288E+02  0.76629447288E+02  0.00000000000E+00 0.  1.
         25    2    1    2    0    0  0.84980672300E+02  0.24865598899E+01  0.90593903162E+02  0.17630251320E+03  0.12508966075E+03 0.  0.
         23    2    1    2    0    0 -0.84980672300E+02 -0.24865598899E+01  0.74075542222E+02  0.14162582675E+03  0.85690088130E+02 0.  0.
          5    1    3    3  502    0 -0.40479457787E+01 -0.13481119528E+02  0.84266218240E+02  0.85535924530E+02  0.41800000000E+01 0. -1.
         -5    1    3    3    0  502  0.89028618079E+02  0.15967679417E+02  0.63276849212E+01  0.90766588674E+02  0.41800000000E+01 0. -1.
        -11    1    4    4    0    0 -0.44166174533E+02 -0.21610532180E+02  0.82241597284E+02  0.95819342503E+02  0.00000000000E+00 0. -1.
         11    1    4    4    0    0 -0.40814497767E+02  0.19123972290E+02 -0.81660550622E+01  0.45806484251E+02  0.00000000000E+00 0.  1.
</event>
<event>
 8    1  0.3654190E-009  0.1530108E+03  0.7561462E-02  0.1196821E+00
          1   -1    0    0  501    0  0.00000000000E+00  0.00000000000E+00  0.10681728217E+03  0.10681728217E+03  0.00000000000E+00 0. -1.
         -1   -1    0    0    0  501 -0.00000000000E+00 -0.00000000000E+00 -0.32796625603E+03  0.32796625603E+03  0.00000000000E+00 0.  1.
         25    2    1    2    0    0  0.11556645411E+02  0.12121629895E+03 -0.10263524934E+02  0.17487332906E+03  0.12509354136E+03 0.  0.
         23    2    1    2    0    0 -0.11556645411E+02 -0.12121629895E+03 -0.21088544892E+03  0.25991020913E+03  0.90849859986E+02 0.  0.
          5    1    3    3  502    0  0.12372974283E+02 -0.24769948985E+02 -0.66473356566E+01  0.28780207377E+02  0.41800000000E+01 0.  1.
         -5    1    3    3    0  502 -0.81632887199E+00  0.14598624793E+03 -0.36161892778E+01  0.14609312168E+03  0.41800000000E+01 0.  1.
        -11    1    4    4    0    0  0.19029929601E+02 -0.67774264151E+02 -0.46489946158E+02  0.84361153356E+02  0.00000000000E+00 0. -1.
         11    1    4    4    0    0 -0.30586575012E+02 -0.53442034798E+02 -0.16439550277E+03  0.17554905578E+03  0.00000000000E+00 0.  1.
</event>
<event>
 8    1  0.3654190E-009  0.1034330E+03  0.7561462E-02  0.1273238E+00
          1   -1    0    0  501    0  0.00000000000E+00  0.00000000000E+00  0.53648812601E+02  0.53648812601E+02  0.00000000000E+00 0. -1.
         -1   -1    0    0    0  501 -0.00000000000E+00 -0.00000000000E+00 -0.28303166309E+03  0.28303166309E+03  0.00000000000E+00 0.  1.
         25    2    1    2    0    0  0.59758281612E+02 -0.20883079565E+01 -0.15091549991E+03  0.20493422370E+03  0.12508850738E+03 0.  0.
         23    2    1    2    0    0 -0.59758281612E+02  0.20883079565E+01 -0.78467350580E+02  0.13174625199E+03  0.87318592263E+02 0.  0.
          5    1    3    3  502    0  0.14151730832E+01  0.35548729970E+02  0.30854655484E+01  0.35954240571E+02  0.41800000000E+01 0. -1.
         -5    1    3    3    0  502  0.58343108529E+02 -0.37637037927E+02 -0.15400096546E+03  0.16897998313E+03  0.41800000000E+01 0. -1.
        -11    1    4    4    0    0 -0.74439823196E+02 -0.18021580363E+02 -0.41317472098E+02  0.87024123879E+02  0.00000000000E+00 0. -1.
         11    1    4    4    0    0  0.14681541584E+02  0.20109888319E+02 -0.37149878483E+02  0.44722128111E+02  0.00000000000E+00 0.  1.
</event>
<event>
 8    1  0.3654190E-009  0.1383467E+03  0.7561462E-02  0.1215571E+00
          4   -1    0    0  501    0  0.00000000000E+00  0.00000000000E+00  0.29113093182E+02  0.29113093182E+02  0.00000000000E+00 0. -1.
         -4   -1    0    0    0  501 -0.00000000000E+00 -0.00000000000E+00 -0.74770215195E+03  0.74770215195E+03  0.00000000000E+00 0.  1.
         25    2    1    2    0    0  0.24468734980E+00 -0.98385990222E+02 -0.34713008305E+03  0.38187274147E+03  0.12509049994E+03 0.  0.
         23    2    1    2    0    0 -0.24468734980E+00  0.98385990222E+02 -0.37145897572E+03  0.39494250366E+03  0.91202782921E+02 0.  0.
          5    1    3    3  502    0  0.10355600638E+02  0.24110624420E+02 -0.12669127049E+03  0.12944771567E+03  0.41800000000E+01 0.  1.
         -5    1    3    3    0  502 -0.10110913288E+02 -0.12249661464E+03 -0.22043881256E+03  0.25242502580E+03  0.41800000000E+01 0.  1.
        -11    1    4    4    0    0  0.28119754696E+02  0.94394630933E+02 -0.22355834915E+03  0.24429368069E+03  0.00000000000E+00 0. -1.
         11    1    4    4    0    0 -0.28364442046E+02  0.39913592895E+01 -0.14790062657E+03  0.15064882297E+03  0.00000000000E+00 0.  1.
</event>
<event>
 8    1  0.3654190E-009  0.1196727E+03  0.7561462E-02  0.1243638E+00
         -2   -1    0    0    0  501 -0.00000000000E+00  0.00000000000E+00  0.38237839386E+02  0.38237839386E+02  0.00000000000E+00 0.  1.
          2   -1    0    0  501    0  0.00000000000E+00 -0.00000000000E+00 -0.70591189619E+03  0.70591189619E+03  0.00000000000E+00 0. -1.
         25    2    1    2    0    0  0.97511263011E+02  0.14616730637E+02 -0.52278132393E+03  0.54650609929E+03  0.12508600517E+03 0.  0.
         23    2    1    2    0    0 -0.97511263011E+02 -0.14616730637E+02 -0.14489273288E+03  0.19764363629E+03  0.91361959779E+02 0.  0.
          5    1    3    3  502    0  0.79687592209E+02 -0.21147945844E+02 -0.48286415960E+03  0.48987000009E+03  0.41800000000E+01 0.  1.
         -5    1    3    3    0  502  0.17823670802E+02  0.35764676481E+02 -0.39917164327E+02  0.56636099199E+02  0.41800000000E+01 0.  1.
        -11    1    4    4    0    0 -0.14539832834E+02  0.21637751893E+02  0.82841627767E+00  0.26082279796E+02  0.00000000000E+00 0.  1.
         11    1    4    4    0    0 -0.82971430177E+02 -0.36254482529E+02 -0.14572114916E+03  0.17156135649E+03  0.00000000000E+00 0. -1.
</event>
<event>
 8    1  0.3654190E-009  0.9584807E+02  0.7561462E-02  0.1289277E+00
          2   -1    0    0  501    0  0.00000000000E+00  0.00000000000E+00  0.95565993907E+03  0.95565993907E+03  0.00000000000E+00 0.  1.
         -2   -1    0    0    0  501 -0.00000000000E+00 -0.00000000000E+00 -0.17190960307E+02  0.17190960307E+02  0.00000000000E+00 0. -1.
         25    2    1    2    0    0 -0.44467382794E+02  0.52112001590E+02  0.49926843634E+03  0.51923932775E+03  0.12508996412E+03 0.  0.
         23    2    1    2    0    0  0.44467382794E+02 -0.52112001590E+02  0.43920054243E+03  0.45361157162E+03  0.90406485383E+02 0.  0.
          5    1    3    3  502    0 -0.22073415840E+02 -0.68301453331E+01  0.40541926379E+03  0.40609868065E+03  0.41800000000E+01 0.  1.
         -5    1    3    3    0  502 -0.22393966954E+02  0.58942146923E+02  0.93849172542E+02  0.11314064710E+03  0.41800000000E+01 0.  1.
        -11    1    4    4    0    0  0.43353264083E+02 -0.72571089427E+02  0.40512245131E+03  0.41384812321E+03  0.00000000000E+00 0.  1.
         11    1    4    4    0    0  0.11141187105E+01  0.20459087837E+02  0.34078091119E+02  0.39763448416E+02  0.00000000000E+00 0. -1.
</event>
<event>
 8    1  0.3654190E-009  0.1436115E+03  0.7561462E-02  0.1208550E+00
          3   -1    0    0  501    0  0.00000000000E+00  0.00000000000E+00  0.41436471470E+02  0.41436471470E+02  0.00000000000E+00 0. -1.
         -3   -1    0    0    0  501 -0.00000000000E+00 -0.00000000000E+00 -0.58382749322E+03  0.58382749322E+03  0.00000000000E+00 0.  1.
         25    2    1    2    0    0 -0.40901938580E+02  0.10065052514E+03 -0.24617531478E+03  0.29673954233E+03  0.12509425878E+03 0.  0.
         23    2    1    2    0    0  0.40901938580E+02 -0.10065052514E+03 -0.29621570697E+03  0.32852442237E+03  0.91548097990E+02 0.  0.
          5    1    3    3  502    0 -0.76160962784E+02  0.56738778876E+02 -0.20765862866E+03  0.22838423706E+03  0.41800000000E+01 0.  1.
         -5    1    3    3    0  502  0.35259024204E+02  0.43911746265E+02 -0.38516686122E+02  0.68355305264E+02  0.41800000000E+01 0.  1.
        -11    1    4    4    0    0 -0.13219938146E+02  0.71752367222E+01 -0.75532799249E+02  0.77015936980E+02  0.00000000000E+00 0.  1.
         11    1    4    4    0    0  0.54121876725E+02 -0.10782576186E+03 -0.22068290772E+03  0.25150848539E+03  0.00000000000E+00 0. -1.
</event>
<event>
 8    1  0.3654190E-009  0.1008674E+03  0.7561462E-02  0.1278483E+00
          3   -1    0    0  501    0  0.00000000000E+00  0.00000000000E+00  0.49789602088E+02  0.49789602088E+02  0.00000000000E+00 0. -1.
         -3   -1    0    0    0  501 -0.00000000000E+00 -0.00000000000E+00 -0.22669077406E+03  0.22669077406E+03  0.00000000000E+00 0.  1.
         25    2    1    2    0    0 -0.39408115387E+01  0.30248743807E+01 -0.87729791189E+02  0.15286772285E+03  0.12508934633E+03 0.  0.
         23    2    1    2    0    0  0.39408115387E+01 -0.30248743807E+01 -0.89171380780E+02  0.12361265330E+03  0.85462699728E+02 0.  0.
          5    1    3    3  502    0  0.38705689216E+02  0.46602127675E+02 -0.26171958380E+02  0.66123615199E+02  0.41800000000E+01 0. -1.
         -5    1    3    3    0  502 -0.42646500755E+02 -0.43577253294E+02 -0.61557832808E+02  0.86744107646E+02  0.41800000000E+01 0. -1.
        -11    1    4    4    0    0  0.41770599563E+02  0.14874327913E+01 -0.24206269586E+02  0.48300506534E+02  0.00000000000E+00 0. -1.
         11    1    4    4    0    0 -0.37829788024E+02 -0.45123071720E+01 -0.64965111194E+02  0.75312146765E+02  0.00000000000E+00 0.  1.
</event>
<event>
 8    1  0.3654190E-009  0.9464143E+02  0.7561462E-02  0.1291986E+00
         -3   -1    0    0    0  501 -0.00000000000E+00  0.00000000000E+00  0.19951323454E+03  0.19951323454E+03  0.00000000000E+00 0.  1.
          3   -1    0    0  501    0  0.00000000000E+00 -0.00000000000E+00 -0.16037921592E+03  0.16037921592E+03  0.00000000000E+00 0. -1.
         25    2    1    2    0    0 -0.48564221383E+02 -0.24794331944E+02  0.15337347344E+03  0.20529100477E+03  0.12509089411E+03 0.  0.
         23    2    1    2    0    0  0.48564221383E+02  0.24794331944E+02 -0.11423945482E+03  0.15460144569E+03  0.88756472875E+02 0.  0.
          5    1    3    3  502    0  0.24112806010E+02 -0.25374612139E+02  0.12024869149E+03  0.12530969061E+03  0.41800000000E+01 0. -1.
         -5    1    3    3    0  502 -0.72677027393E+02  0.58028019436E+00  0.33124781949E+02  0.79981314161E+02  0.41800000000E+01 0. -1.
        -11    1    4    4    0    0  0.31776942967E+02 -0.17108635885E+02 -0.10145883101E+03  0.10768646115E+03  0.00000000000E+00 0. -1.
         11    1    4    4    0    0  0.16787278416E+02  0.41902967829E+02 -0.12780623818E+02  0.46914984543E+02  0.00000000000E+00 0.  1.
</event>
<event>
 8    1  0.3654190E-009  0.2032866E+03  0.7561462E-02  0.1146995E+00
          1   -1    0    0  501    0  0.00000000000E+00  0.00000000000E+00  0.17986279360E+04  0.17986279360E+04  0.00000000000E+00 0. -1.
         -1   -1    0    0    0  501 -0.00000000000E+00 -0.00000000000E+00 -0.36797863497E+02  0.36797863497E+02  0.00000000000E+00 0.  1.
         25    2    1    2    0    0  0.18488620304E+03 -0.67056272547E+02  0.13519196850E+04  0.13718651082E+04  0.12509032223E+03 0.  0.
         23    2    1    2    0    0 -0.18488620304E+03  0.67056272547E+02  0.40991038747E+03  0.46356069124E+03  0.90457376377E+02 0.  0.
          5    1    3    3  502    0  0.13656493187E+03 -0.78385847275E+02  0.12317706217E+04  0.12418013765E+04  0.41800000000E+01 0. -1.
         -5    1    3    3    0  502  0.48321271174E+02  0.11329574728E+02  0.12014906328E+03  0.13006373175E+03  0.41800000000E+01 0. -1.
        -11    1    4    4    0    0 -0.62513523983E+02  0.39062473674E+02  0.24777631503E+03  0.25850903238E+03  0.00000000000E+00 0. -1.
         11    1    4    4    0    0 -0.12237267906E+03  0.27993798873E+02  0.16213407244E+03  0.20505165886E+03  0.00000000000E+00 0.  1.
</event>
<event>
 8    1  0.3654190E-009  0.1021801E+03  0.7561462E-02  0.1275777E+00
         -2   -1    0    0    0  501 -0.00000000000E+00  0.00000000000E+00  0.32914022348E+02  0.32914022348E+02  0.00000000000E+00 0. -1.
          2   -1    0    0  501    0  0.00000000000E+00 -0.00000000000E+00 -0.48706785037E+03  0.48706785037E+03  0.00000000000E+00 0.  1.
         25    2    1    2    0    0 -0.37801235133E+02  0.44519582213E+02 -0.31350839889E+03  0.34256145120E+03  0.12509958072E+03 0.  0.
         23    2    1    2    0    0  0.37801235133E+02 -0.44519582213E+02 -0.14064542913E+03  0.17742042151E+03  0.91027153404E+02 0.  0.
          5    1    3    3  502    0 -0.29880607179E+02 -0.20107820169E+02 -0.24607132527E+03  0.24872825460E+03  0.41800000000E+01 0. -1.
         -5    1    3    3    0  502 -0.79206279543E+01  0.64627402382E+02 -0.67437073623E+02  0.93833196603E+02  0.41800000000E+01 0. -1.
        -11    1    4    4    0    0 -0.20502337271E+02  0.10198281686E+02 -0.58328436404E+02  0.62662247616E+02  0.00000000000E+00 0.  1.
         11    1    4    4    0    0  0.58303572405E+02 -0.54717863899E+02 -0.82316992725E+02  0.11475817390E+03  0.00000000000E+00 0. -1.
</event>
<event>
 8    1  0.3654190E-009  0.1112568E+03  0.7561462E-02  0.1258260E+00
         -1   -1    0    0    0  501 -0.00000000000E+00  0.00000000000E+00  0.12053086828E+04  0.12053086828E+04  0.00000000000E+00 0.  1.
          1   -1    0    0  501    0  0.00000000000E+00 -0.00000000000E+00 -0.19049932930E+02  0.19049932930E+02  0.00000000000E+00 0. -1.
         25    2    1    2    0    0  0.50808049532E+02 -0.68234934060E+01  0.10303412535E+04  0.10391719598E+04  0.12508894965E+03 0.  0.
         23    2    1    2    0    0 -0.50808049532E+02  0.68234934060E+01  0.15591749628E+03  0.18518665589E+03  0.85766041712E+02 0.  0.
          5    1    3    3  502    0  0.65947885188E+02 -0.50930161569E+02  0.51565538849E+03  0.52236094513E+03  0.41800000000E+01 0.  1.
         -5    1    3    3    0  502 -0.15139835656E+02  0.44106668163E+02  0.51468586506E+03  0.51681101468E+03  0.41800000000E+01 0.  1.
        -11    1    4    4    0    0 -0.58238438847E+02 -0.22183952181E+02  0.13490950507E+03  0.14860827047E+03  0.00000000000E+00 0.  1.
         11    1    4    4    0    0  0.74303893148E+01  0.29007445587E+02  0.21007991216E+02  0.36578385418E+02  0.00000000000E+00 0. -1.
</event>
<event>
 8    1  0.3654190E-009  0.1431281E+03  0.7561462E-02  0.1209181E+00
         -2   -1    0    0    0  501 -0.00000000000E+00  0.00000000000E+00  0.11943373552E+02  0.11943373552E+02  0.00000000000E+00 0.  1.
          2   -1    0    0  501    0  0.00000000000E+00 -0.00000000000E+00 -0.20018295090E+04  0.20018295090E+04  0.00000000000E+00 0. -1.
         25    2    1    2    0    0  0.90028732099E+02  0.34439470889E+02 -0.14210473353E+04  0.14297951882E+04  0.12508997267E+03 0.  0.
         23    2    1    2    0    0 -0.90028732099E+02 -0.34439470889E+02 -0.56883880013E+03  0.58397769434E+03  0.90338901894E+02 0.  0.
          5    1    3    3  502    0  0.30606927248E+02  0.77310018211E+02 -0.66403794501E+03  0.66923649610E+03  0.41800000000E+01 0. -1.
         -5    1    3    3    0  502  0.59421804850E+02 -0.42870547322E+02 -0.75700939031E+03  0.76055869211E+03  0.41800000000E+01 0. -1.
        -11    1    4    4    0    0 -0.26206416894E+02 -0.56339637894E+02 -0.32958488877E+03  0.33539101060E+03  0.00000000000E+00 0. -1.
         11    1    4    4    0    0 -0.63822315204E+02  0.21900167006E+02 -0.23925391136E+03  0.24858668374E+03  0.00000000000E+00 0.  1.
</event>
<event>
 8    1  0.3654190E-009  0.2462907E+03  0.7561462E-02  0.1115672E+00
          2   -1    0    0  501    0  0.00000000000E+00  0.00000000000E+00  0.23583560124E+03  0.23583560124E+03  0.00000000000E+00 0. -1.
         -2   -1    0    0    0  501 -0.00000000000E+00 -0.00000000000E+00 -0.29830973500E+03  0.29830973500E+03  0.00000000000E+00 0.  1.
         25    2    1    2    0    0  0.89899121150E+02 -0.21505806063E+03 -0.95425627859E+02  0.28122088575E+03  0.12508922696E+03 0.  0.
         23    2    1    2    0    0 -0.89899121150E+02  0.21505806063E+03  0.32951494097E+02  0.25292445049E+03  0.92483270184E+02 0.  0.
          5    1    3    3  502    0 -0.77467015353E+01 -0.12889723665E+03 -0.74853848734E+02  0.14931537118E+03  0.41800000000E+01 0. -1.
         -5    1    3    3    0  502  0.97645822685E+02 -0.86160823985E+02 -0.20571779125E+02  0.13190551457E+03  0.41800000000E+01 0. -1.
        -11    1    4    4    0    0 -0.81703472667E+01  0.19149934958E+02  0.34905313347E+02  0.40643025026E+02  0.00000000000E+00 0. -1.
         11    1    4    4    0    0 -0.81728773883E+02  0.19590812567E+03 -0.19538192505E+01  0.21228142546E+03  0.00000000000E+00 0.  1.
</event>
<event>
 8    1  0.3654190E-009  0.2253791E+03  0.7561462E-02  0.1129935E+00
         -1   -1    0    0    0  501 -0.00000000000E+00  0.00000000000E+00  0.49271643123E+02  0.49271643123E+02  0.00000000000E+00 0.  1.
          1   -1    0    0  501    0  0.00000000000E+00 -0.00000000000E+00 -0.11196924357E+04  0.11196924357E+04  0.00000000000E+00 0. -1.
         25    2    1    2    0    0 -0.17012292722E+03 -0.11687315558E+03 -0.49517363174E+03  0.55085890878E+03  0.12508983552E+03 0.  0.
         23    2    1    2    0    0  0.17012292722E+03  0.11687315558E+03 -0.57524716082E+03  0.61810517002E+03  0.92431381679E+02 0.  0.
          5    1    3    3  502    0 -0.83270653009E+02  0.95825133225E+01 -0.22498154296E+03  0.24012495349E+03  0.41800000000E+01 0. -1.
         -5    1    3    3    0  502 -0.86852274209E+02 -0.12645566890E+03 -0.27019208877E+03  0.31073395529E+03  0.41800000000E+01 0. -1.
        -11    1    4    4    0    0  0.95259343525E+02  0.96907700102E+02 -0.25874606840E+03  0.29225840070E+03  0.00000000000E+00 0.  1.
         11    1    4    4    0    0  0.74863583694E+02  0.19965455480E+02 -0.31650109241E+03  0.32584676932E+03  0.00000000000E+00 0. -1.
</event>
<event>
 8    1  0.3654190E-009  0.9764951E+02  0.7561462E-02  0.1285318E+00
          3   -1    0    0  501    0  0.00000000000E+00  0.00000000000E+00  0.75100252281E+03  0.75100252281E+03  0.00000000000E+00 0. -1.
         -3   -1    0    0    0  501 -0.00000000000E+00 -0.00000000000E+00 -0.23451017505E+02  0.23451017505E+02  0.00000000000E+00 0.  1.
         25    2    1    2    0    0  0.32968398594E+02  0.66575793646E+02  0.36957810709E+03  0.39718272568E+03  0.12508752429E+03 0.  0.
         23    2    1    2    0    0 -0.32968398594E+02 -0.66575793646E+02  0.35797339821E+03  0.37727081463E+03  0.93107798490E+02 0.  0.
          5    1    3    3  502    0  0.61887727699E+02  0.44021906016E+02  0.34391641735E+03  0.35222719028E+03  0.41800000000E+01 0.  1.
         -5    1    3    3    0  502 -0.28919329105E+02  0.22553887630E+02  0.25661689744E+02  0.44955535406E+02  0.41800000000E+01 0.  1.
        -11    1    4    4    0    0  0.68681567193E+01 -0.19396953789E+02  0.83009477375E+01  0.22188265510E+02  0.00000000000E+00 0.  1.
         11    1    4    4    0    0 -0.39836555313E+02 -0.47178839857E+02  0.34967245047E+03  0.35508254912E+03  0.00000000000E+00 0. -1.
</event>
<event>
 8    1  0.3654190E-009  0.1242642E+03  0.7561462E-02  0.1236224E+00
          2   -1    0    0  501    0  0.00000000000E+00  0.00000000000E+00  0.36889317449E+03  0.36889317449E+03  0.00000000000E+00 0. -1.
         -2   -1    0    0    0  501 -0.00000000000E+00 -0.00000000000E+00 -0.46772261740E+02  0.46772261740E+02  0.00000000000E+00 0.  1.
         25    2    1    2    0    0  0.69056893846E+02  0.19184581157E+02  0.16027410317E+03  0.21557527816E+03  0.12509200480E+03 0.  0.
         23    2    1    2    0    0 -0.69056893846E+02 -0.19184581157E+02  0.16184680958E+03  0.20009015807E+03  0.93299404307E+02 0.  0.
          5    1    3    3  502    0  0.96481281793E+02  0.29981320619E+02  0.15541200946E+03  0.18541273529E+03  0.41800000000E+01 0. -1.
         -5    1    3    3    0  502 -0.27424387947E+02 -0.10796739461E+02  0.48620937102E+01  0.30162542872E+02  0.41800000000E+01 0. -1.
        -11    1    4    4    0    0 -0.22221477252E+02 -0.54583584084E+02  0.79840970638E+02  0.99235791402E+02  0.00000000000E+00 0. -1.
         11    1    4    4    0    0 -0.46835416594E+02  0.35399002927E+02  0.82005838940E+02  0.10085436667E+03  0.00000000000E+00 0.  1.
</event>
<event>
 8    1  0.3654190E-009  0.1554659E+03  0.7561462E-02  0.1193913E+00
          3   -1    0    0  501    0  0.00000000000E+00  0.00000000000E+00  0.24541870990E+03  0.24541870990E+03  0.00000000000E+00 0. -1.
         -3   -1    0    0    0  501 -0.00000000000E+00 -0.00000000000E+00 -0.10856977418E+03  0.10856977418E+03  0.00000000000E+00 0.  1.
         25    2    1    2    0    0  0.47977664707E+02  0.10654446125E+03  0.35393851072E+02  0.17479602309E+03  0.12508935391E+03 0.  0.
         23    2    1    2    0    0 -0.47977664707E+02 -0.10654446125E+03  0.10145508465E+03  0.17919246099E+03  0.90350569131E+02 0.  0.
          5    1    3    3  502    0  0.36608188634E+02  0.13093011232E+03  0.81217254508E+01  0.13625816897E+03  0.41800000000E+01 0. -1.
         -5    1    3    3    0  502  0.11369476073E+02 -0.24385651070E+02  0.27272125621E+02  0.38537854120E+02  0.41800000000E+01 0. -1.
        -11    1    4    4    0    0  0.23482879410E+02 -0.54316344540E+02  0.39289998353E+02  0.71031083901E+02  0.00000000000E+00 0.  1.
         11    1    4    4    0    0 -0.71460544117E+02 -0.52228116706E+02  0.62165086300E+02  0.10816137709E+03  0.00000000000E+00 0. -1.
</event>
<event>
 8    1  0.3654190E-009  0.6593130E+02  0.7561462E-02  0.1374502E+00
          1   -1    0    0  501    0  0.00000000000E+00  0.00000000000E+00  0.34101713468E+03  0.34101713468E+03  0.00000000000E+00 0. -1.
         -1   -1    0    0    0  501 -0.00000000000E+00 -0.00000000000E+00 -0.72226986163E+02  0.72226986163E+02  0.00000000000E+00 0.  1.
         25    2    1    2    0    0 -0.36863506420E+02 -0.15384803706E+02  0.51006775037E+01  0.13141264576E+03  0.12509059223E+03 0.  0.
         23    2    1    2    0    0  0.36863506420E+02  0.15384803706E+02  0.26368947102E+03  0.28183147509E+03  0.91111102144E+02 0.  0.
          5    1    3    3  502    0 -0.20147348506E+02 -0.27704275714E+02  0.61857164657E+02  0.70832363818E+02  0.41800000000E+01 0.  1.
         -5    1    3    3    0  502 -0.16716157915E+02  0.12319472008E+02 -0.56756487154E+02  0.60580281941E+02  0.41800000000E+01 0.  1.
        -11    1    4    4    0    0 -0.18337632521E+02  0.95136325014E+01  0.11580302969E+02  0.23682934504E+02  0.00000000000E+00 0.  1.
         11    1    4    4    0    0  0.55201138941E+02  0.58711712045E+01  0.25210916805E+03  0.25814854058E+03  0.00000000000E+00 0. -1.
</event>
<event>
 8    1  0.3654190E-009  0.8419480E+02  0.7561462E-02  0.1317552E+00
         -2   -1    0    0    0  501 -0.00000000000E+00  0.00000000000E+00  0.25264863938E+02  0.25264863938E+02  0.00000000000E+00 0. -1.
          2   -1    0    0  501    0  0.00000000000E+00 -0.00000000000E+00 -0.53533943320E+03  0.53533943320E+03  0.00000000000E+00 0.  1.
         25    2    1    2    0    0  0.23499105475E+02 -0.20839576963E+02 -0.33417256645E+03  0.35819652474E+03  0.12508777014E+03 0.  0.
         23    2    1    2    0    0 -0.23499105475E+02  0.20839576963E+02 -0.17590200281E+03  0.20240777240E+03  0.95083625347E+02 0.  0.
          5    1    3    3  502    0 -0.22677657908E+02 -0.29441624003E+02 -0.23947157127E+02  0.44407478274E+02  0.41800000000E+01 0. -1.
         -5    1    3    3    0  502  0.46176763383E+02  0.86020470407E+01 -0.31022540933E+03  0.31378904647E+03  0.41800000000E+01 0. -1.
        -11    1    4    4    0    0 -0.51575949716E+02  0.21182978992E+02 -0.16149363136E+03  0.17084785676E+03  0.00000000000E+00 0.  1.
         11    1    4    4    0    0  0.28076844241E+02 -0.34340202900E+00 -0.14408371445E+02  0.31559915640E+02  0.00000000000E+00 0. -1.
</event>
<event>
 8    1  0.3654190E-009  0.1318863E+03  0.7561462E-02  0.1224683E+00
         -2   -1    0    0    0  501 -0.00000000000E+00  0.00000000000E+00  0.10534921809E+03  0.10534921809E+03  0.00000000000E+00 0.  1.
          2   -1    0    0  501    0  0.00000000000E+00 -0.00000000000E+00 -0.25310144914E+03  0.25310144914E+03  0.00000000000E+00 0. -1.
         25    2    1    2    0    0  0.63970604885E+02  0.78899332035E+02 -0.53207289629E+01  0.16122366206E+03  0.12508963253E+03 0.  0.
         23    2    1    2    0    0 -0.63970604885E+02 -0.78899332035E+02 -0.14243150208E+03  0.19722700517E+03  0.91073683888E+02 0.  0.
          5    1    3    3  502    0  0.58149878862E+02 -0.15703607498E+02 -0.23196286123E+02  0.64680381802E+02  0.41800000000E+01 0.  1.
         -5    1    3    3    0  502  0.58207260224E+01  0.94602939533E+02  0.17875557160E+02  0.96543280261E+02  0.41800000000E+01 0.  1.
        -11    1    4    4    0    0 -0.30472825030E+02 -0.65871798522E+02 -0.14399395795E+03  0.16125119172E+03  0.00000000000E+00 0. -1.
         11    1    4    4    0    0 -0.33497779855E+02 -0.13027533513E+02  0.15624558680E+01  0.35975813444E+02  0.00000000000E+00 0.  1.
</event>
<event>
 8    1  0.3654190E-009  0.1726799E+03  0.7561462E-02  0.1175082E+00
         -4   -1    0    0    0  501 -0.00000000000E+00  0.00000000000E+00  0.14264389515E+03  0.14264389515E+03  0.00000000000E+00 0.  1.
          4   -1    0    0  501    0  0.00000000000E+00 -0.00000000000E+00 -0.23171897008E+03  0.23171897008E+03  0.00000000000E+00 0. -1.
         25    2    1    2    0    0 -0.11330085271E+03  0.72474165212E+02 -0.10294419045E+03  0.21054878420E+03  0.12507476297E+03 0.  0.
         23    2    1    2    0    0  0.11330085271E+03 -0.72474165212E+02  0.13869115520E+02  0.16381408103E+03  0.92483041301E+02 0.  0.
          5    1    3    3  502    0 -0.27297496027E+02  0.90728885123E+02 -0.43511781211E+02  0.10434381337E+03  0.41800000000E+01 0. -1.
         -5    1    3    3    0  502 -0.86003356688E+02 -0.18254719910E+02 -0.59432409240E+02  0.10620497083E+03  0.41800000000E+01 0. -1.
        -11    1    4    4    0    0  0.12373302387E+03 -0.42603009117E+02  0.50148025163E+01  0.13095810714E+03  0.00000000000E+00 0.  1.
         11    1    4    4    0    0 -0.10432171152E+02 -0.29871156095E+02  0.88543130036E+01  0.32855973888E+02  0.00000000000E+00 0. -1.
</event>
<event>
 8    1  0.3654190E-009  0.1138703E+03  0.7561462E-02  0.1253566E+00
          1   -1    0    0  501    0  0.00000000000E+00  0.00000000000E+00  0.12443261278E+04  0.12443261278E+04  0.00000000000E+00 0. -1.
         -1   -1    0    0    0  501 -0.00000000000E+00 -0.00000000000E+00 -0.10457795882E+02  0.10457795882E+02  0.00000000000E+00 0.  1.
         25    2    1    2    0    0  0.10223097081E+01  0.34934624546E+02  0.70688944871E+03  0.71872208055E+03  0.12508902134E+03 0.  0.
         23    2    1    2    0    0 -0.10223097081E+01 -0.34934624546E+02  0.52697888322E+03  0.53606184315E+03  0.91837264821E+02 0.  0.
          5    1    3    3  502    0 -0.21374708376E+02 -0.43079303454E+02  0.28881644777E+03  0.29282267236E+03  0.41800000000E+01 0.  1.
         -5    1    3    3    0  502  0.22397018084E+02  0.78013928001E+02  0.41807300094E+03  0.42589940819E+03  0.41800000000E+01 0.  1.
        -11    1    4    4    0    0 -0.22067245178E+02  0.25781450908E+02  0.17282550960E+03  0.17612581665E+03  0.00000000000E+00 0.  1.
         11    1    4    4    0    0  0.21044935469E+02 -0.60716075455E+02  0.35415337362E+03  0.35993602650E+03  0.00000000000E+00 0. -1.
</event>
<event>
 8    1  0.3654190E-009  0.1136629E+03  0.7561462E-02  0.1253933E+00
          1   -1    0    0  501    0  0.00000000000E+00  0.00000000000E+00  0.15128538613E+03  0.15128538613E+03  0.00000000000E+00 0. -1.
         -1   -1    0    0    0  501 -0.00000000000E+00 -0.00000000000E+00 -0.18997015763E+03  0.18997015763E+03  0.00000000000E+00 0.  1.
         25    2    1    2    0    0  0.28498842063E+02  0.52592554234E+02  0.95549130939E+02  0.16839053338E+03  0.12509026561E+03 0.  0.
         23    2    1    2    0    0 -0.28498842063E+02 -0.52592554234E+02 -0.13423390244E+03  0.17286501038E+03  0.91024230233E+02 0.  0.
          5    1    3    3  502    0 -0.20448477202E+02 -0.33511487324E+02  0.29165060962E+02  0.49083940178E+02  0.41800000000E+01 0. -1.
         -5    1    3    3    0  502  0.48947319265E+02  0.86104041557E+02  0.66384069977E+02  0.11930659321E+03  0.41800000000E+01 0. -1.
        -11    1    4    4    0    0 -0.46066237232E+02 -0.17147116566E+02 -0.12188366396E+03  0.13142202768E+03  0.00000000000E+00 0.  1.
         11    1    4    4    0    0  0.17567395169E+02 -0.35445437667E+02 -0.12350238480E+02  0.41442982699E+02  0.00000000000E+00 0. -1.
</event>
<event>
 8    1  0.3654190E-009  0.1089288E+03  0.7561462E-02  0.1262566E+00
         -3   -1    0    0    0  501 -0.00000000000E+00  0.00000000000E+00  0.15160082651E+03  0.15160082651E+03  0.00000000000E+00 0.  1.
          3   -1    0    0  501    0  0.00000000000E+00 -0.00000000000E+00 -0.37578349151E+03  0.37578349151E+03  0.00000000000E+00 0. -1.
         25    2    1    2    0    0  0.15385082906E+02 -0.24304947891E+02 -0.34813700575E+03  0.37104509243E+03  0.12509058548E+03 0.  0.
         23    2    1    2    0    0 -0.15385082906E+02  0.24304947891E+02  0.12395434074E+03  0.15633922560E+03  0.90828649688E+02 0.  0.
          5    1    3    3  502    0  0.25145058261E+01 -0.75365009841E+02 -0.20710043892E+03  0.22044108430E+03  0.41800000000E+01 0. -1.
         -5    1    3    3    0  502  0.12870577080E+02  0.51060061950E+02 -0.14103656683E+03  0.15060400813E+03  0.41800000000E+01 0. -1.
        -11    1    4    4    0    0 -0.45318803260E+02 -0.73887196578E+01  0.36630813998E+02  0.58738434107E+02  0.00000000000E+00 0.  1.
         11    1    4    4    0    0  0.29933720354E+02  0.31693667549E+02  0.87323526746E+02  0.97600791494E+02  0.00000000000E+00 0. -1.
</event>
<event>
 8    1  0.3654190E-009  0.8627785E+02  0.7561462E-02  0.1312124E+00
         -1   -1    0    0    0  501 -0.00000000000E+00  0.00000000000E+00  0.21186172189E+02  0.21186172189E+02  0.00000000000E+00 0.  1.
          1   -1    0    0  501    0  0.00000000000E+00 -0.00000000000E+00 -0.96995302755E+03  0.96995302755E+03  0.00000000000E+00 0. -1.
         25    2    1    2    0    0 -0.24300126151E+02 -0.13168602498E+02 -0.82057391282E+03  0.83051475031E+03  0.12509714566E+03 0.  0.
         23    2    1    2    0    0  0.24300126151E+02  0.13168602498E+02 -0.12819294254E+03  0.16062444943E+03  0.92751684708E+02 0.  0.
          5    1    3    3  502    0  0.35908981218E+02  0.19229801672E+02 -0.54569811732E+03  0.54723226134E+03  0.41800000000E+01 0. -1.
         -5    1    3    3    0  502 -0.60209107368E+02 -0.32398404170E+02 -0.27487579550E+03  0.28328248897E+03  0.41800000000E+01 0. -1.
        -11    1    4    4    0    0  0.10702611859E+02 -0.22510666182E+02 -0.11868753611E+03  0.12127657325E+03  0.00000000000E+00 0. -1.
         11    1    4    4    0    0  0.13597514292E+02  0.35679268680E+02 -0.95054064312E+01  0.39347876180E+02  0.00000000000E+00 0.  1.
</event>
<event>
 8    1  0.3654190E-009  0.1225272E+03  0.7561462E-02  0.1238985E+00
         -1   -1    0    0    0  501 -0.00000000000E+00  0.00000000000E+00  0.62884437083E+03  0.62884437083E+03  0.00000000000E+00 0.  1.
          1   -1    0    0  501    0  0.00000000000E+00 -0.00000000000E+00 -0.27123867301E+02  0.27123867301E+02  0.00000000000E+00 0. -1.
         25    2    1    2    0    0 -0.91319292555E+01 -0.68959345288E+02  0.38417362547E+03  0.40997064248E+03  0.12509104588E+03 0.  0.
         23    2    1    2    0    0  0.91319292555E+01  0.68959345288E+02  0.21754687806E+03  0.24599759565E+03  0.91374993709E+02 0.  0.
          5    1    3    3  502    0 -0.21157381990E+01 -0.10337381033E+03  0.23699369925E+03  0.25860028402E+03  0.41800000000E+01 0. -1.
         -5    1    3    3    0  502 -0.70161910565E+01  0.34414465040E+02  0.14717992621E+03  0.15137035846E+03  0.41800000000E+01 0. -1.
        -11    1    4    4    0    0 -0.35819436464E+02  0.30474387790E+02  0.51602033033E+02  0.69817549032E+02  0.00000000000E+00 0. -1.
         11    1    4    4    0    0  0.44951365719E+02  0.38484957498E+02  0.16594484503E+03  0.17618004662E+03  0.00000000000E+00 0.  1.
</event>
<event>
 8    1  0.3654190E-009  0.1075239E+03  0.7561462E-02  0.1265225E+00
          1   -1    0    0  501    0  0.00000000000E+00  0.00000000000E+00  0.10228668816E+03  0.10228668816E+03  0.00000000000E+00 0. -1.
         -1   -1    0    0    0  501 -0.00000000000E+00 -0.00000000000E+00 -0.13342951133E+03  0.13342951133E+03  0.00000000000E+00 0.  1.
         25    2    1    2    0    0  0.39500797198E+02 -0.13549019869E+02 -0.67390432318E+01  0.13205065526E+03  0.12509225369E+03 0.  0.
         23    2    1    2    0    0 -0.39500797198E+02  0.13549019869E+02 -0.24403779938E+02  0.10366554424E+03  0.91690303023E+02 0.  0.
          5    1    3    3  502    0 -0.34816248482E+02 -0.33163394435E+02  0.17515480724E+02  0.51344389701E+02  0.41800000000E+01 0. -1.
         -5    1    3    3    0  502  0.74317045679E+02  0.19614374566E+02 -0.24254523955E+02  0.80706265559E+02  0.41800000000E+01 0. -1.
        -11    1    4    4    0    0 -0.55940326718E+01  0.43927897880E+02  0.11424629761E+02  0.45732653311E+02  0.00000000000E+00 0. -1.
         11    1    4    4    0    0 -0.33906764526E+02 -0.30378878010E+02 -0.35828409699E+02  0.57932890929E+02  0.00000000000E+00 0.  1.
</event>
<event>
 8    1  0.3654190E-009  0.1074617E+03  0.7561462E-02  0.1265344E+00
         -2   -1    0    0    0  501 -0.00000000000E+00  0.00000000000E+00  0.47891147312E+02  0.47891147312E+02  0.00000000000E+00 0.  1.
          2   -1    0    0  501    0  0.00000000000E+00 -0.00000000000E+00 -0.28700667210E+03  0.28700667210E+03  0.00000000000E+00 0. -1.
         25    2    1    2    0    0 -0.22966736665E+02  0.26736176954E+02 -0.17941809300E+03  0.22154399325E+03  0.12509434319E+03 0.  0.
         23    2    1    2    0    0  0.22966736665E+02 -0.26736176954E+02 -0.59697431785E+02  0.11335382616E+03  0.89682843355E+02 0.  0.
          5    1    3    3  502    0 -0.99529826905E+01  0.71884618156E+02 -0.14793911463E+03  0.16483298890E+03  0.41800000000E+01 0. -1.
         -5    1    3    3    0  502 -0.13013753974E+02 -0.45148441201E+02 -0.31478978371E+02  0.56711004353E+02  0.41800000000E+01 0. -1.
        -11    1    4    4    0    0  0.21766293187E+01 -0.57712899953E+02 -0.45163212718E+02  0.73315975879E+02  0.00000000000E+00 0.  1.
         11    1    4    4    0    0  0.20790107346E+02  0.30976722999E+02 -0.14534219068E+02  0.40037850281E+02  0.00000000000E+00 0. -1.
</event>
<event>
 8    1  0.3654190E-009  0.1772706E+03  0.7561462E-02  0.1170471E+00
          2   -1    0    0  501    0  0.00000000000E+00  0.00000000000E+00  0.14209437590E+04  0.14209437590E+04  0.00000000000E+00 0.  1.
         -2   -1    0    0    0  501 -0.00000000000E+00 -0.00000000000E+00 -0.22187507109E+02  0.22187507109E+02  0.00000000000E+00 0. -1.
         25    2    1    2    0    0 -0.61345479808E+02  0.12492019945E+03  0.73235778587E+03  0.75588555959E+03  0.12508688398E+03 0.  0.
         23    2    1    2    0    0  0.61345479808E+02 -0.12492019945E+03  0.66639846599E+03  0.68724570649E+03  0.94081993450E+02 0.  0.
          5    1    3    3  502    0 -0.54845641988E+02  0.15049794500E+03  0.61597382279E+03  0.63647380045E+03  0.41800000000E+01 0.  1.
         -5    1    3    3    0  502 -0.64998378197E+01 -0.25577745543E+02  0.11638396307E+03  0.11941175913E+03  0.41800000000E+01 0.  1.
        -11    1    4    4    0    0  0.44378577216E+02 -0.29872353594E+01  0.15665526113E+03  0.16284732890E+03  0.00000000000E+00 0.  1.
         11    1    4    4    0    0  0.16966902592E+02 -0.12193296410E+03  0.50974320486E+03  0.52439837759E+03  0.00000000000E+00 0. -1.
</event>
<event>
 8    1  0.3654190E-009  0.9889879E+02  0.7561462E-02  0.1282629E+00
         -1   -1    0    0    0  501 -0.00000000000E+00  0.00000000000E+00  0.42605388368E+02  0.42605388368E+02  0.00000000000E+00 0.  1.
          1   -1    0    0  501    0  0.00000000000E+00 -0.00000000000E+00 -0.55532087247E+03  0.55532087247E+03  0.00000000000E+00 0. -1.
         25    2    1    2    0    0  0.36341356627E+02 -0.78969911405E+02 -0.14948150757E+03  0.21342072366E+03  0.12508694207E+03 0.  0.
         23    2    1    2    0    0 -0.36341356627E+02  0.78969911405E+02 -0.36323397654E+03  0.38450553718E+03  0.91370921525E+02 0.  0.
          5    1    3    3  502    0  0.27959286923E+01 -0.40171455848E+01  0.22173678771E+02  0.23088939043E+02  0.41800000000E+01 0. -1.
         -5    1    3    3    0  502  0.33545427935E+02 -0.74952765820E+02 -0.17165518634E+03  0.19033178462E+03  0.41800000000E+01 0. -1.
        -11    1    4    4    0    0 -0.10213088255E+02 -0.11259526153E+02 -0.82353038362E+01  0.17288849880E+02  0.00000000000E+00 0.  1.
         11    1    4    4    0    0 -0.26128268372E+02  0.90229437558E+02 -0.35499867270E+03  0.36721668730E+03  0.00000000000E+00 0. -1.
</event>
<event>
 8    1  0.3654190E-009  0.9614479E+02  0.7561462E-02  0.1288618E+00
         -2   -1    0    0    0  501 -0.00000000000E+00  0.00000000000E+00  0.11868697193E+03  0.11868697193E+03  0.00000000000E+00 0.  1.
          2   -1    0    0  501    0  0.00000000000E+00 -0.00000000000E+00 -0.12057866897E+03  0.12057866897E+03  0.00000000000E+00 0. -1.
         25    2    1    2    0    0  0.22718302894E+02 -0.18552537279E+02 -0.42611004214E+02  0.13536392458E+03  0.12508947386E+03 0.  0.
         23    2    1    2    0    0 -0.22718302894E+02  0.18552537279E+02  0.40719307174E+02  0.10390171633E+03  0.90979045682E+02 0.  0.
          5    1    3    3  502    0  0.55432593909E+01  0.45908735575E+02 -0.49860083302E+02  0.68131050438E+02  0.41800000000E+01 0. -1.
         -5    1    3    3    0  502  0.17175043503E+02 -0.64461272855E+02  0.72490790882E+01  0.67232874139E+02  0.41800000000E+01 0. -1.
        -11    1    4    4    0    0 -0.43796573666E+02 -0.86114331656E+01 -0.69016819542E+01  0.45165582691E+02  0.00000000000E+00 0. -1.
         11    1    4    4    0    0  0.21078270772E+02  0.27163970445E+02  0.47620989128E+02  0.58736133637E+02  0.00000000000E+00 0.  1.
</event>
<event>
 8    1  0.3654190E-009  0.7890990E+02  0.7561462E-02  0.1332174E+00
         -2   -1    0    0    0  501 -0.00000000000E+00  0.00000000000E+00  0.10000901695E+02  0.10000901695E+02  0.00000000000E+00 0.  1.
          2   -1    0    0  501    0  0.00000000000E+00 -0.00000000000E+00 -0.14522994451E+04  0.14522994451E+04  0.00000000000E+00 0. -1.
         25    2    1    2    0    0 -0.26077549466E+02 -0.35427565832E+02 -0.98775278885E+03  0.99661367941E+03  0.12509237828E+03 0.  0.
         23    2    1    2    0    0  0.26077549466E+02  0.35427565832E+02 -0.45454575453E+03  0.46568666736E+03  0.91198016354E+02 0.  0.
          5    1    3    3  502    0 -0.21856565386E+02 -0.10335256877E+01 -0.26043311431E+02  0.34271038737E+02  0.41800000000E+01 0.  1.
         -5    1    3    3    0  502 -0.42209840801E+01 -0.34394040144E+02 -0.96170947742E+03  0.96234264067E+03  0.41800000000E+01 0.  1.
        -11    1    4    4    0    0  0.60080413114E+02  0.20225831569E+02 -0.26088330431E+03  0.26847502448E+03  0.00000000000E+00 0. -1.
         11    1    4    4    0    0 -0.34002863648E+02  0.15201734263E+02 -0.19366245022E+03  0.19721164288E+03  0.00000000000E+00 0.  1.
</event>
<event>
 8    1  0.3654190E-009  0.1107317E+03  0.7561462E-02  0.1259221E+00
         -1   -1    0    0    0  501 -0.00000000000E+00  0.00000000000E+00  0.40063333173E+02  0.40063333173E+02  0.00000000000E+00 0.  1.
          1   -1    0    0  501    0  0.00000000000E+00 -0.00000000000E+00 -0.46210712767E+03  0.46210712767E+03  0.00000000000E+00 0. -1.
         25    2    1    2    0    0  0.39194880549E+01 -0.29906789388E+02 -0.37083945858E+03  0.39252952561E+03  0.12509095089E+03 0.  0.
         23    2    1    2    0    0 -0.39194880549E+01  0.29906789388E+02 -0.51204335917E+02  0.10964093524E+03  0.92138332004E+02 0.  0.
          5    1    3    3  502    0  0.61801355573E+02 -0.23812745864E+02 -0.24484270807E+03  0.25367672048E+03  0.41800000000E+01 0.  1.
         -5    1    3    3    0  502 -0.57881867518E+02 -0.60940435235E+01 -0.12599675051E+03  0.13885280513E+03  0.41800000000E+01 0.  1.
        -11    1    4    4    0    0 -0.42615212759E+02 -0.71045435424E+01 -0.19375871224E+02  0.47349290207E+02  0.00000000000E+00 0.  1.
         11    1    4    4    0    0  0.38695724704E+02  0.37011332930E+02 -0.31828464693E+02  0.62291645028E+02  0.00000000000E+00 0. -1.
</event>
<event>
 8    1  0.3654190E-009  0.3732552E+03  0.7561462E-02  0.1053455E+00
         -1   -1    0    0    0  501 -0.00000000000E+00  0.00000000000E+00  0.95054361698E+02  0.95054361698E+02  0.00000000000E+00 0.  1.
          1   -1    0    0  501    0  0.00000000000E+00 -0.00000000000E+00 -0.15654527529E+04  0.15654527529E+04  0.00000000000E+00 0. -1.
         25    2    1    2    0    0 -0.26920122042E+01  0.35864465896E+03 -0.54904523323E+03  0.66762980166E+03  0.12508255514E+03 0.  0.
         23    2    1    2    0    0  0.26920122042E+01 -0.35864465896E+03 -0.92135315801E+03  0.99287731298E+03  0.90997134711E+02 0.  0.
          5    1    3    3  502    0 -0.59723439814E+02  0.24531579377E+03 -0.37938707821E+03  0.45573978919E+03  0.41800000000E+01 0. -1.
         -5    1    3    3    0  502  0.57031427610E+02  0.11332886518E+03 -0.16965815503E+03  0.21189001247E+03  0.41800000000E+01 0. -1.
        -11    1    4    4    0    0  0.32715586151E+02 -0.74978210420E+02 -0.26178180022E+03  0.27426584282E+03  0.00000000000E+00 0.  1.
         11    1    4    4    0    0 -0.30023573947E+02 -0.28366644854E+03 -0.65957135780E+03  0.71861147016E+03  0.00000000000E+00 0. -1.
</event>
<event>
 8    1  0.3654190E-009  0.1054391E+03  0.7561462E-02  0.1269257E+00
          1   -1    0    0  501    0  0.00000000000E+00  0.00000000000E+00  0.46438161471E+03  0.46438161471E+03  0.00000000000E+00 0. -1.
         -1   -1    0    0    0  501 -0.00000000000E+00 -0.00000000000E+00 -0.38782717811E+02  0.38782717811E+02  0.00000000000E+00 0.  1.
         25    2    1    2    0    0 -0.57681549211E+02 -0.37824935208E+02  0.15755283673E+03  0.21267134211E+03  0.12509323144E+03 0.  0.
         23    2    1    2    0    0  0.57681549211E+02  0.37824935208E+02  0.26804606017E+03  0.29049299041E+03  0.88202042279E+02 0.  0.
          5    1    3    3  502    0 -0.66652995606E+02 -0.48836835732E+01  0.18561422742E+02  0.69487200279E+02  0.41800000000E+01 0.  1.
         -5    1    3    3    0  502  0.89714463952E+01 -0.32941251635E+02  0.13899141399E+03  0.14318414183E+03  0.41800000000E+01 0.  1.
        -11    1    4    4    0    0  0.41086305368E+02 -0.22576338426E+02  0.85650624773E+02  0.97641205797E+02  0.00000000000E+00 0.  1.
         11    1    4    4    0    0  0.16595243842E+02  0.60401273634E+02  0.18239543540E+03  0.19285178462E+03  0.00000000000E+00 0. -1.
</event>
<event>
 8    1  0.3654190E-009  0.1351788E+03  0.7561462E-02  0.1219967E+00
         -1   -1    0    0    0  501 -0.00000000000E+00  0.00000000000E+00  0.44056275971E+02  0.44056275971E+02  0.00000000000E+00 0.  1.
          1   -1    0    0  501    0  0.00000000000E+00 -0.00000000000E+00 -0.59958559898E+03  0.59958559898E+03  0.00000000000E+00 0. -1.
         25    2    1    2    0    0 -0.10176932417E+03 -0.33008470042E+02 -0.18728440585E+03  0.24933592633E+03  0.12508557491E+03 0.  0.
         23    2    1    2    0    0  0.10176932417E+03  0.33008470042E+02 -0.36824491716E+03  0.39430594862E+03  0.91794921787E+02 0.  0.
          5    1    3    3  502    0 -0.12228853526E+03 -0.16013322828E+01 -0.16525446197E+03  0.20562966644E+03  0.41800000000E+01 0.  1.
         -5    1    3    3    0  502  0.20519211094E+02 -0.31407137759E+02 -0.22029943880E+02  0.43706259889E+02  0.41800000000E+01 0.  1.
        -11    1    4    4    0    0  0.53775841371E+02  0.34778961797E+01 -0.58744115312E+02  0.79717049373E+02  0.00000000000E+00 0.  1.
         11    1    4    4    0    0  0.47993482795E+02  0.29530573862E+02 -0.30950080185E+03  0.31458889925E+03  0.00000000000E+00 0. -1.
</event>
<event>
 8    1  0.3654190E-009  0.8376304E+02  0.7561462E-02  0.1318699E+00
          2   -1    0    0  501    0  0.00000000000E+00  0.00000000000E+00  0.86121346746E+03  0.86121346746E+03  0.00000000000E+00 0.  1.
         -2   -1    0    0    0  501 -0.00000000000E+00 -0.00000000000E+00 -0.19611835962E+02  0.19611835962E+02  0.00000000000E+00 0. -1.
         25    2    1    2    0    0  0.28012340483E+02  0.37946089466E+02  0.66203593606E+03  0.67539729628E+03  0.12508129459E+03 0.  0.
         23    2    1    2    0    0 -0.28012340483E+02 -0.37946089466E+02  0.17956569544E+03  0.20542800715E+03  0.87933100804E+02 0.  0.
          5    1    3    3  502    0 -0.25712479798E+02  0.56799727876E+01  0.29549763814E+02  0.39800184041E+02  0.41800000000E+01 0.  1.
         -5    1    3    3    0  502  0.53724820281E+02  0.32266116679E+02  0.63248617225E+03  0.63559711224E+03  0.41800000000E+01 0.  1.
        -11    1    4    4    0    0 -0.28454517914E+02  0.99599062835E+01  0.14315859683E+02  0.33373689657E+02  0.00000000000E+00 0. -1.
         11    1    4    4    0    0  0.44217743048E+00 -0.47905995750E+02  0.16524983575E+03  0.17205431749E+03  0.00000000000E+00 0.  1.
</event>
<event>
 8    1  0.3654190E-009  0.1209711E+03  0.7561462E-02  0.1241504E+00
         -2   -1    0    0    0  501 -0.00000000000E+00  0.00000000000E+00  0.10035286347E+04  0.10035286347E+04  0.00000000000E+00 0.  1.
          2   -1    0    0  501    0  0.00000000000E+00 -0.00000000000E+00 -0.15308665851E+02  0.15308665851E+02  0.00000000000E+00 0. -1.
         25    2    1    2    0    0 -0.38982917608E+02 -0.45422446629E+02  0.61460609524E+03  0.63005626204E+03  0.12508946600E+03 0.  0.
         23    2    1    2    0    0  0.38982917608E+02  0.45422446629E+02  0.37361387360E+03  0.38878103850E+03  0.89333660122E+02 0.  0.
          5    1    3    3  502    0 -0.17694504389E+02  0.43473884227E+02  0.21659603582E+03  0.22166278268E+03  0.41800000000E+01 0.  1.
         -5    1    3    3    0  502 -0.21288413219E+02 -0.88896330856E+02  0.39801005943E+03  0.40839347936E+03  0.41800000000E+01 0.  1.
        -11    1    4    4    0    0  0.57985359571E+01  0.64684880224E+02  0.17891663730E+03  0.19033896041E+03  0.00000000000E+00 0. -1.
         11    1    4    4    0    0  0.33184381651E+02 -0.19262433596E+02  0.19469723630E+03  0.19844207809E+03  0.00000000000E+00 0.  1.
</event>
<event>
 8    1  0.3654190E-009  0.1297682E+03  0.7561462E-02  0.1227800E+00
         -3   -1    0    0    0  501 -0.00000000000E+00  0.00000000000E+00  0.76455689995E+02  0.76455689995E+02  0.00000000000E+00 0. -1.
          3   -1    0    0  501    0  0.00000000000E+00 -0.00000000000E+00 -0.35034997639E+03  0.35034997639E+03  0.00000000000E+00 0.  1.
         25    2    1    2    0    0 -0.77500433925E+02  0.78834162920E+02 -0.79339213274E+02  0.18483553529E+03  0.12509325258E+03 0.  0.
         23    2    1    2    0    0  0.77500433925E+02 -0.78834162920E+02 -0.19455507312E+03  0.24197013110E+03  0.92069133607E+02 0.  0.
          5    1    3    3  502    0 -0.80698494941E+02  0.79554292654E+02 -0.84095080019E+01  0.11370718882E+03  0.41800000000E+01 0. -1.
         -5    1    3    3    0  502  0.31980610161E+01 -0.72012973409E+00 -0.70929705272E+02  0.71128346467E+02  0.41800000000E+01 0. -1.
        -11    1    4    4    0    0  0.20055254666E+02 -0.80897397741E+02 -0.13872925786E+03  0.16184069077E+03  0.00000000000E+00 0.  1.
         11    1    4    4    0    0  0.57445179258E+02  0.20632348208E+01 -0.55825815258E+02  0.80129440327E+02  0.00000000000E+00 0. -1.
</event>
<event>
 8    1  0.3654190E-009  0.1286031E+03  0.7561462E-02  0.1229543E+00
         -3   -1    0    0    0  501 -0.00000000000E+00  0.00000000000E+00  0.29127292698E+02  0.29127292698E+02  0.00000000000E+00 0.  1.
          3   -1    0    0  501    0  0.00000000000E+00 -0.00000000000E+00 -0.60366801312E+03  0.60366801312E+03  0.00000000000E+00 0. -1.
         25    2    1    2    0    0  0.76476247373E+02  0.11569197849E+02 -0.32496896055E+03  0.35669952281E+03  0.12508901430E+03 0.  0.
         23    2    1    2    0    0 -0.76476247373E+02 -0.11569197849E+02 -0.24957175987E+03  0.27609578301E+03  0.89220823350E+02 0.  0.
          5    1    3    3  502    0 -0.13562897851E+02 -0.40375671505E+02 -0.85674012321E+02  0.95768762312E+02  0.41800000000E+01 0.  1.
         -5    1    3    3    0  502  0.90039145225E+02  0.51944869354E+02 -0.23929494823E+03  0.26093076050E+03  0.41800000000E+01 0.  1.
        -11    1    4    4    0    0 -0.19046860050E+02 -0.41465684201E+02 -0.15430296203E+03  0.16090863847E+03  0.00000000000E+00 0. -1.
         11    1    4    4    0    0 -0.57429387323E+02  0.29896486352E+02 -0.95268797847E+02  0.11518714454E+03  0.00000000000E+00 0.  1.
</event>
<event>
 8    1  0.3654190E-009  0.9367961E+02  0.7561462E-02  0.1294178E+00
         -1   -1    0    0    0  501 -0.00000000000E+00  0.00000000000E+00  0.40031291289E+02  0.40031291289E+02  0.00000000000E+00 0.  1.
          1   -1    0    0  501    0  0.00000000000E+00 -0.00000000000E+00 -0.32718536793E+03  0.32718536793E+03  0.00000000000E+00 0. -1.
         25    2    1    2    0    0  0.14029042058E+02  0.17941548919E+02 -0.21267365904E+03  0.24778335279E+03  0.12509113266E+03 0.  0.
         23    2    1    2    0    0 -0.14029042058E+02 -0.17941548919E+02 -0.74480417599E+02  0.11943330643E+03  0.90544292370E+02 0.  0.
          5    1    3    3  502    0  0.10373002967E+02  0.55220576395E+02 -0.20036228079E+03  0.20813319584E+03  0.41800000000E+01 0. -1.
         -5    1    3    3    0  502  0.36560390908E+01 -0.37279027476E+02 -0.12311378251E+02  0.39650156946E+02  0.41800000000E+01 0. -1.
        -11    1    4    4    0    0  0.17823141499E+02 -0.46966205878E+02 -0.41777367630E+02  0.65336339916E+02  0.00000000000E+00 0.  1.
         11    1    4    4    0    0 -0.31852183557E+02  0.29024656959E+02 -0.32703049969E+02  0.54096966516E+02  0.00000000000E+00 0. -1.
</event>
<event>
 8    1  0.3654190E-009  0.1051690E+03  0.7561462E-02  0.1269787E+00
         -1   -1    0    0    0  501 -0.00000000000E+00  0.00000000000E+00  0.22874656155E+02  0.22874656155E+02  0.00000000000E+00 0.  1.
          1   -1    0    0  501    0  0.00000000000E+00 -0.00000000000E+00 -0.94676616934E+03  0.94676616934E+03  0.00000000000E+00 0. -1.
         25    2    1    2    0    0  0.51468988692E+02 -0.18772914245E+02 -0.76936527074E+03  0.78139094277E+03  0.12508959393E+03 0.  0.
         23    2    1    2    0    0 -0.51468988692E+02  0.18772914245E+02 -0.15452624245E+03  0.18824988273E+03  0.92510429880E+02 0.  0.
          5    1    3    3  502    0  0.12032583047E+02 -0.69048490433E+02 -0.47333225960E+03  0.47851162731E+03  0.41800000000E+01 0. -1.
         -5    1    3    3    0  502  0.39436405644E+02  0.50275576188E+02 -0.29603301114E+03  0.30287931546E+03  0.41800000000E+01 0. -1.
        -11    1    4    4    0    0 -0.20281216288E+02 -0.18527202589E+02 -0.13064503129E+01  0.27500759668E+02  0.00000000000E+00 0.  1.
         11    1    4    4    0    0 -0.31187772403E+02  0.37300116834E+02 -0.15321979213E+03  0.16074912306E+03  0.00000000000E+00 0. -1.
</event>
<event>
 8    1  0.3654190E-009  0.1280272E+03  0.7561462E-02  0.1230413E+00
          4   -1    0    0  501    0  0.00000000000E+00  0.00000000000E+00  0.16864042288E+03  0.16864042288E+03  0.00000000000E+00 0. -1.
         -4   -1    0    0    0  501 -0.00000000000E+00 -0.00000000000E+00 -0.11340119163E+03  0.11340119163E+03  0.00000000000E+00 0.  1.
         25    2    1    2    0    0  0.65685363926E+02 -0.53365160581E+02  0.43272348091E+02  0.15710710872E+03  0.12509092735E+03 0.  0.
         23    2    1    2    0    0 -0.65685363926E+02  0.53365160581E+02  0.11966883158E+02  0.12493450578E+03  0.91120892471E+02 0.  0.
          5    1    3    3  502    0  0.99983871616E+02 -0.19258261596E+02  0.22858704930E+02  0.10443968601E+03  0.41800000000E+01 0. -1.
         -5    1    3    3    0  502 -0.34298507690E+02 -0.34106898985E+02  0.20413643161E+02  0.52667422713E+02  0.41800000000E+01 0. -1.
        -11    1    4    4    0    0 -0.45479214184E+02 -0.31396458205E+01 -0.27378446038E+02  0.53177021411E+02  0.00000000000E+00 0.  1.
         11    1    4    4    0    0 -0.20206149742E+02  0.56504806401E+02  0.39345329196E+02  0.71757484371E+02  0.00000000000E+00 0. -1.
</event>
<event>
 8    1  0.3654190E-009  0.1792755E+03  0.7561462E-02  0.1168506E+00
         -2   -1    0    0    0  501 -0.00000000000E+00  0.00000000000E+00  0.12308180736E+04  0.12308180736E+04  0.00000000000E+00 0. -1.
          2   -1    0    0  501    0  0.00000000000E+00 -0.00000000000E+00 -0.42524709097E+02  0.42524709097E+02  0.00000000000E+00 0.  1.
         25    2    1    2    0    0 -0.14625872830E+03 -0.30777194538E+02  0.98190348428E+03  0.10010604136E+04  0.12509455600E+03 0.  0.
         23    2    1    2    0    0  0.14625872830E+03  0.30777194538E+02  0.20638988020E+03  0.27228236907E+03  0.95927339949E+02 0.  0.
          5    1    3    3  502    0  0.15769854646E+02 -0.32606050363E+00  0.23736661781E+02  0.28804446593E+02  0.41800000000E+01 0. -1.
         -5    1    3    3    0  502 -0.16202858294E+03 -0.30451134034E+02  0.95816682249E+03  0.97225596701E+03  0.41800000000E+01 0. -1.
        -11    1    4    4    0    0  0.83979022185E+02  0.65051705505E+02  0.11605669576E+03  0.15733199670E+03  0.00000000000E+00 0. -1.
         11    1    4    4    0    0  0.62279706112E+02 -0.34274510967E+02  0.90333184445E+02  0.11495037237E+03  0.00000000000E+00 0.  1.
</event>
<event>
 8    1  0.3654190E-009  0.1126154E+03  0.7561462E-02  0.1255802E+00
         -1   -1    0    0    0  501 -0.00000000000E+00  0.00000000000E+00  0.10365955252E+03  0.10365955252E+03  0.00000000000E+00 0.  1.
          1   -1    0    0  501    0  0.00000000000E+00 -0.00000000000E+00 -0.18463510680E+03  0.18463510680E+03  0.00000000000E+00 0. -1.
         25    2    1    2    0    0 -0.67693982982E+02 -0.41524759161E+02 -0.83246400219E+02  0.16995376312E+03  0.12509011749E+03 0.  0.
         23    2    1    2    0    0  0.67693982982E+02  0.41524759161E+02  0.22708459365E+01  0.11834089619E+03  0.87707639437E+02 0.  0.
          5    1    3    3  502    0  0.16254661793E+02  0.12618407665E+02  0.18003095628E+02  0.27659032778E+02  0.41800000000E+01 0.  1.
         -5    1    3    3    0  502 -0.83948644775E+02 -0.54143166827E+02 -0.10124949585E+03  0.14229473034E+03  0.41800000000E+01 0.  1.
        -11    1    4    4    0    0  0.58396524581E+02 -0.32832482277E+01  0.29063965408E+02  0.65311927603E+02  0.00000000000E+00 0.  1.
         11    1    4    4    0    0  0.92974584012E+01  0.44808007389E+02 -0.26793119471E+02  0.53028968592E+02  0.00000000000E+00 0. -1.
</event>
<event>
 8    1  0.3654190E-009  0.1278049E+03  0.7561462E-02  0.1230750E+00
         -1   -1    0    0    0  501 -0.00000000000E+00  0.00000000000E+00  0.11191762194E+03  0.11191762194E+03  0.00000000000E+00 0.  1.
          1   -1    0    0  501    0  0.00000000000E+00 -0.00000000000E+00 -0.15902127127E+03  0.15902127127E+03  0.00000000000E+00 0. -1.
         25    2    1    2    0    0  0.17043246561E+02  0.71870764606E+02 -0.13687322335E+00  0.14527124649E+03  0.12509131570E+03 0.  0.
         23    2    1    2    0    0 -0.17043246561E+02 -0.71870764606E+02 -0.46966776114E+02  0.12566764672E+03  0.90169841501E+02 0.  0.
          5    1    3    3  502    0  0.88482967781E+00  0.10473717976E+03 -0.14274253263E+02  0.10579171260E+03  0.41800000000E+01 0. -1.
         -5    1    3    3    0  502  0.16158416883E+02 -0.32866415158E+02  0.14137380039E+02  0.39479533886E+02  0.41800000000E+01 0. -1.
        -11    1    4    4    0    0  0.14166297000E+02  0.15588103858E+02 -0.19814962221E+02  0.28918950196E+02  0.00000000000E+00 0. -1.
         11    1    4    4    0    0 -0.31209543560E+02 -0.87458868465E+02 -0.27151813892E+02  0.96748696529E+02  0.00000000000E+00 0.  1.
</event>
<event>
 8    1  0.3654190E-009  0.9512002E+02  0.7561462E-02  0.1290906E+00
          2   -1    0    0  501    0  0.00000000000E+00  0.00000000000E+00  0.10389391134E+03  0.10389391134E+03  0.00000000000E+00 0. -1.
         -2   -1    0    0    0  501 -0.00000000000E+00 -0.00000000000E+00 -0.25007992289E+03  0.25007992289E+03  0.00000000000E+00 0.  1.
         25    2    1    2    0    0  0.26971040823E+02 -0.73933670980E+02  0.19716858833E+02  0.14909575444E+03  0.12508862747E+03 0.  0.
         23    2    1    2    0    0 -0.26971040823E+02  0.73933670980E+02 -0.16590287038E+03  0.20487807979E+03  0.90871560069E+02 0.  0.
          5    1    3    3  502    0  0.16101460854E+02 -0.53992018340E+02 -0.50129772757E+02  0.75530534241E+02  0.41800000000E+01 0. -1.
         -5    1    3    3    0  502  0.10869579969E+02 -0.19941652640E+02  0.69846631590E+02  0.73565220201E+02  0.41800000000E+01 0. -1.
        -11    1    4    4    0    0  0.11752081470E+02  0.70835217535E+02 -0.14238901292E+03  0.15946902665E+03  0.00000000000E+00 0.  1.
         11    1    4    4    0    0 -0.38723122292E+02  0.30984534453E+01 -0.23513857465E+02  0.45409053136E+02  0.00000000000E+00 0. -1.
</event>
<event>
 8    1  0.3654190E-009  0.1114496E+03  0.7561462E-02  0.1257909E+00
          2   -1    0    0  501    0  0.00000000000E+00  0.00000000000E+00  0.48644414196E+02  0.48644414196E+02  0.00000000000E+00 0. -1.
         -2   -1    0    0    0  501 -0.00000000000E+00 -0.00000000000E+00 -0.42862958855E+03  0.42862958855E+03  0.00000000000E+00 0.  1.
         25    2    1    2    0    0  0.15436935870E+02  0.92054567343E+02 -0.23010825463E+03  0.27804573549E+03  0.12508908752E+03 0.  0.
         23    2    1    2    0    0 -0.15436935870E+02 -0.92054567343E+02 -0.14987691972E+03  0.19922826726E+03  0.92284717313E+02 0.  0.
          5    1    3    3  502    0  0.52261423606E+02  0.56057919520E+02 -0.20825505908E+03  0.22194906797E+03  0.41800000000E+01 0. -1.
         -5    1    3    3    0  502 -0.36824487735E+02  0.35996647824E+02 -0.21853195546E+02  0.56096667522E+02  0.41800000000E+01 0. -1.
        -11    1    4    4    0    0 -0.16844921171E+02 -0.58009397348E+02 -0.18014742953E+02  0.63034692937E+02  0.00000000000E+00 0. -1.
         11    1    4    4    0    0  0.14079853012E+01 -0.34045169995E+02 -0.13186217677E+03  0.13619357432E+03  0.00000000000E+00 0.  1.
</event>
<event>
 8    1  0.3654190E-009  0.9871772E+02  0.7561462E-02  0.1283016E+00
          1   -1    0    0  501    0  0.00000000000E+00  0.00000000000E+00  0.83832018849E+02  0.83832018849E+02  0.00000000000E+00 0. -1.
         -1   -1    0    0    0  501 -0.00000000000E+00 -0.00000000000E+00 -0.16934764113E+03  0.16934764113E+03  0.00000000000E+00 0.  1.
         25    2    1    2    0    0 -0.37272129570E+02  0.80175163362E+01 -0.18065102052E+02  0.13201498152E+03  0.12509242672E+03 0.  0.
         23    2    1    2    0    0  0.37272129570E+02 -0.80175163362E+01 -0.67450520229E+02  0.12116467846E+03  0.93154787400E+02 0.  0.
          5    1    3    3  502    0  0.95949767461E+01 -0.49661944692E+02  0.11298778246E+02  0.51995260546E+02  0.41800000000E+01 0. -1.
         -5    1    3    3    0  502 -0.46867106316E+02  0.57679461029E+02 -0.29363880298E+02  0.80019720977E+02  0.41800000000E+01 0. -1.
        -11    1    4    4    0    0  0.12775014587E+02 -0.34128904831E+02 -0.76060918371E+02  0.84340064300E+02  0.00000000000E+00 0.  1.
         11    1    4    4    0    0  0.24497114983E+02  0.26111388495E+02  0.86103981418E+01  0.36824614157E+02  0.00000000000E+00 0. -1.
</event>
<event>
 8    1  0.3654190E-009  0.1726393E+03  0.7561462E-02  0.1175123E+00
          2   -1    0    0  501    0  0.00000000000E+00  0.00000000000E+00  0.87877462221E+03  0.87877462221E+03  0.00000000000E+00 0. -1.
         -2   -1    0    0    0  501 -0.00000000000E+00 -0.00000000000E+00 -0.40727493815E+02  0.40727493815E+02  0.00000000000E+00 0.  1.
         25    2    1    2    0    0 -0.93705463924E+02 -0.11992507828E+03  0.50563187398E+03  0.54265429351E+03  0.12508937567E+03 0.  0.
         23    2    1    2    0    0  0.93705463924E+02  0.11992507828E+03  0.33241525441E+03  0.37684782252E+03  0.91387316406E+02 0.  0.
          5    1    3    3  502    0 -0.26289938817E+02 -0.96207231433E+02  0.41669621404E+03  0.42848593847E+03  0.41800000000E+01 0. -1.
         -5    1    3    3    0  502 -0.67415525108E+02 -0.23717846849E+02  0.88935659938E+02  0.11416835504E+03  0.41800000000E+01 0. -1.
        -11    1    4    4    0    0  0.10366005855E+03  0.75239933293E+02  0.20798074892E+03  0.24425897572E+03  0.00000000000E+00 0.  1.
         11    1    4    4    0    0 -0.99545946249E+01  0.44685144989E+02  0.12443450550E+03  0.13258884680E+03  0.00000000000E+00 0. -1.
</event>
<event>
 8    1  0.3654190E-009  0.1094708E+03  0.7561462E-02  0.1261553E+00
          2   -1    0    0  501    0  0.00000000000E+00  0.00000000000E+00  0.95855237035E+03  0.95855237035E+03  0.00000000000E+00 0. -1.
         -2   -1    0    0    0  501 -0.00000000000E+00 -0.00000000000E+00 -0.25189106690E+02  0.25189106690E+02  0.00000000000E+00 0.  1.
         25    2    1    2    0    0  0.40038326818E+02  0.34133476805E+01  0.82500916710E+03  0.83540485985E+03  0.12508571267E+03 0.  0.
         23    2    1    2    0    0 -0.40038326818E+02 -0.34133476805E+01  0.10835409656E+03  0.14833661719E+03  0.92996898875E+02 0.  0.
          5    1    3    3  502    0 -0.23279136852E+02 -0.44511963364E+02  0.26162510525E+03  0.26643648623E+03  0.41800000000E+01 0.  1.
         -5    1    3    3    0  502  0.63317463670E+02  0.47925311044E+02  0.56338406184E+03  0.56896837362E+03  0.41800000000E+01 0.  1.
        -11    1    4    4    0    0 -0.14511143780E+02 -0.41050017182E+02  0.17863964291E+02  0.47061644942E+02  0.00000000000E+00 0.  1.
         11    1    4    4    0    0 -0.25527183037E+02  0.37636669502E+02  0.90490132273E+02  0.10127497225E+03  0.00000000000E+00 0. -1.
</event>
<event>
 8    1  0.3654190E-009  0.1142147E+03  0.7561462E-02  0.1252958E+00
         -3   -1    0    0    0  501 -0.00000000000E+00  0.00000000000E+00  0.33774104363E+03  0.33774104363E+03  0.00000000000E+00 0.  1.
          3   -1    0    0  501    0  0.00000000000E+00 -0.00000000000E+00 -0.58071624487E+02  0.58071624487E+02  0.00000000000E+00 0. -1.
         25    2    1    2    0    0  0.25488621530E+01 -0.91415126634E+02  0.15978533198E+03  0.22258055828E+03  0.12509008966E+03 0.  0.
         23    2    1    2    0    0 -0.25488621530E+01  0.91415126634E+02  0.11988408716E+03  0.17323210984E+03  0.85287440160E+02 0.  0.
          5    1    3    3  502    0 -0.22177517550E+02 -0.44151049173E+01 -0.13787111498E+02  0.26812166634E+02  0.41800000000E+01 0.  1.
         -5    1    3    3    0  502  0.24726379703E+02 -0.87000021716E+02  0.17357244348E+03  0.19576839165E+03  0.41800000000E+01 0.  1.
        -11    1    4    4    0    0 -0.25618460914E+02  0.58593429835E+01  0.28465960148E+01  0.26433701002E+02  0.00000000000E+00 0.  1.
         11    1    4    4    0    0  0.23069598761E+02  0.85555783650E+02  0.11703749115E+03  0.14679840884E+03  0.00000000000E+00 0. -1.
</event>
<event>
 8    1  0.3654190E-009  0.1547161E+03  0.7561462E-02  0.1194795E+00
         -1   -1    0    0    0  501 -0.00000000000E+00  0.00000000000E+00  0.15919251648E+03  0.15919251648E+03  0.00000000000E+00 0.  1.
          1   -1    0    0  501    0  0.00000000000E+00 -0.00000000000E+00 -0.16429568231E+03  0.16429568231E+03  0.00000000000E+00 0. -1.
         25    2    1    2    0    0 -0.44222923301E+02  0.11185460147E+03 -0.13307209184E+02  0.17404514156E+03  0.12509001027E+03 0.  0.
         23    2    1    2    0    0  0.44222923301E+02 -0.11185460147E+03  0.82040433517E+01  0.14944305722E+03  0.88310827248E+02 0.  0.
          5    1    3    3  502    0 -0.48296427804E+02 -0.11610338958E+02 -0.62909771860E+01  0.50243344866E+02  0.41800000000E+01 0. -1.
         -5    1    3    3    0  502  0.40735045029E+01  0.12346494043E+03 -0.70162319984E+01  0.12380179670E+03  0.41800000000E+01 0. -1.
        -11    1    4    4    0    0  0.31626624592E+02 -0.97393063179E+01  0.29546919348E+02  0.44363474995E+02  0.00000000000E+00 0.  1.
         11    1    4    4    0    0  0.12596298708E+02 -0.10211529515E+03 -0.21342875996E+02  0.10507958223E+03  0.00000000000E+00 0. -1.
</event>
<event>
 8    1  0.3654190E-009  0.1582510E+03  0.7561462E-02  0.1190686E+00
         -2   -1    0    0    0  501 -0.00000000000E+00  0.00000000000E+00  0.13087716285E+03  0.13087716285E+03  0.00000000000E+00 0.  1.
          2   -1    0    0  501    0  0.00000000000E+00 -0.00000000000E+00 -0.21933034335E+03  0.21933034335E+03  0.00000000000E+00 0. -1.
         25    2    1    2    0    0 -0.12333159855E+03 -0.10360530736E+02 -0.29542207586E+02  0.17843147463E+03  0.12508807022E+03 0.  0.
         23    2    1    2    0    0  0.12333159855E+03  0.10360530736E+02 -0.58910972906E+02  0.17177603157E+03  0.10353008498E+03 0.  0.
          5    1    3    3  502    0 -0.76106172343E+02  0.51150749287E+02 -0.39884774938E+02  0.10008404615E+03  0.41800000000E+01 0.  1.
         -5    1    3    3    0  502 -0.47225426205E+02 -0.61511280023E+02  0.10342567352E+02  0.78347428482E+02  0.41800000000E+01 0.  1.
        -11    1    4    4    0    0  0.85906142092E+02  0.44183289054E+02 -0.71018966852E+02  0.11989879872E+03  0.00000000000E+00 0. -1.
         11    1    4    4    0    0  0.37425456456E+02 -0.33822758318E+02  0.12107993946E+02  0.51877232854E+02  0.00000000000E+00 0.  1.
</event>
<event>
 8    1  0.3654190E-009  0.1147493E+03  0.7561462E-02  0.1252019E+00
          2   -1    0    0  501    0  0.00000000000E+00  0.00000000000E+00  0.99680418975E+03  0.99680418975E+03  0.00000000000E+00 0. -1.
         -2   -1    0    0    0  501 -0.00000000000E+00 -0.00000000000E+00 -0.14121208467E+02  0.14121208467E+02  0.00000000000E+00 0.  1.
         25    2    1    2    0    0  0.16070354107E+02  0.44740417882E+02  0.57482803665E+03  0.59019994357E+03  0.12509492554E+03 0.  0.
         23    2    1    2    0    0 -0.16070354107E+02 -0.44740417882E+02  0.40785494463E+03  0.42072545465E+03  0.91674920524E+02 0.  0.
          5    1    3    3  502    0  0.17018234422E+02  0.87317118421E+02  0.33793937134E+03  0.34947731053E+03  0.41800000000E+01 0. -1.
         -5    1    3    3    0  502 -0.94788031426E+00 -0.42576700539E+02  0.23688866531E+03  0.24072263305E+03  0.41800000000E+01 0. -1.
        -11    1    4    4    0    0  0.24813102995E+02 -0.50591033491E+02  0.29974441661E+03  0.30499484920E+03  0.00000000000E+00 0.  1.
         11    1    4    4    0    0 -0.40883457102E+02  0.58506156087E+01  0.10811052802E+03  0.11573060544E+03  0.00000000000E+00 0. -1.
</event>
<event>
 8    1  0.3654190E-009  0.1187021E+03  0.7561462E-02  0.1245254E+00
          1   -1    0    0  501    0  0.00000000000E+00  0.00000000000E+00  0.61938583595E+03  0.61938583595E+03  0.00000000000E+00 0. -1.
         -1   -1    0    0    0  501 -0.00000000000E+00 -0.00000000000E+00 -0.28738714793E+02  0.28738714793E+02  0.00000000000E+00 0.  1.
         25    2    1    2    0    0  0.68510019885E+02 -0.17518582012E+02  0.25330705861E+03  0.29122622053E+03  0.12509085515E+03 0.  0.
         23    2    1    2    0    0 -0.68510019885E+02  0.17518582012E+02  0.33734006254E+03  0.35689833021E+03  0.92615208091E+02 0.  0.
          5    1    3    3  502    0  0.99977550013E+02  0.22533316494E+01  0.21761626422E+03  0.23953058022E+03  0.41800000000E+01 0. -1.
         -5    1    3    3    0  502 -0.31467530128E+02 -0.19771913662E+02  0.35690794393E+02  0.51695640306E+02  0.41800000000E+01 0. -1.
        -11    1    4    4    0    0 -0.29471446680E+02 -0.27513483838E+02  0.23529526690E+03  0.23872457055E+03  0.00000000000E+00 0. -1.
         11    1    4    4    0    0 -0.39038573205E+02  0.45032065851E+02  0.10204479565E+03  0.11817375966E+03  0.00000000000E+00 0.  1.
</event>
<event>
 8    1  0.3654190E-009  0.1234892E+03  0.7561462E-02  0.1237450E+00
          1   -1    0    0  501    0  0.00000000000E+00  0.00000000000E+00  0.69950776051E+02  0.69950776051E+02  0.00000000000E+00 0. -1.
         -1   -1    0    0    0  501 -0.00000000000E+00 -0.00000000000E+00 -0.27098024834E+03  0.27098024834E+03  0.00000000000E+00 0.  1.
         25    2    1    2    0    0  0.58226181068E+02 -0.44032288374E+02 -0.58087374272E+02  0.15605904579E+03  0.12510456484E+03 0.  0.
         23    2    1    2    0    0 -0.58226181068E+02  0.44032288374E+02 -0.14294209802E+03  0.18487197860E+03  0.91739165595E+02 0.  0.
          5    1    3    3  502    0  0.30818720257E+01 -0.69419018243E+02  0.32093350626E+01  0.69686944693E+02  0.41800000000E+01 0.  1.
         -5    1    3    3    0  502  0.55144309043E+02  0.25386729869E+02 -0.61296709335E+02  0.86372101100E+02  0.41800000000E+01 0.  1.
        -11    1    4    4    0    0  0.15555674478E+01  0.55601580745E+02 -0.78538075181E+02  0.96240245347E+02  0.00000000000E+00 0.  1.
         11    1    4    4    0    0 -0.59781748516E+02 -0.11569292370E+02 -0.64404022835E+02  0.88631733250E+02  0.00000000000E+00 0. -1.
</event>
<event>
 8    1  0.3654190E-009  0.1001129E+03  0.7561462E-02  0.1280059E+00
          2   -1    0    0  501    0  0.00000000000E+00  0.00000000000E+00  0.25447058086E+03  0.25447058086E+03  0.00000000000E+00 0. -1.
         -2   -1    0    0    0  501 -0.00000000000E+00 -0.00000000000E+00 -0.52714090756E+02  0.52714090756E+02  0.00000000000E+00 0.  1.
         25    2    1    2    0    0  0.77921766464E+01  0.20522758727E+02  0.83183986924E+02  0.15182111595E+03  0.12509266136E+03 0.  0.
         23    2    1    2    0    0 -0.77921766464E+01 -0.20522758727E+02  0.11857250318E+03  0.15536355567E+03  0.97961698003E+02 0.  0.
          5    1    3    3  502    0 -0.91054876020E+01  0.58048460431E+02  0.92268319007E+02  0.10946893968E+03  0.41800000000E+01 0. -1.
         -5    1    3    3    0  502  0.16897664248E+02 -0.37525701704E+02 -0.90843320822E+01  0.42352176270E+02  0.41800000000E+01 0. -1.
        -11    1    4    4    0    0 -0.55733901390E+01 -0.60077621754E+02  0.64371016432E+02  0.88227042735E+02  0.00000000000E+00 0.  1.
         11    1    4    4    0    0 -0.22187865074E+01  0.39554863027E+02  0.54201486749E+02  0.67136512931E+02  0.00000000000E+00 0. -1.
</event>
<event>
 8    1  0.3654190E-009  0.1776763E+03  0.7561462E-02  0.1170071E+00
          1   -1    0    0  501    0  0.00000000000E+00  0.00000000000E+00  0.15470334530E+04  0.15470334530E+04  0.00000000000E+00 0. -1.
         -1   -1    0    0    0  501 -0.00000000000E+00 -0.00000000000E+00 -0.29343790606E+02  0.29343790606E+02  0.00000000000E+00 0.  1.
         25    2    1    2    0    0  0.12792793218E+03 -0.88940413213E+02  0.11408543802E+04  0.11582196782E+04  0.12509257881E+03 0.  0.
         23    2    1    2    0    0 -0.12792793218E+03  0.88940413213E+02  0.37683528220E+03  0.41815756538E+03  0.92601115780E+02 0.  0.
          5    1    3    3  502    0  0.14195396184E+03 -0.10586428463E+03  0.10317598586E+04  0.10468543606E+04  0.41800000000E+01 0.  1.
         -5    1    3    3    0  502 -0.14026029658E+02  0.16923871415E+02  0.10909452155E+03  0.11136531759E+03  0.41800000000E+01 0.  1.
        -11    1    4    4    0    0 -0.73443079652E+02  0.53154970756E+02  0.31687313962E+03  0.32958750504E+03  0.00000000000E+00 0. -1.
         11    1    4    4    0    0 -0.54484852529E+02  0.35785442457E+02  0.59962142577E+02  0.88570060345E+02  0.00000000000E+00 0.  1.
</event>
<event>
 8    1  0.3654190E-009  0.1230624E+03  0.7561462E-02  0.1238129E+00
          2   -1    0    0  501    0  0.00000000000E+00  0.00000000000E+00  0.86021310893E+03  0.86021310893E+03  0.00000000000E+00 0.  1.
         -2   -1    0    0    0  501 -0.00000000000E+00 -0.00000000000E+00 -0.28506242101E+02  0.28506242101E+02  0.00000000000E+00 0. -1.
         25    2    1    2    0    0 -0.62693520826E+02 -0.87071602782E+02  0.34938420207E+03  0.38630090331E+03  0.12508847141E+03 0.  0.
         23    2    1    2    0    0  0.62693520826E+02  0.87071602782E+02  0.48232266476E+03  0.50241844772E+03  0.90979130039E+02 0.  0.
          5    1    3    3  502    0 -0.32898126339E+01 -0.15058662626E+02 -0.73139212106E+01  0.17565649169E+02  0.41800000000E+01 0. -1.
         -5    1    3    3    0  502 -0.59403708192E+02 -0.72012940156E+02  0.35669812328E+03  0.36873525415E+03  0.41800000000E+01 0. -1.
        -11    1    4    4    0    0  0.24378775642E+02 -0.14351526044E+02  0.58986728025E+02  0.65419607800E+02  0.00000000000E+00 0. -1.
         11    1    4    4    0    0  0.38314745183E+02  0.10142312883E+03  0.42333593674E+03  0.43699883992E+03  0.00000000000E+00 0.  1.
</event>
<event>
 8    1  0.3654190E-009  0.1198888E+03  0.7561462E-02  0.1243281E+00
          2   -1    0    0  501    0  0.00000000000E+00  0.00000000000E+00  0.35073911928E+03  0.35073911928E+03  0.00000000000E+00 0. -1.
         -2   -1    0    0    0  501 -0.00000000000E+00 -0.00000000000E+00 -0.58760642569E+02  0.58760642569E+02  0.00000000000E+00 0.  1.
         25    2    1    2    0    0 -0.23069921525E+02  0.91434119397E+02  0.14339639668E+03  0.21237418881E+03  0.12509136669E+03 0.  0.
         23    2    1    2    0    0  0.23069921525E+02 -0.91434119397E+02  0.14858208003E+03  0.19712557304E+03  0.88822505997E+02 0.  0.
          5    1    3    3  502    0 -0.46580907727E+02  0.72991446532E+02  0.25040910790E+02  0.90233318928E+02  0.41800000000E+01 0.  1.
         -5    1    3    3    0  502  0.23510986202E+02  0.18442672865E+02  0.11835548589E+03  0.12214086988E+03  0.41800000000E+01 0.  1.
        -11    1    4    4    0    0 -0.27199899806E+02 -0.53229185419E+02  0.10357452562E+03  0.11958621613E+03  0.00000000000E+00 0. -1.
         11    1    4    4    0    0  0.50269821330E+02 -0.38204933978E+02  0.45007554411E+02  0.77539356916E+02  0.00000000000E+00 0.  1.
</event>
<event>
 8    1  0.3654190E-009  0.7301344E+02  0.7561462E-02  0.1350136E+00
         -1   -1    0    0    0  501 -0.00000000000E+00  0.00000000000E+00  0.71485787986E+02  0.71485787986E+02  0.00000000000E+00 0.  1.
          1   -1    0    0  501    0  0.00000000000E+00 -0.00000000000E+00 -0.22367279273E+03  0.22367279273E+03  0.00000000000E+00 0. -1.
         25    2    1    2    0    0 -0.15442123304E+02  0.36153311125E+02 -0.14609271387E+03  0.19630750034E+03  0.12509209635E+03 0.  0.
         23    2    1    2    0    0  0.15442123304E+02 -0.36153311125E+02 -0.60942908778E+01  0.98851080372E+02  0.90492400962E+02 0.  0.
          5    1    3    3  502    0 -0.44557340720E+02  0.34451110056E+02 -0.10367464894E+02  0.57421183586E+02  0.41800000000E+01 0. -1.
         -5    1    3    3    0  502  0.29115217416E+02  0.17022010695E+01 -0.13572524897E+03  0.13888631676E+03  0.41800000000E+01 0. -1.
        -11    1    4    4    0    0 -0.14788788907E+02 -0.22477065359E+02 -0.42052393691E+02  0.49923246685E+02  0.00000000000E+00 0. -1.
         11    1    4    4    0    0  0.30230912211E+02 -0.13676245766E+02  0.35958102813E+02  0.48927833687E+02  0.00000000000E+00 0.  1.
</event>
<event>
 8    1  0.3654190E-009  0.1131468E+03  0.7561462E-02  0.1254851E+00
          1   -1    0    0  501    0  0.00000000000E+00  0.00000000000E+00  0.23252612816E+02  0.23252612816E+02  0.00000000000E+00 0. -1.
         -1   -1    0    0    0  501 -0.00000000000E+00 -0.00000000000E+00 -0.60544225997E+03  0.60544225997E+03  0.00000000000E+00 0.  1.
         25    2    1    2    0    0  0.28336368214E+02 -0.20601540174E+02 -0.41366031101E+03  0.43357754902E+03  0.12508902786E+03 0.  0.
         23    2    1    2    0    0 -0.28336368214E+02  0.20601540174E+02 -0.16852933615E+03  0.19511732377E+03  0.91876328129E+02 0.  0.
          5    1    3    3  502    0  0.14516087554E+02 -0.73442677412E+02 -0.24904209219E+03  0.26008456269E+03  0.41800000000E+01 0. -1.
         -5    1    3    3    0  502  0.13820280660E+02  0.52841137237E+02 -0.16461821881E+03  0.17349298633E+03  0.41800000000E+01 0. -1.
        -11    1    4    4    0    0 -0.40507210049E+02  0.50216021340E+02 -0.12911547633E+03  0.14433741405E+03  0.00000000000E+00 0. -1.
         11    1    4    4    0    0  0.12170841835E+02 -0.29614481166E+02 -0.39413859818E+02  0.50779909722E+02  0.00000000000E+00 0.  1.
</event>
<event>
 8    1  0.3654190E-009  0.1152481E+03  0.7561462E-02  0.1251149E+00
          2   -1    0    0  501    0  0.00000000000E+00  0.00000000000E+00  0.18346272260E+03  0.18346272260E+03  0.00000000000E+00 0. -1.
         -2   -1    0    0    0  501 -0.00000000000E+00 -0.00000000000E+00 -0.85666388012E+02  0.85666388012E+02  0.00000000000E+00 0.  1.
         25    2    1    2    0    0 -0.68532861490E+01  0.62479041263E+02  0.48550396670E+02  0.14816849258E+03  0.12508462355E+03 0.  0.
         23    2    1    2    0    0  0.68532861490E+01 -0.62479041263E+02  0.49245937918E+02  0.12096061803E+03  0.90860940915E+02 0.  0.
          5    1    3    3  502    0 -0.63707575760E+02  0.24872796687E+02  0.86228486676E+01  0.69058939635E+02  0.41800000000E+01 0.  1.
         -5    1    3    3    0  502  0.56854289611E+02  0.37606244576E+02  0.39927548003E+02  0.79109552949E+02  0.41800000000E+01 0.  1.
        -11    1    4    4    0    0 -0.18439455048E+02 -0.65651980859E+02  0.31248675256E+01  0.68263906204E+02  0.00000000000E+00 0.  1.
         11    1    4    4    0    0  0.25292741197E+02  0.31729395959E+01  0.46121070392E+02  0.52696711824E+02  0.00000000000E+00 0. -1.
</event>
<event>
 8    1  0.3654190E-009  0.9265759E+02  0.7561462E-02  0.1296541E+00
         -1   -1    0    0    0  501 -0.00000000000E+00  0.00000000000E+00  0.11279452444E+03  0.11279452444E+03  0.00000000000E+00 0.  1.
          1   -1    0    0  501    0  0.00000000000E+00 -0.00000000000E+00 -0.20211063026E+03  0.20211063026E+03  0.00000000000E+00 0. -1.
         25    2    1    2    0    0  0.15417855869E+02  0.45962997090E+02  0.47837842129E+02  0.14243064713E+03  0.12509085786E+03 0.  0.
         23    2    1    2    0    0 -0.15417855869E+02 -0.45962997090E+02 -0.13715394795E+03  0.17247450758E+03  0.92660363392E+02 0.  0.
          5    1    3    3  502    0 -0.51713713959E+02  0.99266547462E+01  0.38901737363E+02  0.65602318981E+02  0.41800000000E+01 0.  1.
         -5    1    3    3    0  502  0.67131569827E+02  0.36036342344E+02  0.89361047661E+01  0.76828328144E+02  0.41800000000E+01 0.  1.
        -11    1    4    4    0    0 -0.21745692385E+02 -0.20283216528E+02 -0.14243365938E+03  0.14550474678E+03  0.00000000000E+00 0. -1.
         11    1    4    4    0    0  0.63278365165E+01 -0.25679780563E+02  0.52797114304E+01  0.26969760798E+02  0.00000000000E+00 0.  1.
</event>
<event>
 8    1  0.3654190E-009  0.1574115E+03  0.7561462E-02  0.1191651E+00
         -1   -1    0    0    0  501 -0.00000000000E+00  0.00000000000E+00  0.23802127033E+03  0.23802127033E+03  0.00000000000E+00 0.  1.
          1   -1    0    0  501    0  0.00000000000E+00 -0.00000000000E+00 -0.13528180665E+03  0.13528180665E+03  0.00000000000E+00 0. -1.
         25    2    1    2    0    0 -0.12655248262E+03 -0.61715367408E+02  0.57416427125E+02  0.19689738083E+03  0.12509042746E+03 0.  0.
         23    2    1    2    0    0  0.12655248262E+03  0.61715367408E+02  0.45323036552E+02  0.17640569615E+03  0.96127387149E+02 0.  0.
          5    1    3    3  502    0 -0.40061450023E+02 -0.42468614132E+01 -0.38201440988E+02  0.55675650902E+02  0.41800000000E+01 0. -1.
         -5    1    3    3    0  502 -0.86491032600E+02 -0.57468505995E+02  0.95617868113E+02  0.14122172993E+03  0.41800000000E+01 0. -1.
        -11    1    4    4    0    0  0.12334803654E+03  0.15787457276E+02  0.35613750691E+02  0.12935347372E+03  0.00000000000E+00 0.  1.
         11    1    4    4    0    0  0.32044460848E+01  0.45927910132E+02  0.97092858602E+01  0.47052222432E+02  0.00000000000E+00 0. -1.
</event>
<event>
 8    1  0.3654190E-009  0.1070358E+03  0.7561462E-02  0.1266160E+00
          1   -1    0    0  501    0  0.00000000000E+00  0.00000000000E+00  0.13918632641E+03  0.13918632641E+03  0.00000000000E+00 0. -1.
         -1   -1    0    0    0  501 -0.00000000000E+00 -0.00000000000E+00 -0.10706522640E+03  0.10706522640E+03  0.00000000000E+00 0.  1.
         25    2    1    2    0    0  0.36295248995E+02 -0.31407581479E+02  0.31711660393E+01  0.13401814040E+03  0.12508806653E+03 0.  0.
         23    2    1    2    0    0 -0.36295248995E+02  0.31407581479E+02  0.28949933972E+02  0.11223341242E+03  0.97234041938E+02 0.  0.
          5    1    3    3  502    0  0.75239379277E+02 -0.11245262473E+02  0.30621188011E+02  0.82113029887E+02  0.41800000000E+01 0.  1.
         -5    1    3    3    0  502 -0.38944130281E+02 -0.20162319006E+02 -0.27450021972E+02  0.51905110513E+02  0.41800000000E+01 0.  1.
        -11    1    4    4    0    0 -0.35906322749E+02 -0.20882701738E+02  0.41222889245E+02  0.58520747115E+02  0.00000000000E+00 0. -1.
         11    1    4    4    0    0 -0.38892624660E+00  0.52290283217E+02 -0.12272955273E+02  0.53712665300E+02  0.00000000000E+00 0.  1.
</event>
<event>
 8    1  0.3654190E-009  0.1647141E+03  0.7561462E-02  0.1183475E+00
         -2   -1    0    0    0  501 -0.00000000000E+00  0.00000000000E+00  0.46603612959E+02  0.46603612959E+02  0.00000000000E+00 0.  1.
          2   -1    0    0  501    0  0.00000000000E+00 -0.00000000000E+00 -0.86617151059E+03  0.86617151059E+03  0.00000000000E+00 0. -1.
         25    2    1    2    0    0  0.85051328372E+02 -0.12088521074E+03 -0.61243689202E+03  0.64231811157E+03  0.12508655845E+03 0.  0.
         23    2    1    2    0    0 -0.85051328372E+02  0.12088521074E+03 -0.20713100561E+03  0.27045701199E+03  0.91633941378E+02 0.  0.
          5    1    3    3  502    0  0.10777915264E+02 -0.84624018839E+02 -0.46904680938E+03  0.47675965624E+03  0.41800000000E+01 0.  1.
         -5    1    3    3    0  502  0.74273413107E+02 -0.36261191901E+02 -0.14339008264E+03  0.16555845533E+03  0.41800000000E+01 0.  1.
        -11    1    4    4    0    0 -0.31923576956E+01  0.57864367536E+02 -0.29645385401E+02  0.65094739062E+02  0.00000000000E+00 0.  1.
         11    1    4    4    0    0 -0.81858970676E+02  0.63020843204E+02 -0.17748562021E+03  0.20536227292E+03  0.00000000000E+00 0. -1.
</event>
<event>
 8    1  0.3654190E-009  0.1167822E+03  0.7561462E-02  0.1248502E+00
          2   -1    0    0  501    0  0.00000000000E+00  0.00000000000E+00  0.14537744878E+03  0.14537744878E+03  0.00000000000E+00 0. -1.
         -2   -1    0    0    0  501 -0.00000000000E+00 -0.00000000000E+00 -0.11613560337E+03  0.11613560337E+03  0.00000000000E+00 0.  1.
         25    2    1    2    0    0  0.26655654060E+02  0.49722284957E+02 -0.28124508152E+02  0.14007667576E+03  0.12509059764E+03 0.  0.
         23    2    1    2    0    0 -0.26655654060E+02 -0.49722284957E+02  0.57366353563E+02  0.12143637639E+03  0.90956393256E+02 0.  0.
          5    1    3    3  502    0  0.70629620267E+02  0.48086152897E+00 -0.19301664333E+02  0.73340310422E+02  0.41800000000E+01 0.  1.
         -5    1    3    3    0  502 -0.43973966207E+02  0.49241423428E+02 -0.88228438191E+01  0.66736365335E+02  0.41800000000E+01 0.  1.
        -11    1    4    4    0    0  0.27965172425E+02 -0.20807260922E+02  0.47398548675E+02  0.58835494324E+02  0.00000000000E+00 0. -1.
         11    1    4    4    0    0 -0.54620826484E+02 -0.28915024034E+02  0.99678048880E+01  0.62600882063E+02  0.00000000000E+00 0.  1.
</event>
<event>
 8    1  0.3654190E-009  0.1089087E+03  0.7561462E-02  0.1262604E+00
         -1   -1    0    0    0  501 -0.00000000000E+00  0.00000000000E+00  0.14328222584E+02  0.14328222584E+02  0.00000000000E+00 0.  1.
          1   -1    0    0  501    0  0.00000000000E+00 -0.00000000000E+00 -0.96724846937E+03  0.96724846937E+03  0.00000000000E+00 0. -1.
         25    2    1    2    0    0  0.12253606090E+02 -0.16765524005E+02 -0.71560223711E+03  0.72675049164E+03  0.12509389153E+03 0.  0.
         23    2    1    2    0    0 -0.12253606090E+02  0.16765524005E+02 -0.23731800968E+03  0.25482620031E+03  0.90472763793E+02 0.  0.
          5    1    3    3  502    0 -0.36480116847E+02  0.37871656850E+02 -0.26180768756E+03  0.26706890306E+03  0.41800000000E+01 0. -1.
         -5    1    3    3    0  502  0.48733722937E+02 -0.54637180856E+02 -0.45379454955E+03  0.45968158859E+03  0.41800000000E+01 0. -1.
        -11    1    4    4    0    0  0.36132833876E+02  0.23174634559E+02 -0.91795194260E+02  0.10133608962E+03  0.00000000000E+00 0.  1.
         11    1    4    4    0    0 -0.48386439967E+02 -0.64091105536E+01 -0.14552281542E+03  0.15349011069E+03  0.00000000000E+00 0. -1.
</event>
<event>
 8    1  0.3654190E-009  0.1057804E+03  0.7561462E-02  0.1268590E+00
          1   -1    0    0  501    0  0.00000000000E+00  0.00000000000E+00  0.67481829168E+03  0.67481829168E+03  0.00000000000E+00 0. -1.
         -1   -1    0    0    0  501 -0.00000000000E+00 -0.00000000000E+00 -0.24917601882E+02  0.24917601882E+02  0.00000000000E+00 0.  1.
         25    2    1    2    0    0  0.48471087325E+02  0.35099519138E+02  0.25794377913E+03  0.29285501498E+03  0.12509054343E+03 0.  0.
         23    2    1    2    0    0 -0.48471087325E+02 -0.35099519138E+02  0.39195691067E+03  0.40688087858E+03  0.91325828689E+02 0.  0.
          5    1    3    3  502    0  0.61183592973E+02 -0.36273659981E+01  0.45376242314E+02  0.76374508834E+02  0.41800000000E+01 0. -1.
         -5    1    3    3    0  502 -0.12712505648E+02  0.38726885136E+02  0.21256753682E+03  0.21648050615E+03  0.41800000000E+01 0. -1.
        -11    1    4    4    0    0  0.79397627224E+01 -0.50145939551E+02  0.18734484140E+03  0.19410240773E+03  0.00000000000E+00 0.  1.
         11    1    4    4    0    0 -0.56410850048E+02  0.15046420413E+02  0.20461206927E+03  0.21277847086E+03  0.00000000000E+00 0. -1.
</event>
<event>
 8    1  0.3654190E-009  0.3030243E+03  0.7561462E-02  0.1083739E+00
         -2   -1    0    0    0  501 -0.00000000000E+00  0.00000000000E+00  0.98650551172E+02  0.98650551172E+02  0.00000000000E+00 0.  1.
          2   -1    0    0  501    0  0.00000000000E+00 -0.00000000000E+00 -0.15995765097E+04  0.15995765097E+04  0.00000000000E+00 0. -1.
         25    2    1    2    0    0 -0.29242438765E+03  0.53547798377E+02 -0.24599834469E+03  0.40563767527E+03  0.12508936327E+03 0.  0.
         23    2    1    2    0    0  0.29242438765E+03 -0.53547798377E+02 -0.12549276138E+04  0.12925893856E+04  0.86974792855E+02 0.  0.
          5    1    3    3  502    0 -0.24490419412E+03  0.28640239363E+02 -0.25064463881E+03  0.35162271681E+03  0.41800000000E+01 0. -1.
         -5    1    3    3    0  502 -0.47520193528E+02  0.24907559014E+02  0.46462941181E+01  0.54014958465E+02  0.41800000000E+01 0. -1.
        -11    1    4    4    0    0  0.19497036257E+03 -0.11410801977E+01 -0.69487264471E+03  0.72170820746E+03  0.00000000000E+00 0.  1.
         11    1    4    4    0    0  0.97454025081E+02 -0.52406718179E+02 -0.56005496910E+03  0.57088117811E+03  0.00000000000E+00 0. -1.
</event>
<event>
 8    1  0.3654190E-009  0.1120455E+03  0.7561462E-02  0.1256828E+00
         -2   -1    0    0    0  501 -0.00000000000E+00  0.00000000000E+00  0.31011881741E+02  0.31011881741E+02  0.00000000000E+00 0.  1.
          2   -1    0    0  501    0  0.00000000000E+00 -0.00000000000E+00 -0.12555317061E+04  0.12555317061E+04  0.00000000000E+00 0. -1.
         25    2    1    2    0    0 -0.32901139063E+02 -0.82826168004E+02 -0.10814864154E+04  0.10923376325E+04  0.12508388213E+03 0.  0.
         23    2    1    2    0    0  0.32901139063E+02  0.82826168004E+02 -0.14303340889E+03  0.19420595530E+03  0.96512890103E+02 0.  0.
          5    1    3    3  502    0  0.10769862655E+02 -0.86702199052E+02 -0.40105787266E+03  0.41048526269E+03  0.41800000000E+01 0.  1.
         -5    1    3    3    0  502 -0.43671001719E+02  0.38760310482E+01 -0.68042854278E+03  0.68185236982E+03  0.41800000000E+01 0.  1.
        -11    1    4    4    0    0  0.16055464083E+02  0.12731951819E+02 -0.11507354472E+03  0.11688370809E+03  0.00000000000E+00 0. -1.
         11    1    4    4    0    0  0.16845674980E+02  0.70094216185E+02 -0.27959864176E+02  0.77322247206E+02  0.00000000000E+00 0.  1.
</event>
<event>
 8    1  0.3654190E-009  0.1177061E+03  0.7561462E-02  0.1246930E+00
         -1   -1    0    0    0  501 -0.00000000000E+00  0.00000000000E+00  0.33562644725E+02  0.33562644725E+02  0.00000000000E+00 0.  1.
          1   -1    0    0  501    0  0.00000000000E+00 -0.00000000000E+00 -0.50029383679E+03  0.50029383679E+03  0.00000000000E+00 0. -1.
         25    2    1    2    0    0  0.39069312667E+02  0.53173262084E+02 -0.21106133511E+03  0.25406337584E+03  0.12508998669E+03 0.  0.
         23    2    1    2    0    0 -0.39069312667E+02 -0.53173262084E+02 -0.25566985696E+03  0.27979310568E+03  0.92538096141E+02 0.  0.
          5    1    3    3  502    0 -0.49724614363E+01  0.73847936038E+02 -0.60205594428E+02  0.95500937326E+02  0.41800000000E+01 0. -1.
         -5    1    3    3    0  502  0.44041774103E+02 -0.20674673954E+02 -0.15085574068E+03  0.15856243851E+03  0.41800000000E+01 0. -1.
        -11    1    4    4    0    0  0.29990718381E+02 -0.17367723611E+02 -0.98643810288E+02  0.10455468579E+03  0.00000000000E+00 0. -1.
         11    1    4    4    0    0 -0.69060031048E+02 -0.35805538473E+02 -0.15702604667E+03  0.17523841989E+03  0.00000000000E+00 0.  1.
</event>
<event>
 8    1  0.3654190E-009  0.1727976E+03  0.7561462E-02  0.1174961E+00
         -2   -1    0    0    0  501 -0.00000000000E+00  0.00000000000E+00  0.42553473938E+02  0.42553473938E+02  0.00000000000E+00 0.  1.
          2   -1    0    0  501    0  0.00000000000E+00 -0.00000000000E+00 -0.89631122782E+03  0.89631122782E+03  0.00000000000E+00 0. -1.
         25    2    1    2    0    0 -0.78601596242E+02  0.14240545348E+03 -0.48147775902E+03  0.52338008409E+03  0.12509338865E+03 0.  0.
         23    2    1    2    0    0  0.78601596242E+02 -0.14240545348E+03 -0.37227999486E+03  0.41548461766E+03  0.87049117338E+02 0.  0.
          5    1    3    3  502    0 -0.94186068174E+02  0.12271024727E+03 -0.47113696986E+03  0.49589952308E+03  0.41800000000E+01 0. -1.
         -5    1    3    3    0  502  0.15584471931E+02  0.19695206210E+02 -0.10340789157E+02  0.27480561010E+02  0.41800000000E+01 0. -1.
        -11    1    4    4    0    0  0.93493325332E+01 -0.44467859181E+02 -0.34540451589E+02  0.57077520224E+02  0.00000000000E+00 0.  1.
         11    1    4    4    0    0  0.69252263709E+02 -0.97937594297E+02 -0.33773954327E+03  0.35840709744E+03  0.00000000000E+00 0. -1.
</event>
<event>
 8    1  0.3654190E-009  0.1717963E+03  0.7561462E-02  0.1175987E+00
          1   -1    0    0  501    0  0.00000000000E+00  0.00000000000E+00  0.49905715660E+03  0.49905715660E+03  0.00000000000E+00 0. -1.
         -1   -1    0    0    0  501 -0.00000000000E+00 -0.00000000000E+00 -0.60912619453E+02  0.60912619453E+02  0.00000000000E+00 0.  1.
         25    2    1    2    0    0  0.11786482080E+03  0.67755422617E+02  0.22711906359E+03  0.29276741325E+03  0.12508707343E+03 0.  0.
         23    2    1    2    0    0 -0.11786482080E+03 -0.67755422617E+02  0.21102547355E+03  0.26720236280E+03  0.91555660230E+02 0.  0.
          5    1    3    3  502    0 -0.11402894557E+02 -0.20106532126E+02  0.10791970629E+02  0.25850293392E+02  0.41800000000E+01 0. -1.
         -5    1    3    3    0  502  0.12926771536E+03  0.87861954744E+02  0.21632709296E+03  0.26691711986E+03  0.41800000000E+01 0. -1.
        -11    1    4    4    0    0 -0.13626652904E+02 -0.57399777968E+02  0.81756285372E+02  0.10081919648E+03  0.00000000000E+00 0. -1.
         11    1    4    4    0    0 -0.10423816790E+03 -0.10355644649E+02  0.12926918818E+03  0.16638316632E+03  0.00000000000E+00 0.  1.
</event>
<event>
 8    1  0.3654190E-009  0.1587318E+03  0.7561462E-02  0.1190136E+00
          1   -1    0    0  501    0  0.00000000000E+00  0.00000000000E+00  0.60495738626E+03  0.60495738626E+03  0.00000000000E+00 0. -1.
         -1   -1    0    0    0  501 -0.00000000000E+00 -0.00000000000E+00 -0.47412758088E+02  0.47412758088E+02  0.00000000000E+00 0.  1.
         25    2    1    2    0    0  0.30439023266E+01  0.12629078648E+03  0.24018902419E+03  0.29882466792E+03  0.12508711654E+03 0.  0.
         23    2    1    2    0    0 -0.30439023266E+01 -0.12629078648E+03  0.31735560398E+03  0.35354547642E+03  0.91220592161E+02 0.  0.
          5    1    3    3  502    0  0.15080244402E+02  0.14908067285E+03  0.21797835640E+03  0.26454583166E+03  0.41800000000E+01 0.  1.
         -5    1    3    3    0  502 -0.12036342075E+02 -0.22789886376E+02  0.22210667795E+02  0.34278836262E+02  0.41800000000E+01 0.  1.
        -11    1    4    4    0    0  0.22129135491E+02 -0.13574237813E+02  0.15231978066E+02  0.30099364206E+02  0.00000000000E+00 0.  1.
         11    1    4    4    0    0 -0.25173037818E+02 -0.11271654867E+03  0.30212362591E+03  0.32344611222E+03  0.00000000000E+00 0. -1.
</event>
<event>
 8    1  0.3654190E-009  0.9312027E+02  0.7561462E-02  0.1295467E+00
          1   -1    0    0  501    0  0.00000000000E+00  0.00000000000E+00  0.71218136395E+02  0.71218136395E+02  0.00000000000E+00 0. -1.
         -1   -1    0    0    0  501 -0.00000000000E+00 -0.00000000000E+00 -0.17790491842E+03  0.17790491842E+03  0.00000000000E+00 0.  1.
         25    2    1    2    0    0  0.16684818354E+02  0.41919999913E+01 -0.88284754524E+02  0.15406970748E+03  0.12508925156E+03 0.  0.
         23    2    1    2    0    0 -0.16684818354E+02 -0.41919999913E+01 -0.18402027503E+02  0.95053347331E+02  0.91654504500E+02 0.  0.
          5    1    3    3  502    0 -0.50074917458E+02  0.25110080906E+02 -0.40142484199E+02  0.69042776299E+02  0.41800000000E+01 0.  1.
         -5    1    3    3    0  502  0.66759735812E+02 -0.20918080915E+02 -0.48142270325E+02  0.85026931186E+02  0.41800000000E+01 0.  1.
        -11    1    4    4    0    0  0.21308099524E+02  0.23231857595E+01 -0.43887993101E+02  0.48842483924E+02  0.00000000000E+00 0.  1.
         11    1    4    4    0    0 -0.37992917879E+02 -0.65151857508E+01  0.25485965598E+02  0.46210863407E+02  0.00000000000E+00 0. -1.
</event>
<event>
 8    1  0.3654190E-009  0.1219591E+03  0.7561462E-02  0.1239900E+00
          1   -1    0    0  501    0  0.00000000000E+00  0.00000000000E+00  0.47267556910E+02  0.47267556910E+02  0.00000000000E+00 0. -1.
         -1   -1    0    0    0  501 -0.00000000000E+00 -0.00000000000E+00 -0.61301335293E+03  0.61301335293E+03  0.00000000000E+00 0.  1.
         25    2    1    2    0    0 -0.72282663427E+02 -0.92473719912E+02 -0.18887519861E+03  0.25514109444E+03  0.12508782960E+03 0.  0.
         23    2    1    2    0    0  0.72282663427E+02  0.92473719912E+02 -0.37687059741E+03  0.40513981541E+03  0.91272397400E+02 0.  0.
          5    1    3    3  502    0 -0.16193127252E+02 -0.49070902485E+02  0.15801073805E+01  0.51866559364E+02  0.41800000000E+01 0.  1.
         -5    1    3    3    0  502 -0.56089536176E+02 -0.43402817427E+02 -0.19045530599E+03  0.20327453508E+03  0.41800000000E+01 0.  1.
        -11    1    4    4    0    0  0.58180387968E+01  0.27412467657E+02 -0.15566176456E+02  0.32056182055E+02  0.00000000000E+00 0. -1.
         11    1    4    4    0    0  0.66464624630E+02  0.65061252256E+02 -0.36130442096E+03  0.37308363335E+03  0.00000000000E+00 0.  1.
</event>
<event>
 8    1  0.3654190E-009  0.7925615E+02  0.7561462E-02  0.1331176E+00
         -1   -1    0    0    0  501 -0.00000000000E+00  0.00000000000E+00  0.92605819707E+02  0.92605819707E+02  0.00000000000E+00 0.  1.
          1   -1    0    0  501    0  0.00000000000E+00 -0.00000000000E+00 -0.14888626402E+03  0.14888626402E+03  0.00000000000E+00 0. -1.
         25    2    1    2    0    0 -0.40986353408E+02 -0.22311576251E+02 -0.24927782908E+02  0.13581875049E+03  0.12509057128E+03 0.  0.
         23    2    1    2    0    0  0.40986353408E+02  0.22311576251E+02 -0.31352661402E+02  0.10567333324E+03  0.89477239452E+02 0.  0.
          5    1    3    3  502    0 -0.12655472805E+02  0.25548600086E+02 -0.62327422190E+02  0.68666381258E+02  0.41800000000E+01 0. -1.
         -5    1    3    3    0  502 -0.28330880602E+02 -0.47860176337E+02  0.37399639282E+02  0.67152369229E+02  0.41800000000E+01 0. -1.
        -11    1    4    4    0    0  0.30788562971E+02 -0.15704451307E+02  0.20797143129E+02  0.40337161067E+02  0.00000000000E+00 0.  1.
         11    1    4    4    0    0  0.10197790437E+02  0.38016027558E+02 -0.52149804531E+02  0.65336172169E+02  0.00000000000E+00 0. -1.
</event>
<event>
 8    1  0.3654190E-009  0.1025641E+03  0.7561462E-02  0.1274995E+00
          2   -1    0    0  501    0  0.00000000000E+00  0.00000000000E+00  0.21894555327E+03  0.21894555327E+03  0.00000000000E+00 0. -1.
         -2   -1    0    0    0  501 -0.00000000000E+00 -0.00000000000E+00 -0.79913589428E+02  0.79913589428E+02  0.00000000000E+00 0.  1.
         25    2    1    2    0    0 -0.76919906871E+01  0.34673423998E+02  0.41963132894E+01  0.13010113830E+03  0.12508910459E+03 0.  0.
         23    2    1    2    0    0  0.76919906871E+01 -0.34673423998E+02  0.13483565055E+03  0.16875800440E+03  0.95064180097E+02 0.  0.
          5    1    3    3  502    0 -0.59584110139E+02 -0.10702391385E+02  0.63115835859E+01  0.61009145624E+02  0.41800000000E+01 0.  1.
         -5    1    3    3    0  502  0.51892119452E+02  0.45375815383E+02 -0.21152702966E+01  0.69091992672E+02  0.41800000000E+01 0.  1.
        -11    1    4    4    0    0  0.29423115110E+02 -0.43010190267E+02  0.27489477087E+02  0.58917463626E+02  0.00000000000E+00 0.  1.
         11    1    4    4    0    0 -0.21731124423E+02  0.83367662685E+01  0.10734617347E+03  0.10984054078E+03  0.00000000000E+00 0. -1.
</event>
<event>
 8    1  0.3654190E-009  0.9694582E+02  0.7561462E-02  0.1286853E+00
         -1   -1    0    0    0  501 -0.00000000000E+00  0.00000000000E+00  0.34171802693E+03  0.34171802693E+03  0.00000000000E+00 0.  1.
          1   -1    0    0  501    0  0.00000000000E+00 -0.00000000000E+00 -0.43727683496E+02  0.43727683496E+02  0.00000000000E+00 0. -1.
         25    2    1    2    0    0 -0.54647048043E+02  0.90229943321E+01  0.19275341218E+03  0.23636662107E+03  0.12509031681E+03 0.  0.
         23    2    1    2    0    0  0.54647048043E+02 -0.90229943321E+01  0.10523693125E+03  0.14907908936E+03  0.89900216342E+02 0.  0.
          5    1    3    3  502    0 -0.63094493885E+02 -0.15572697339E+02  0.30360794560E+02  0.71851752291E+02  0.41800000000E+01 0. -1.
         -5    1    3    3    0  502  0.84474458419E+01  0.24595691671E+02  0.16239261762E+03  0.16451486877E+03  0.41800000000E+01 0. -1.
        -11    1    4    4    0    0 -0.14672660846E+02 -0.27077595377E+02  0.49577003670E+02  0.58364050927E+02  0.00000000000E+00 0. -1.
         11    1    4    4    0    0  0.69319708889E+02  0.18054601045E+02  0.55659927580E+02  0.90715038431E+02  0.00000000000E+00 0.  1.
</event>
<event>
 8    1  0.3654190E-009  0.2815658E+03  0.7561462E-02  0.1094837E+00
          2   -1    0    0  501    0  0.00000000000E+00  0.00000000000E+00  0.82527426140E+03  0.82527426140E+03  0.00000000000E+00 0.  1.
         -2   -1    0    0    0  501 -0.00000000000E+00 -0.00000000000E+00 -0.12496726562E+03  0.12496726562E+03  0.00000000000E+00 0. -1.
         25    2    1    2    0    0 -0.20535896110E+03  0.16531676422E+03  0.13882164580E+03  0.32313884165E+03  0.12508127839E+03 0.  0.
         23    2    1    2    0    0  0.20535896110E+03 -0.16531676422E+03  0.56148534998E+03  0.62710268537E+03  0.92141436493E+02 0.  0.
          5    1    3    3  502    0 -0.22119605581E+03  0.14118043061E+03  0.12833264982E+03  0.29214097711E+03  0.41800000000E+01 0.  1.
         -5    1    3    3    0  502  0.15837094717E+02  0.24136333617E+02  0.10488995978E+02  0.30997864542E+02  0.41800000000E+01 0.  1.
        -11    1    4    4    0    0  0.14735095464E+03 -0.78091906443E+02  0.26981648649E+03  0.31719329448E+03  0.00000000000E+00 0.  1.
         11    1    4    4    0    0  0.58008006458E+02 -0.87224857781E+02  0.29166886349E+03  0.30990939089E+03  0.00000000000E+00 0. -1.
</event>
<event>
 8    1  0.3654190E-009  0.2904848E+03  0.7561462E-02  0.1090096E+00
          1   -1    0    0  501    0  0.00000000000E+00  0.00000000000E+00  0.45152713056E+03  0.45152713056E+03  0.00000000000E+00 0. -1.
         -1   -1    0    0    0  501 -0.00000000000E+00 -0.00000000000E+00 -0.21095022995E+03  0.21095022995E+03  0.00000000000E+00 0.  1.
         25    2    1    2    0    0  0.22113997290E+03 -0.17374266388E+03  0.19285929685E+03  0.36322559586E+03  0.12509486098E+03 0.  0.
         23    2    1    2    0    0 -0.22113997290E+03  0.17374266388E+03  0.47717603762E+02  0.29925176464E+03  0.90472360778E+02 0.  0.
          5    1    3    3  502    0  0.13142102278E+03 -0.72030475135E+02  0.16818630711E+03  0.22530863471E+03  0.41800000000E+01 0. -1.
         -5    1    3    3    0  502  0.89718950118E+02 -0.10171218875E+03  0.24672989735E+02  0.13791696115E+03  0.41800000000E+01 0. -1.
        -11    1    4    4    0    0 -0.17629934335E+03  0.84554858045E+02  0.34663049975E+02  0.19857620582E+03  0.00000000000E+00 0.  1.
         11    1    4    4    0    0 -0.44840629542E+02  0.89187805839E+02  0.13054553788E+02  0.10067555882E+03  0.00000000000E+00 0. -1.
</event>
<event>
 8    1  0.3654190E-009  0.9386566E+02  0.7561462E-02  0.1293752E+00
          4   -1    0    0  501    0  0.00000000000E+00  0.00000000000E+00  0.10121218286E+03  0.10121218286E+03  0.00000000000E+00 0. -1.
         -4   -1    0    0    0  501 -0.00000000000E+00 -0.00000000000E+00 -0.15904596682E+03  0.15904596682E+03  0.00000000000E+00 0.  1.
         25    2    1    2    0    0 -0.95721633859E+01  0.38676599676E+02 -0.85060993075E+02  0.15642809262E+03  0.12508744918E+03 0.  0.
         23    2    1    2    0    0  0.95721633859E+01 -0.38676599676E+02  0.27227209120E+02  0.10383005706E+03  0.91933966289E+02 0.  0.
          5    1    3    3  502    0 -0.41651463286E+02 -0.25773376197E+02 -0.61702225709E+01  0.49544478613E+02  0.41800000000E+01 0. -1.
         -5    1    3    3    0  502  0.32079299900E+02  0.64449975873E+02 -0.78890770504E+02  0.10688361401E+03  0.41800000000E+01 0. -1.
        -11    1    4    4    0    0  0.25026649487E+02 -0.43571902822E+02  0.53222073618E+02  0.73194487636E+02  0.00000000000E+00 0. -1.
         11    1    4    4    0    0 -0.15454486101E+02  0.48953031456E+01 -0.25994864498E+02  0.30635569422E+02  0.00000000000E+00 0.  1.
</event>
<event>
 8    1  0.3654190E-009  0.8658479E+02  0.7561462E-02  0.1311339E+00
          3   -1    0    0  501    0  0.00000000000E+00  0.00000000000E+00  0.13774926432E+03  0.13774926432E+03  0.00000000000E+00 0. -1.
         -3   -1    0    0    0  501 -0.00000000000E+00 -0.00000000000E+00 -0.10741978073E+03  0.10741978073E+03  0.00000000000E+00 0.  1.
         25    2    1    2    0    0 -0.11901829852E+02 -0.27919549623E+02  0.64385667291E+02  0.14392456039E+03  0.12509040781E+03 0.  0.
         23    2    1    2    0    0  0.11901829852E+02  0.27919549623E+02 -0.34056183699E+02  0.10124448467E+03  0.90385105091E+02 0.  0.
          5    1    3    3  502    0 -0.26572137067E+02  0.20162834825E+02 -0.24585718182E+02  0.41647908892E+02  0.41800000000E+01 0. -1.
         -5    1    3    3    0  502  0.14670307215E+02 -0.48082384448E+02  0.88971385473E+02  0.10227665149E+03  0.41800000000E+01 0. -1.
        -11    1    4    4    0    0 -0.28642191469E+02 -0.13044712847E+02  0.46547704642E+01  0.31815193752E+02  0.00000000000E+00 0. -1.
         11    1    4    4    0    0  0.40544021321E+02  0.40964262471E+02 -0.38710954163E+02  0.69429290914E+02  0.00000000000E+00 0.  1.
</event>
<event>
 8    1  0.3654190E-009  0.1269840E+03  0.7561462E-02  0.1232001E+00
          1   -1    0    0  501    0  0.00000000000E+00  0.00000000000E+00  0.11164144147E+03  0.11164144147E+03  0.00000000000E+00 0. -1.
         -1   -1    0    0    0  501 -0.00000000000E+00 -0.00000000000E+00 -0.23320186831E+03  0.23320186831E+03  0.00000000000E+00 0.  1.
         25    2    1    2    0    0  0.10449610916E+03 -0.20412408497E+02 -0.12375058049E+03  0.20566424219E+03  0.12508985208E+03 0.  0.
         23    2    1    2    0    0 -0.10449610916E+03  0.20412408497E+02  0.21901536503E+01  0.13917906759E+03  0.89609780900E+02 0.  0.
          5    1    3    3  502    0  0.10684513233E+03 -0.77205886692E+01 -0.14507620936E+03  0.18038866016E+03  0.41800000000E+01 0. -1.
         -5    1    3    3    0  502 -0.23490231716E+01 -0.12691819828E+02  0.21325628867E+02  0.25275582030E+02  0.41800000000E+01 0. -1.
        -11    1    4    4    0    0 -0.55623388833E+02  0.51062202022E+02  0.21221456665E+02  0.78432519299E+02  0.00000000000E+00 0. -1.
         11    1    4    4    0    0 -0.48872720323E+02 -0.30649793525E+02 -0.19031303015E+02  0.60746548291E+02  0.00000000000E+00 0.  1.
</event>
<event>
 8    1  0.3654190E-009  0.1627620E+03  0.7561462E-02  0.1185613E+00
          1   -1    0    0  501    0  0.00000000000E+00  0.00000000000E+00  0.67120538922E+03  0.67120538922E+03  0.00000000000E+00 0. -1.
         -1   -1    0    0    0  501 -0.00000000000E+00 -0.00000000000E+00 -0.51475467428E+02  0.51475467428E+02  0.00000000000E+00 0.  1.
         25    2    1    2    0    0 -0.54932094668E+02  0.13273778429E+03  0.24173244546E+03  0.30776483755E+03  0.12509102941E+03 0.  0.
         23    2    1    2    0    0  0.54932094668E+02 -0.13273778429E+03  0.37799747633E+03  0.41491601910E+03  0.92931998740E+02 0.  0.
          5    1    3    3  502    0 -0.65489101331E+02  0.14227315912E+03  0.15721294447E+03  0.22195462714E+03  0.41800000000E+01 0.  1.
         -5    1    3    3    0  502  0.10557006663E+02 -0.95353748295E+01  0.84519500989E+02  0.85810210408E+02  0.41800000000E+01 0.  1.
        -11    1    4    4    0    0  0.65374808671E+02 -0.98472814477E+02  0.35009716468E+03  0.36951154991E+03  0.00000000000E+00 0. -1.
         11    1    4    4    0    0 -0.10442714003E+02 -0.34264969816E+02  0.27900311650E+02  0.45404469190E+02  0.00000000000E+00 0.  1.
</event>
<event>
 8    1  0.3654190E-009  0.9735607E+02  0.7561462E-02  0.1285956E+00
         -3   -1    0    0    0  501 -0.00000000000E+00  0.00000000000E+00  0.14925514741E+03  0.14925514741E+03  0.00000000000E+00 0.  1.
          3   -1    0    0  501    0  0.00000000000E+00 -0.00000000000E+00 -0.10244906572E+03  0.10244906572E+03  0.00000000000E+00 0. -1.
         25    2    1    2    0    0 -0.26217439314E+02 -0.51602856620E+02  0.42068890433E+02  0.14410999500E+03  0.12509072779E+03 0.  0.
         23    2    1    2    0    0  0.26217439314E+02  0.51602856620E+02  0.47371912551E+01  0.10759421814E+03  0.90575194510E+02 0.  0.
          5    1    3    3  502    0 -0.70301093477E+02 -0.10311997334E+02  0.14306892543E+01  0.71190591407E+02  0.41800000000E+01 0. -1.
         -5    1    3    3    0  502  0.44083654163E+02 -0.41290859286E+02  0.40638201179E+02  0.72919403591E+02  0.41800000000E+01 0. -1.
        -11    1    4    4    0    0  0.72791555737E+01  0.40264701294E+02  0.45528765030E+02  0.61213566481E+02  0.00000000000E+00 0.  1.
         11    1    4    4    0    0  0.18938283740E+02  0.11338155327E+02 -0.40791573775E+02  0.46380651658E+02  0.00000000000E+00 0. -1.
</event>
<event>
 8    1  0.3654190E-009  0.1668760E+03  0.7561462E-02  0.1181145E+00
         -2   -1    0    0    0  501 -0.00000000000E+00  0.00000000000E+00  0.32710989300E+02  0.32710989300E+02  0.00000000000E+00 0. -1.
          2   -1    0    0  501    0  0.00000000000E+00 -0.00000000000E+00 -0.11384040216E+04  0.11384040216E+04  0.00000000000E+00 0.  1.
         25    2    1    2    0    0 -0.15316937726E+03 -0.11710987084E+02 -0.71145058195E+03  0.73851691730E+03  0.12508917312E+03 0.  0.
         23    2    1    2    0    0  0.15316937726E+03  0.11710987084E+02 -0.39424245030E+03  0.43259809355E+03  0.90088820481E+02 0.  0.
          5    1    3    3  502    0 -0.38254321950E+02  0.38538606133E+02 -0.95725782046E+02  0.11013407765E+03  0.41800000000E+01 0.  1.
         -5    1    3    3    0  502 -0.11491505531E+03 -0.50249593217E+02 -0.61572479990E+03  0.62838283965E+03  0.41800000000E+01 0.  1.
        -11    1    4    4    0    0  0.80324335131E+02  0.98957973946E+01 -0.31375940327E+03  0.32402914801E+03  0.00000000000E+00 0.  1.
         11    1    4    4    0    0  0.72845042130E+02  0.18151896893E+01 -0.80483047036E+02  0.10856894555E+03  0.00000000000E+00 0. -1.
</event>
<event>
 8    1  0.3654190E-009  0.1754480E+03  0.7561462E-02  0.1172283E+00
          2   -1    0    0  501    0  0.00000000000E+00  0.00000000000E+00  0.99734765462E+03  0.99734765462E+03  0.00000000000E+00 0. -1.
         -2   -1    0    0    0  501 -0.00000000000E+00 -0.00000000000E+00 -0.35184305214E+02  0.35184305214E+02  0.00000000000E+00 0.  1.
         25    2    1    2    0    0 -0.13318768567E+03 -0.58996375017E+02  0.39688585727E+03  0.44089043903E+03  0.12508582512E+03 0.  0.
         23    2    1    2    0    0  0.13318768567E+03  0.58996375017E+02  0.56527749214E+03  0.59164152080E+03  0.96340615247E+02 0.  0.
          5    1    3    3  502    0 -0.15448270915E+03 -0.49131239561E+02  0.37487120073E+03  0.40844176532E+03  0.41800000000E+01 0. -1.
         -5    1    3    3    0  502  0.21295023478E+02 -0.98651354551E+01  0.22014656545E+02  0.32448673706E+02  0.41800000000E+01 0. -1.
        -11    1    4    4    0    0  0.75531523969E+02 -0.86360234744E+01  0.36019480815E+03  0.36813026476E+03  0.00000000000E+00 0. -1.
         11    1    4    4    0    0  0.57656161701E+02  0.67632398491E+02  0.20508268398E+03  0.22351125604E+03  0.00000000000E+00 0.  1.
</event>
<event>
 8    1  0.3654190E-009  0.1401968E+03  0.7561462E-02  0.1213064E+00
         -1   -1    0    0    0  501 -0.00000000000E+00  0.00000000000E+00  0.78303417952E+03  0.78303417952E+03  0.00000000000E+00 0.  1.
          1   -1    0    0  501    0  0.00000000000E+00 -0.00000000000E+00 -0.35448618243E+02  0.35448618243E+02  0.00000000000E+00 0. -1.
         25    2    1    2    0    0  0.74464747005E+02 -0.90212375248E+02  0.28337608670E+03  0.33110776636E+03  0.12508826978E+03 0.  0.
         23    2    1    2    0    0 -0.74464747005E+02  0.90212375248E+02  0.46420947458E+03  0.48737503140E+03  0.91436938667E+02 0.  0.
          5    1    3    3  502    0  0.77508183868E+02 -0.41363869603E+02  0.26406354402E+03  0.27832627607E+03  0.41800000000E+01 0. -1.
         -5    1    3    3    0  502 -0.30434368626E+01 -0.48848505645E+02  0.19312542679E+02  0.52781490282E+02  0.41800000000E+01 0. -1.
        -11    1    4    4    0    0  0.32426294914E+01  0.59773851601E+02  0.13365818582E+03  0.14645114755E+03  0.00000000000E+00 0. -1.
         11    1    4    4    0    0 -0.77707376496E+02  0.30438523647E+02  0.33055128875E+03  0.34092388385E+03  0.00000000000E+00 0.  1.
</event>
<event>
 8    1  0.3654190E-009  0.4435160E+03  0.7561462E-02  0.1029673E+00
         -1   -1    0    0    0  501 -0.00000000000E+00  0.00000000000E+00  0.89116424773E+03  0.89116424773E+03  0.00000000000E+00 0.  1.
          1   -1    0    0  501    0  0.00000000000E+00 -0.00000000000E+00 -0.22855525600E+03  0.22855525600E+03  0.00000000000E+00 0. -1.
         25    2    1    2    0    0  0.26582847996E+01 -0.43526781283E+03  0.39569557520E+03  0.60140457724E+03  0.12508933581E+03 0.  0.
         23    2    1    2    0    0 -0.26582847996E+01  0.43526781283E+03  0.26691341653E+03  0.51831492648E+03  0.89120456255E+02 0.  0.
          5    1    3    3  502    0 -0.47783290307E+02 -0.20202682526E+03  0.23544649417E+03  0.31392770660E+03  0.41800000000E+01 0. -1.
         -5    1    3    3    0  502  0.50441575107E+02 -0.23324098757E+03  0.16024908103E+03  0.28747687064E+03  0.41800000000E+01 0. -1.
        -11    1    4    4    0    0 -0.33377680569E+02  0.14309408790E+03  0.12071753487E+03  0.19016495676E+03  0.00000000000E+00 0.  1.
         11    1    4    4    0    0  0.30719395770E+02  0.29217372493E+03  0.14619588166E+03  0.32814996972E+03  0.00000000000E+00 0. -1.
</event>
<event>
 8    1  0.3654190E-009  0.1184017E+03  0.7561462E-02  0.1245757E+00
         -4   -1    0    0    0  501 -0.00000000000E+00  0.00000000000E+00  0.12853614302E+03  0.12853614302E+03  0.00000000000E+00 0.  1.
          4   -1    0    0  501    0  0.00000000000E+00 -0.00000000000E+00 -0.18827339241E+03  0.18827339241E+03  0.00000000000E+00 0. -1.
         25    2    1    2    0    0  0.61705724364E+02 -0.83086536870E+02 -0.75418317198E+02  0.17901364728E+03  0.12508794633E+03 0.  0.
         23    2    1    2    0    0 -0.61705724364E+02  0.83086536870E+02  0.15681067802E+02  0.13779588815E+03  0.89614964571E+02 0.  0.
          5    1    3    3  502    0  0.25674130699E+02 -0.25561655796E+02  0.34210948305E+02  0.50004206004E+02  0.41800000000E+01 0. -1.
         -5    1    3    3    0  502  0.36031593665E+02 -0.57524881073E+02 -0.10962926550E+03  0.12900944128E+03  0.41800000000E+01 0. -1.
        -11    1    4    4    0    0 -0.81440522672E+02  0.75898032600E+02  0.26111264542E+02  0.11434539003E+03  0.00000000000E+00 0.  1.
         11    1    4    4    0    0  0.19734798308E+02  0.71885042693E+01 -0.10430196740E+02  0.23450498117E+02  0.00000000000E+00 0. -1.
</event>
<event>
 8    1  0.3654190E-009  0.1213219E+03  0.7561462E-02  0.1240932E+00
          2   -1    0    0  501    0  0.00000000000E+00  0.00000000000E+00  0.93893409031E+03  0.93893409031E+03  0.00000000000E+00 0.  1.
         -2   -1    0    0    0  501 -0.00000000000E+00 -0.00000000000E+00 -0.23978346597E+02  0.23978346597E+02  0.00000000000E+00 0. -1.
         25    2    1    2    0    0  0.75220476966E+02  0.58439180348E+02  0.62745250771E+03  0.64685404822E+03  0.12510096845E+03 0.  0.
         23    2    1    2    0    0 -0.75220476966E+02 -0.58439180348E+02  0.28750323600E+03  0.31605838869E+03  0.90341222011E+02 0.  0.
          5    1    3    3  502    0 -0.19798178468E+02 -0.21441168732E+01  0.18347169900E+02  0.27398104883E+02  0.41800000000E+01 0. -1.
         -5    1    3    3    0  502  0.95018655434E+02  0.60583297221E+02  0.60910533781E+03  0.61945594334E+03  0.41800000000E+01 0. -1.
        -11    1    4    4    0    0 -0.15208774570E+02  0.10232262654E+02  0.47135360347E+01  0.18926791722E+02  0.00000000000E+00 0. -1.
         11    1    4    4    0    0 -0.60011702396E+02 -0.68671443003E+02  0.28278969997E+03  0.29713159697E+03  0.00000000000E+00 0.  1.
</event>
<event>
 8    1  0.3654190E-009  0.2912412E+03  0.7561462E-02  0.1089703E+00
          1   -1    0    0  501    0  0.00000000000E+00  0.00000000000E+00  0.17072568612E+03  0.17072568612E+03  0.00000000000E+00 0. -1.
         -1   -1    0    0    0  501 -0.00000000000E+00 -0.00000000000E+00 -0.55750447103E+03  0.55750447103E+03  0.00000000000E+00 0.  1.
         25    2    1    2    0    0 -0.14086602278E+03 -0.24965020112E+03 -0.15850826746E+03  0.35062899208E+03  0.12508940779E+03 0.  0.
         23    2    1    2    0    0  0.14086602278E+03  0.24965020112E+03 -0.22827051745E+03  0.37760116507E+03  0.91141381569E+02 0.  0.
          5    1    3    3  502    0 -0.24557313899E+01 -0.58638700806E+01  0.17851227707E+02  0.19405007592E+02  0.41800000000E+01 0.  1.
         -5    1    3    3    0  502 -0.13841029139E+03 -0.24378633104E+03 -0.17635949517E+03  0.33122398449E+03  0.41800000000E+01 0.  1.
        -11    1    4    4    0    0  0.78356861032E+02  0.19959420306E+03 -0.12969287143E+03  0.25059506074E+03  0.00000000000E+00 0. -1.
         11    1    4    4    0    0  0.62509161747E+02  0.50055998064E+02 -0.98577646019E+02  0.12700610434E+03  0.00000000000E+00 0.  1.
</event>
<event>
 8    1  0.3654190E-009  0.1265772E+03  0.7561462E-02  0.1232625E+00
         -2   -1    0    0    0  501 -0.00000000000E+00  0.00000000000E+00  0.74519745324E+02  0.74519745324E+02  0.00000000000E+00 0.  1.
          2   -1    0    0  501    0  0.00000000000E+00 -0.00000000000E+00 -0.41053719732E+03  0.41053719732E+03  0.00000000000E+00 0. -1.
         25    2    1    2    0    0 -0.85755434873E+02 -0.91783444385E+02 -0.11752565794E+03  0.21269408072E+03  0.12509315100E+03 0.  0.
         23    2    1    2    0    0  0.85755434873E+02  0.91783444385E+02 -0.21849179406E+03  0.27236286193E+03  0.10326988531E+03 0.  0.
          5    1    3    3  502    0 -0.19709582180E+02 -0.34702014453E+02  0.23708134175E+02  0.46607354172E+02  0.41800000000E+01 0. -1.
         -5    1    3    3    0  502 -0.66045852693E+02 -0.57081429932E+02 -0.14123379211E+03  0.16608672655E+03  0.41800000000E+01 0. -1.
        -11    1    4    4    0    0  0.29774704952E+02  0.33503932564E+02 -0.62483792733E+01  0.45255815049E+02  0.00000000000E+00 0.  1.
         11    1    4    4    0    0  0.55980729922E+02  0.58279511821E+02 -0.21224341479E+03  0.22710704688E+03  0.00000000000E+00 0. -1.
</event>
<event>
 8    1  0.3654190E-009  0.9320496E+02  0.7561462E-02  0.1295271E+00
         -1   -1    0    0    0  501 -0.00000000000E+00  0.00000000000E+00  0.30749274702E+03  0.30749274702E+03  0.00000000000E+00 0.  1.
          1   -1    0    0  501    0  0.00000000000E+00 -0.00000000000E+00 -0.52483494812E+02  0.52483494812E+02  0.00000000000E+00 0. -1.
         25    2    1    2    0    0 -0.55288515988E+02 -0.29426875572E+02  0.16736917092E+03  0.21812898261E+03  0.12508018498E+03 0.  0.
         23    2    1    2    0    0  0.55288515988E+02  0.29426875572E+02  0.87640081287E+02  0.14184725922E+03  0.92288136255E+02 0.  0.
          5    1    3    3  502    0  0.19327454485E+02 -0.23783598166E+02  0.13141374974E+03  0.13500465199E+03  0.41800000000E+01 0.  1.
         -5    1    3    3    0  502 -0.74615970472E+02 -0.56432774056E+01  0.35955421183E+02  0.83124330625E+02  0.41800000000E+01 0.  1.
        -11    1    4    4    0    0  0.45287476007E+02  0.43813564183E+02  0.10152574841E+03  0.11949084266E+03  0.00000000000E+00 0.  1.
         11    1    4    4    0    0  0.10001039980E+02 -0.14386688611E+02 -0.13885667122E+02  0.22356416558E+02  0.00000000000E+00 0. -1.
</event>
<event>
 8    1  0.3654190E-009  0.2022015E+03  0.7561462E-02  0.1147895E+00
          3   -1    0    0  501    0  0.00000000000E+00  0.00000000000E+00  0.42122960161E+03  0.42122960161E+03  0.00000000000E+00 0. -1.
         -3   -1    0    0    0  501 -0.00000000000E+00 -0.00000000000E+00 -0.10297790769E+03  0.10297790769E+03  0.00000000000E+00 0.  1.
         25    2    1    2    0    0 -0.59775581296E+02 -0.16759930745E+03  0.17810414559E+03  0.28112399243E+03  0.12508782701E+03 0.  0.
         23    2    1    2    0    0  0.59775581296E+02  0.16759930745E+03  0.14014754833E+03  0.24308351686E+03  0.88236120102E+02 0.  0.
          5    1    3    3  502    0  0.33823923619E+02 -0.19537318534E+02  0.15983468299E+02  0.42411181112E+02  0.41800000000E+01 0. -1.
         -5    1    3    3    0  502 -0.93599504915E+02 -0.14806198891E+03  0.16212067730E+03  0.23871281132E+03  0.41800000000E+01 0. -1.
        -11    1    4    4    0    0  0.62729973534E+02  0.77279677837E+02  0.10873240503E+03  0.14741076654E+03  0.00000000000E+00 0. -1.
         11    1    4    4    0    0 -0.29543922379E+01  0.90319629612E+02  0.31415143295E+02  0.95672750326E+02  0.00000000000E+00 0.  1.
</event>
<event>
 8    1  0.3654190E-009  0.1254304E+03  0.7561462E-02  0.1234398E+00
         -1   -1    0    0    0  501 -0.00000000000E+00  0.00000000000E+00  0.17221019890E+02  0.17221019890E+02  0.00000000000E+00 0.  1.
          1   -1    0    0  501    0  0.00000000000E+00 -0.00000000000E+00 -0.10897979319E+04  0.10897979319E+04  0.00000000000E+00 0. -1.
         25    2    1    2    0    0 -0.68498789303E+02 -0.24916339094E+02 -0.42654691650E+03  0.45044564608E+03  0.12508437158E+03 0.  0.
         23    2    1    2    0    0  0.68498789303E+02  0.24916339094E+02 -0.64602999550E+03  0.65657330570E+03  0.91765149013E+02 0.  0.
          5    1    3    3  502    0  0.30641138907E+02  0.20824086043E+01 -0.40866669025E+02  0.51291060199E+02  0.41800000000E+01 0. -1.
         -5    1    3    3    0  502 -0.99139928210E+02 -0.26998747698E+02 -0.38568024747E+03  0.39915458588E+03  0.41800000000E+01 0. -1.
        -11    1    4    4    0    0  0.55992647426E+02  0.58629949418E+02 -0.46305547299E+03  0.47009894554E+03  0.00000000000E+00 0.  1.
         11    1    4    4    0    0  0.12506141877E+02 -0.33713610324E+02 -0.18297452252E+03  0.18647436016E+03  0.00000000000E+00 0. -1.
</event>
<event>
 8    1  0.3654190E-009  0.1228382E+03  0.7561462E-02  0.1238487E+00
          3   -1    0    0  501    0  0.00000000000E+00  0.00000000000E+00  0.30251651823E+03  0.30251651823E+03  0.00000000000E+00 0. -1.
         -3   -1    0    0    0  501 -0.00000000000E+00 -0.00000000000E+00 -0.10856897923E+03  0.10856897923E+03  0.00000000000E+00 0.  1.
         25    2    1    2    0    0  0.11765572323E+03 -0.11772910815E+02  0.19718291379E+03  0.26174621711E+03  0.12509400482E+03 0.  0.
         23    2    1    2    0    0 -0.11765572323E+03  0.11772910815E+02 -0.32353748004E+01  0.14933928035E+03  0.91160750145E+02 0.  0.
          5    1    3    3  502    0  0.10548017836E+03 -0.25108462199E+02  0.61342347953E+02  0.12464693720E+03  0.41800000000E+01 0.  1.
         -5    1    3    3    0  502  0.12175544868E+02  0.13335551385E+02  0.13584056584E+03  0.13709927991E+03  0.41800000000E+01 0.  1.
        -11    1    4    4    0    0 -0.41290210470E+02  0.87542000581E+01  0.42807249851E+02  0.60116371640E+02  0.00000000000E+00 0. -1.
         11    1    4    4    0    0 -0.76365512762E+02  0.30187107566E+01 -0.46042624651E+02  0.89222908711E+02  0.00000000000E+00 0.  1.
</event>
<event>
 8    1  0.3654190E-009  0.1128756E+03  0.7561462E-02  0.1255335E+00
          2   -1    0    0  501    0  0.00000000000E+00  0.00000000000E+00  0.33485745459E+02  0.33485745459E+02  0.00000000000E+00 0. -1.
         -2   -1    0    0    0  501 -0.00000000000E+00 -0.00000000000E+00 -0.67855549555E+03  0.67855549555E+03  0.00000000000E+00 0.  1.
         25    2    1    2    0    0  0.67437130951E+02  0.12609818265E+02 -0.16248452374E+03  0.21622638450E+03  0.12508339120E+03 0.  0.
         23    2    1    2    0    0 -0.67437130951E+02 -0.12609818265E+02 -0.48258522635E+03  0.49581485650E+03  0.90758454644E+02 0.  0.
          5    1    3    3  502    0  0.85464716328E+02  0.27644963113E+02 -0.16906502052E+03  0.19149129297E+03  0.41800000000E+01 0. -1.
         -5    1    3    3    0  502 -0.18027585377E+02 -0.15035144848E+02  0.65804967791E+01  0.24735091530E+02  0.41800000000E+01 0. -1.
        -11    1    4    4    0    0 -0.66921652060E+02 -0.44322915195E+02 -0.30308395640E+03  0.31353295354E+03  0.00000000000E+00 0.  1.
         11    1    4    4    0    0 -0.51547889062E+00  0.31713096930E+02 -0.17950126995E+03  0.18228190296E+03  0.00000000000E+00 0. -1.
</event>
<event>
 8    1  0.3654190E-009  0.1045193E+03  0.7561462E-02  0.1271070E+00
         -1   -1    0    0    0  501 -0.00000000000E+00  0.00000000000E+00  0.80111976792E+02  0.80111976792E+02  0.00000000000E+00 0.  1.
          1   -1    0    0  501    0  0.00000000000E+00 -0.00000000000E+00 -0.19827074720E+03  0.19827074720E+03  0.00000000000E+00 0. -1.
         25    2    1    2    0    0  0.30134622178E+02  0.21929395052E+02 -0.10237512223E+02  0.13092842049E+03  0.12509376809E+03 0.  0.
         23    2    1    2    0    0 -0.30134622178E+02 -0.21929395052E+02 -0.10792125818E+03  0.14745430350E+03  0.93310127167E+02 0.  0.
          5    1    3    3  502    0 -0.29273355652E+02 -0.36559867167E+02 -0.22799845030E+01  0.47076787993E+02  0.41800000000E+01 0.  1.
         -5    1    3    3    0  502  0.59407977830E+02  0.58489262220E+02 -0.79575277199E+01  0.83851632496E+02  0.41800000000E+01 0.  1.
        -11    1    4    4    0    0 -0.22279415741E+02 -0.47138976618E+02 -0.10921013483E+03  0.12101780461E+03  0.00000000000E+00 0. -1.
         11    1    4    4    0    0 -0.78552064373E+01  0.25209581566E+02  0.12888766442E+01  0.26436498896E+02  0.00000000000E+00 0.  1.
</event>
<event>
 8    1  0.3654190E-009  0.1837039E+03  0.7561462E-02  0.1164266E+00
         -2   -1    0    0    0  501 -0.00000000000E+00  0.00000000000E+00  0.91803765830E+02  0.91803765830E+02  0.00000000000E+00 0.  1.
          2   -1    0    0  501    0  0.00000000000E+00 -0.00000000000E+00 -0.52597590290E+03  0.52597590290E+03  0.00000000000E+00 0. -1.
         25    2    1    2    0    0  0.15273403034E+03 -0.86793671578E+02 -0.33024795310E+03  0.39442638759E+03  0.12509052422E+03 0.  0.
         23    2    1    2    0    0 -0.15273403034E+03  0.86793671578E+02 -0.10392418397E+03  0.22335328114E+03  0.90695240967E+02 0.  0.
          5    1    3    3  502    0  0.36647619488E+02  0.91078471121E+01 -0.81669719050E+01  0.38860940844E+02  0.41800000000E+01 0.  1.
         -5    1    3    3    0  502  0.11608641085E+03 -0.95901518690E+02 -0.32208098119E+03  0.35556544674E+03  0.41800000000E+01 0.  1.
        -11    1    4    4    0    0 -0.78869726514E+02  0.63728361554E+02 -0.10499416290E+03  0.14596407801E+03  0.00000000000E+00 0.  1.
         11    1    4    4    0    0 -0.73864303822E+02  0.23065310023E+02  0.10699789346E+01  0.77389203126E+02  0.00000000000E+00 0. -1.
</event>
<event>
 8    1  0.3654190E-009  0.8022916E+02  0.7561462E-02  0.1328402E+00
          2   -1    0    0  501    0  0.00000000000E+00  0.00000000000E+00  0.46566736885E+03  0.46566736885E+03  0.00000000000E+00 0.  1.
         -2   -1    0    0    0  501 -0.00000000000E+00 -0.00000000000E+00 -0.31475958839E+02  0.31475958839E+02  0.00000000000E+00 0. -1.
         25    2    1    2    0    0 -0.55803828510E+01 -0.64342260436E+01  0.35331233545E+03  0.37489898721E+03  0.12508838593E+03 0.  0.
         23    2    1    2    0    0  0.55803828510E+01  0.64342260436E+01  0.80879074559E+02  0.12224434048E+03  0.91267267622E+02 0.  0.
          5    1    3    3  502    0 -0.50595989371E+01  0.31040955594E+02  0.16088661939E+02  0.35573275202E+02  0.41800000000E+01 0.  1.
         -5    1    3    3    0  502 -0.52078391396E+00 -0.37475181638E+02  0.33722367351E+03  0.33932571201E+03  0.41800000000E+01 0.  1.
        -11    1    4    4    0    0 -0.42311473163E+02  0.81861001791E+01  0.45546220588E+02  0.62703518300E+02  0.00000000000E+00 0.  1.
         11    1    4    4    0    0  0.47891856014E+02 -0.17518741355E+01  0.35332853972E+02  0.59540822175E+02  0.00000000000E+00 0. -1.
</event>
<event>
 8    1  0.3654190E-009  0.8649390E+02  0.7561462E-02  0.1311571E+00
         -1   -1    0    0    0  501 -0.00000000000E+00  0.00000000000E+00  0.35465794387E+02  0.35465794387E+02  0.00000000000E+00 0.  1.
          1   -1    0    0  501    0  0.00000000000E+00 -0.00000000000E+00 -0.34148000533E+03  0.34148000533E+03  0.00000000000E+00 0. -1.
         25    2    1    2    0    0 -0.19794078725E+02 -0.74940391986E+01 -0.18963613665E+03  0.22815605020E+03  0.12508138448E+03 0.  0.
         23    2    1    2    0    0  0.19794078725E+02  0.74940391986E+01 -0.11637807430E+03  0.14878974952E+03  0.90258335958E+02 0.  0.
          5    1    3    3  502    0  0.24108898337E+01  0.50114113344E+02 -0.34222655097E+02  0.60876097674E+02  0.41800000000E+01 0. -1.
         -5    1    3    3    0  502 -0.22204968559E+02 -0.57608152543E+02 -0.15541348155E+03  0.16727995252E+03  0.41800000000E+01 0. -1.
        -11    1    4    4    0    0 -0.91023203280E+01  0.25253311848E+02 -0.11130351853E+03  0.11449478255E+03  0.00000000000E+00 0. -1.
         11    1    4    4    0    0  0.28896399053E+02 -0.17759272649E+02 -0.50745557673E+01  0.34294966971E+02  0.00000000000E+00 0.  1.
</event>
<event>
 8    1  0.3654190E-009  0.1082662E+03  0.7561462E-02  0.1263815E+00
          1   -1    0    0  501    0  0.00000000000E+00  0.00000000000E+00  0.37775932955E+02  0.37775932955E+02  0.00000000000E+00 0. -1.
         -1   -1    0    0    0  501 -0.00000000000E+00 -0.00000000000E+00 -0.39335668822E+03  0.39335668822E+03  0.00000000000E+00 0.  1.
         25    2    1    2    0    0  0.45803057712E+02 -0.24901714574E+02 -0.23748774338E+03  0.27343384375E+03  0.12509045994E+03 0.  0.
         23    2    1    2    0    0 -0.45803057712E+02  0.24901714574E+02 -0.11809301188E+03  0.15769877742E+03  0.90581065681E+02 0.  0.
          5    1    3    3  502    0 -0.30164779742E+02 -0.35619221575E+02 -0.40307410747E+02  0.61812641454E+02  0.41800000000E+01 0. -1.
         -5    1    3    3    0  502  0.75967837454E+02  0.10717507001E+02 -0.19718033264E+03  0.21162120230E+03  0.41800000000E+01 0. -1.
        -11    1    4    4    0    0 -0.39131600743E+01 -0.26352205351E+02 -0.56735641894E+01  0.27238591726E+02  0.00000000000E+00 0. -1.
         11    1    4    4    0    0 -0.41889897638E+02  0.51253919925E+02 -0.11241944769E+03  0.13046018569E+03  0.00000000000E+00 0.  1.
</event>
<event>
 8    1  0.3654190E-009  0.1297239E+03  0.7561462E-02  0.1227866E+00
          2   -1    0    0  501    0  0.00000000000E+00  0.00000000000E+00  0.91628607200E+03  0.91628607200E+03  0.00000000000E+00 0.  1.
         -2   -1    0    0    0  501 -0.00000000000E+00 -0.00000000000E+00 -0.43428217873E+02  0.43428217873E+02  0.00000000000E+00 0. -1.
         25    2    1    2    0    0 -0.24895948337E+02 -0.97325110606E+02  0.77815624008E+03  0.79452285826E+03  0.12508977949E+03 0.  0.
         23    2    1    2    0    0  0.24895948337E+02  0.97325110606E+02  0.94701614048E+02  0.16519143161E+03  0.90707375530E+02 0.  0.
          5    1    3    3  502    0 -0.73674101077E+02 -0.42571211712E+02  0.47632452318E+03  0.48388294558E+03  0.41800000000E+01 0. -1.
         -5    1    3    3    0  502  0.48778152741E+02 -0.54753898893E+02  0.30183171690E+03  0.31063991269E+03  0.41800000000E+01 0. -1.
        -11    1    4    4    0    0  0.16604924311E+02  0.48030604130E+02 -0.75478582367E+01  0.51377355016E+02  0.00000000000E+00 0. -1.
         11    1    4    4    0    0  0.82910240254E+01  0.49294506476E+02  0.10224947228E+03  0.11381407659E+03  0.00000000000E+00 0.  1.
</event>
<event>
 8    1  0.3654190E-009  0.1112924E+03  0.7561462E-02  0.1258195E+00
          3   -1    0    0  501    0  0.00000000000E+00  0.00000000000E+00  0.14446698146E+03  0.14446698146E+03  0.00000000000E+00 0. -1.
         -3   -1    0    0    0  501 -0.00000000000E+00 -0.00000000000E+00 -0.22582937741E+03  0.22582937741E+03  0.00000000000E+00 0.  1.
         25    2    1    2    0    0 -0.85164747939E+02  0.24451114788E+01 -0.16239045867E+03  0.22198531019E+03  0.12509118279E+03 0.  0.
         23    2    1    2    0    0  0.85164747939E+02 -0.24451114788E+01  0.81028062718E+02  0.14831104867E+03  0.90396943250E+02 0.  0.
          5    1    3    3  502    0 -0.13941719377E+02  0.20703371809E+02  0.15345128547E+02  0.29596393591E+02  0.41800000000E+01 0.  1.
         -5    1    3    3    0  502 -0.71223028562E+02 -0.18258260330E+02 -0.17773558722E+03  0.19238891660E+03  0.41800000000E+01 0.  1.
        -11    1    4    4    0    0  0.36902087677E+01  0.34127151510E+02  0.16207130537E+02  0.37959862897E+02  0.00000000000E+00 0.  1.
         11    1    4    4    0    0  0.81474539172E+02 -0.36572262989E+02  0.64820932180E+02  0.11035118578E+03  0.00000000000E+00 0. -1.
</event>
<event>
 8    1  0.3654190E-009  0.9625628E+02  0.7561462E-02  0.1288371E+00
          1   -1    0    0  501    0  0.00000000000E+00  0.00000000000E+00  0.53006035446E+03  0.53006035446E+03  0.00000000000E+00 0. -1.
         -1   -1    0    0    0  501 -0.00000000000E+00 -0.00000000000E+00 -0.31009415905E+02  0.31009415905E+02  0.00000000000E+00 0.  1.
         25    2    1    2    0    0 -0.12982638175E+02  0.10980345895E+01  0.42362123882E+03  0.44189606832E+03  0.12508967441E+03 0.  0.
         23    2    1    2    0    0  0.12982638175E+02 -0.10980345895E+01  0.75429699738E+02  0.11917370205E+03  0.91339898638E+02 0.  0.
          5    1    3    3  502    0 -0.52634892251E+01 -0.61823031144E+02  0.21569068845E+03  0.22447658448E+03  0.41800000000E+01 0. -1.
         -5    1    3    3    0  502 -0.77191489502E+01  0.62921065734E+02  0.20793055037E+03  0.21741948384E+03  0.41800000000E+01 0. -1.
        -11    1    4    4    0    0  0.21393240406E+02 -0.29913932373E+02 -0.12809453761E+01  0.36798843815E+02  0.00000000000E+00 0.  1.
         11    1    4    4    0    0 -0.84106022305E+01  0.28815897784E+02  0.76710645114E+02  0.82374858232E+02  0.00000000000E+00 0. -1.
</event>
<event>
 8    1  0.3654190E-009  0.1114276E+03  0.7561462E-02  0.1257949E+00
          1   -1    0    0  501    0  0.00000000000E+00  0.00000000000E+00  0.13537976870E+02  0.13537976870E+02  0.00000000000E+00 0. -1.
         -1   -1    0    0    0  501 -0.00000000000E+00 -0.00000000000E+00 -0.13024637123E+04  0.13024637123E+04  0.00000000000E+00 0.  1.
         25    2    1    2    0    0  0.55615570380E+02  0.16530691183E+02 -0.95220827327E+03  0.96214190655E+03  0.12510034862E+03 0.  0.
         23    2    1    2    0    0 -0.55615570380E+02 -0.16530691183E+02 -0.33671746215E+03  0.35385978261E+03  0.92042061123E+02 0.  0.
          5    1    3    3  502    0  0.20240482063E+02  0.59021678967E+02 -0.24832429980E+03  0.25607746088E+03  0.41800000000E+01 0. -1.
         -5    1    3    3    0  502  0.35375088317E+02 -0.42490987784E+02 -0.70388397347E+03  0.70606444566E+03  0.41800000000E+01 0. -1.
        -11    1    4    4    0    0 -0.74371475559E+02 -0.31606542269E+02 -0.29320094443E+03  0.30413300331E+03  0.00000000000E+00 0.  1.
         11    1    4    4    0    0  0.18755905178E+02  0.15075851086E+02 -0.43516517720E+02  0.49726779300E+02  0.00000000000E+00 0. -1.
</event>
<event>
 8    1  0.3654190E-009  0.1011574E+03  0.7561462E-02  0.1277881E+00
          2   -1    0    0  501    0  0.00000000000E+00  0.00000000000E+00  0.36850772025E+03  0.36850772025E+03  0.00000000000E+00 0. -1.
         -2   -1    0    0    0  501 -0.00000000000E+00 -0.00000000000E+00 -0.51951410181E+02  0.51951410181E+02  0.00000000000E+00 0.  1.
         25    2    1    2    0    0  0.13838719934E+02 -0.44607544698E+02  0.27499040544E+03  0.30569252048E+03  0.12508737257E+03 0.  0.
         23    2    1    2    0    0 -0.13838719934E+02  0.44607544698E+02  0.41565904625E+02  0.11476660995E+03  0.96240880707E+02 0.  0.
          5    1    3    3  502    0 -0.54237728374E+02 -0.88122684224E+01  0.13683693339E+03  0.14751679902E+03  0.41800000000E+01 0.  1.
         -5    1    3    3    0  502  0.68076448307E+02 -0.35795276276E+02  0.13815347205E+03  0.15817572145E+03  0.41800000000E+01 0.  1.
        -11    1    4    4    0    0  0.16798934861E+02  0.33706617139E+02 -0.21820271108E+02  0.43525446381E+02  0.00000000000E+00 0.  1.
         11    1    4    4    0    0 -0.30637654794E+02  0.10900927559E+02  0.63386175734E+02  0.71241163572E+02  0.00000000000E+00 0. -1.
</event>
<event>
 8    1  0.3654190E-009  0.2306639E+03  0.7561462E-02  0.1126173E+00
          1   -1    0    0  501    0  0.00000000000E+00  0.00000000000E+00  0.19822381790E+04  0.19822381790E+04  0.00000000000E+00 0. -1.
         -1   -1    0    0    0  501 -0.00000000000E+00 -0.00000000000E+00 -0.37372924535E+02  0.37372924535E+02  0.00000000000E+00 0.  1.
         25    2    1    2    0    0  0.45217610553E+02  0.21825764710E+03  0.14116002660E+04  0.14345535012E+04  0.12508958383E+03 0.  0.
         23    2    1    2    0    0 -0.45217610553E+02 -0.21825764710E+03  0.53326498842E+03  0.58505760230E+03  0.90773439469E+02 0.  0.
          5    1    3    3  502    0  0.67446605340E+02  0.12563400249E+03  0.57044822360E+03  0.58801496185E+03  0.41800000000E+01 0.  1.
         -5    1    3    3    0  502 -0.22228994787E+02  0.92623644615E+02  0.84115204244E+03  0.84653853938E+03  0.41800000000E+01 0.  1.
        -11    1    4    4    0    0 -0.34100722791E+02 -0.13104272550E+03  0.20856859759E+03  0.24866828327E+03  0.00000000000E+00 0.  1.
         11    1    4    4    0    0 -0.11116887762E+02 -0.87214921601E+02  0.32469639083E+03  0.33638931903E+03  0.00000000000E+00 0. -1.
</event>
<event>
 8    1  0.3654190E-009  0.1030613E+03  0.7561462E-02  0.1273987E+00
          2   -1    0    0  501    0  0.00000000000E+00  0.00000000000E+00  0.24822505481E+03  0.24822505481E+03  0.00000000000E+00 0. -1.
         -2   -1    0    0    0  501 -0.00000000000E+00 -0.00000000000E+00 -0.10393761895E+03  0.10393761895E+03  0.00000000000E+00 0.  1.
         25    2    1    2    0    0  0.90023600769E+02  0.33561944743E+02  0.17853912199E+01  0.15774777039E+03  0.12510203280E+03 0.  0.
         23    2    1    2    0    0 -0.90023600769E+02 -0.33561944743E+02  0.14250204464E+03  0.19441490337E+03  0.90882721655E+02 0.  0.
          5    1    3    3  502    0  0.18843469396E+02  0.12290132218E+02 -0.57965511396E+02  0.62318509291E+02  0.41800000000E+01 0. -1.
         -5    1    3    3    0  502  0.71180131373E+02  0.21271812525E+02  0.59750902616E+02  0.95429261099E+02  0.41800000000E+01 0. -1.
        -11    1    4    4    0    0 -0.58449322766E+02  0.53821574730E+01  0.13015962614E+03  0.14278241918E+03  0.00000000000E+00 0. -1.
         11    1    4    4    0    0 -0.31574278004E+02 -0.38944102216E+02  0.12342418499E+02  0.51632484187E+02  0.00000000000E+00 0.  1.
</event>
<event>
 8    1  0.3654190E-009  0.3745801E+03  0.7561462E-02  0.1052955E+00
          1   -1    0    0  501    0  0.00000000000E+00  0.00000000000E+00  0.17079635045E+04  0.17079635045E+04  0.00000000000E+00 0. -1.
         -1   -1    0    0    0  501 -0.00000000000E+00 -0.00000000000E+00 -0.14233578413E+03  0.14233578413E+03  0.00000000000E+00 0.  1.
         25    2    1    2    0    0 -0.17085946725E+03 -0.32645356183E+03  0.13676109156E+04  0.14218904556E+04  0.12509182878E+03 0.  0.
         23    2    1    2    0    0  0.17085946725E+03  0.32645356183E+03  0.19801680481E+03  0.42840883308E+03  0.92512635302E+02 0.  0.
          5    1    3    3  502    0 -0.94427376161E+02 -0.20511781785E+03  0.10400697423E+04  0.10643084091E+04  0.41800000000E+01 0.  1.
         -5    1    3    3    0  502 -0.76432091093E+02 -0.12133574398E+03  0.32754117331E+03  0.35758204642E+03  0.41800000000E+01 0.  1.
        -11    1    4    4    0    0  0.17859464768E+03  0.27557971316E+03  0.17356045346E+03  0.37143432460E+03  0.00000000000E+00 0.  1.
         11    1    4    4    0    0 -0.77351804300E+01  0.50873848673E+02  0.24456351348E+02  0.56974508479E+02  0.00000000000E+00 0. -1.
</event>
<event>
 8    1  0.3654190E-009  0.1426647E+03  0.7561462E-02  0.1209788E+00
          1   -1    0    0  501    0  0.00000000000E+00  0.00000000000E+00  0.13284609119E+03  0.13284609119E+03  0.00000000000E+00 0. -1.
         -1   -1    0    0    0  501 -0.00000000000E+00 -0.00000000000E+00 -0.21637987355E+03  0.21637987355E+03  0.00000000000E+00 0.  1.
         25    2    1    2    0    0  0.47140812526E+01  0.11297374890E+03 -0.11050386293E+03  0.20160195321E+03  0.12508778244E+03 0.  0.
         23    2    1    2    0    0 -0.47140812526E+01 -0.11297374890E+03  0.26970080574E+02  0.14762401153E+03  0.90995456106E+02 0.  0.
          5    1    3    3  502    0  0.44694963670E+02 -0.32591429519E+01 -0.37467281804E+02  0.58562201086E+02  0.41800000000E+01 0. -1.
         -5    1    3    3    0  502 -0.39980882417E+02  0.11623289185E+03 -0.73036581128E+02  0.14303975213E+03  0.41800000000E+01 0. -1.
        -11    1    4    4    0    0 -0.17977326890E+02 -0.74474399947E+02  0.58277876647E+02  0.96259708269E+02  0.00000000000E+00 0. -1.
         11    1    4    4    0    0  0.13263245637E+02 -0.38499348949E+02 -0.31307796074E+02  0.51364303259E+02  0.00000000000E+00 0.  1.
</event>
<event>
 8    1  0.3654190E-009  0.3255603E+03  0.7561462E-02  0.1073118E+00
         -1   -1    0    0    0  501 -0.00000000000E+00  0.00000000000E+00  0.20735203035E+03  0.20735203035E+03  0.00000000000E+00 0.  1.
          1   -1    0    0  501    0  0.00000000000E+00 -0.00000000000E+00 -0.51427689915E+03  0.51427689915E+03  0.00000000000E+00 0. -1.
         25    2    1    2    0    0 -0.34131968803E+02  0.30469300241E+03 -0.17733135499E+03  0.37562729534E+03  0.12508652419E+03 0.  0.
         23    2    1    2    0    0  0.34131968803E+02 -0.30469300241E+03 -0.12959351381E+03  0.34600163416E+03  0.94444878140E+02 0.  0.
          5    1    3    3  502    0  0.43603338251E+02  0.62116364601E+02 -0.33444230041E+02  0.83040247958E+02  0.41800000000E+01 0. -1.
         -5    1    3    3    0  502 -0.77735307054E+02  0.24257663781E+03 -0.14388712495E+03  0.29258704739E+03  0.41800000000E+01 0. -1.
        -11    1    4    4    0    0 -0.11194534461E+02 -0.24570368836E+03 -0.91534038886E+02  0.26243875543E+03  0.00000000000E+00 0.  1.
         11    1    4    4    0    0  0.45326503265E+02 -0.58989314047E+02 -0.38059474925E+02  0.83562878729E+02  0.00000000000E+00 0. -1.
</event>
<event>
 8    1  0.3654190E-009  0.1296758E+03  0.7561462E-02  0.1227938E+00
          1   -1    0    0  501    0  0.00000000000E+00  0.00000000000E+00  0.79193054569E+03  0.79193054569E+03  0.00000000000E+00 0. -1.
         -1   -1    0    0    0  501 -0.00000000000E+00 -0.00000000000E+00 -0.35736048081E+02  0.35736048081E+02  0.00000000000E+00 0.  1.
         25    2    1    2    0    0 -0.35241842468E+02 -0.99517977999E+02  0.22290327947E+03  0.27654833179E+03  0.12508913786E+03 0.  0.
         23    2    1    2    0    0  0.35241842468E+02  0.99517977999E+02  0.53329121814E+03  0.55111826198E+03  0.90476515969E+02 0.  0.
          5    1    3    3  502    0 -0.54353271974E+02 -0.47929780970E+02  0.34758805705E+02  0.80480985656E+02  0.41800000000E+01 0.  1.
         -5    1    3    3    0  502  0.19111429505E+02 -0.51588197029E+02  0.18814447376E+03  0.19606734613E+03  0.41800000000E+01 0.  1.
        -11    1    4    4    0    0 -0.16130443127E+02  0.71049425851E+02  0.20376144373E+03  0.21639532818E+03  0.00000000000E+00 0. -1.
         11    1    4    4    0    0  0.51372285596E+02  0.28468552148E+02  0.32952977441E+03  0.33472293380E+03  0.00000000000E+00 0.  1.
</event>
<event>
 8    1  0.3654190E-009  0.1005982E+03  0.7561462E-02  0.1279043E+00
         -2   -1    0    0    0  501 -0.00000000000E+00  0.00000000000E+00  0.55441024552E+02  0.55441024552E+02  0.00000000000E+00 0.  1.
          2   -1    0    0  501    0  0.00000000000E+00 -0.00000000000E+00 -0.25045837014E+03  0.25045837014E+03  0.00000000000E+00 0. -1.
         25    2    1    2    0    0  0.87272296363E+01 -0.30549835551E+02 -0.15359525518E+03  0.20062066864E+03  0.12509074020E+03 0.  0.
         23    2    1    2    0    0 -0.87272296363E+01  0.30549835551E+02 -0.41422090407E+02  0.10527872605E+03  0.91424086518E+02 0.  0.
          5    1    3    3  502    0 -0.78305037695E+01  0.36710877558E+02 -0.69749532498E+01  0.38407391127E+02  0.41800000000E+01 0.  1.
         -5    1    3    3    0  502  0.16557733406E+02 -0.67260713109E+02 -0.14662030193E+03  0.16221327752E+03  0.41800000000E+01 0.  1.
        -11    1    4    4    0    0  0.39903668429E+02  0.93639192385E+01 -0.58325408394E+01  0.41400534661E+02  0.00000000000E+00 0. -1.
         11    1    4    4    0    0 -0.48630898065E+02  0.21185916313E+02 -0.35589549568E+02  0.63878191389E+02  0.00000000000E+00 0.  1.
</event>
<event>
 8    1  0.3654190E-009  0.1672370E+03  0.7561462E-02  0.1180760E+00
         -2   -1    0    0    0  501 -0.00000000000E+00  0.00000000000E+00  0.73741060118E+02  0.73741060118E+02  0.00000000000E+00 0.  1.
          2   -1    0    0  501    0  0.00000000000E+00 -0.00000000000E+00 -0.57349808870E+03  0.57349808870E+03  0.00000000000E+00 0. -1.
         25    2    1    2    0    0 -0.12584081451E+03 -0.60370521377E+02 -0.42608367312E+03  0.46548512471E+03  0.12509434189E+03 0.  0.
         23    2    1    2    0    0  0.12584081451E+03  0.60370521377E+02 -0.73673355464E+02  0.18175402411E+03  0.90145723845E+02 0.  0.
          5    1    3    3  502    0 -0.49469383212E+02 -0.91772932513E+02 -0.22240344685E+03  0.24566289217E+03  0.41800000000E+01 0. -1.
         -5    1    3    3    0  502 -0.76371431302E+02  0.31402411136E+02 -0.20368022627E+03  0.21982223254E+03  0.41800000000E+01 0. -1.
        -11    1    4    4    0    0  0.94835783844E+02  0.20640700225E+02 -0.58167622860E+01  0.97230134868E+02  0.00000000000E+00 0.  1.
         11    1    4    4    0    0  0.31005030671E+02  0.39729821152E+02 -0.67856593178E+02  0.84523889247E+02  0.00000000000E+00 0. -1.
</event>
<event>
 8    1  0.3654190E-009  0.2650313E+03  0.7561462E-02  0.1104157E+00
         -2   -1    0    0    0  501 -0.00000000000E+00  0.00000000000E+00  0.31957339394E+03  0.31957339394E+03  0.00000000000E+00 0.  1.
          2   -1    0    0  501    0  0.00000000000E+00 -0.00000000000E+00 -0.26260536956E+03  0.26260536956E+03  0.00000000000E+00 0. -1.
         25    2    1    2    0    0 -0.17754542463E+03  0.17740353821E+03 -0.66448501810E+02  0.28819562703E+03  0.12508766073E+03 0.  0.
         23    2    1    2    0    0  0.17754542463E+03 -0.17740353821E+03  0.12341652619E+03  0.29398313648E+03  0.90554140832E+02 0.  0.
          5    1    3    3  502    0 -0.44237996266E+02 -0.74317417490E+01  0.12875873621E+02  0.46856073465E+02  0.41800000000E+01 0. -1.
         -5    1    3    3    0  502 -0.13330742836E+03  0.18483527996E+03 -0.79324375431E+02  0.24133955356E+03  0.41800000000E+01 0. -1.
        -11    1    4    4    0    0  0.15763053694E+02  0.15478595563E+01  0.32545615351E+02  0.36195121350E+02  0.00000000000E+00 0.  1.
         11    1    4    4    0    0  0.16178237093E+03 -0.17895139777E+03  0.90870910839E+02  0.25778801513E+03  0.00000000000E+00 0. -1.
</event>
<event>
 8    1  0.3654190E-009  0.9148708E+02  0.7561462E-02  0.1299290E+00
         -1   -1    0    0    0  501 -0.00000000000E+00  0.00000000000E+00  0.55811665248E+02  0.55811665248E+02  0.00000000000E+00 0.  1.
          1   -1    0    0  501    0  0.00000000000E+00 -0.00000000000E+00 -0.25381466595E+03  0.25381466595E+03  0.00000000000E+00 0. -1.
         25    2    1    2    0    0 -0.16902111251E+02  0.16102518929E+02 -0.53586413014E+02  0.13807769499E+03  0.12509585809E+03 0.  0.
         23    2    1    2    0    0  0.16902111251E+02 -0.16102518929E+02 -0.14441658769E+03  0.17154863621E+03  0.89598054141E+02 0.  0.
          5    1    3    3  502    0  0.32338361547E+01  0.67293083463E+02 -0.11011626028E+02  0.68392580635E+02  0.41800000000E+01 0. -1.
         -5    1    3    3    0  502 -0.20135947406E+02 -0.51190564533E+02 -0.42574786987E+02  0.69685114351E+02  0.41800000000E+01 0. -1.
        -11    1    4    4    0    0  0.12121975312E+01  0.20472582182E+02  0.12467057066E+01  0.20546296970E+02  0.00000000000E+00 0.  1.
         11    1    4    4    0    0  0.15689913720E+02 -0.36575101111E+02 -0.14566329339E+03  0.15100233924E+03  0.00000000000E+00 0. -1.
</event>
<event>
 8    1  0.3654190E-009  0.1217370E+03  0.7561462E-02  0.1240259E+00
          1   -1    0    0  501    0  0.00000000000E+00  0.00000000000E+00  0.20304109296E+03  0.20304109296E+03  0.00000000000E+00 0. -1.
         -1   -1    0    0    0  501 -0.00000000000E+00 -0.00000000000E+00 -0.83466800057E+02  0.83466800057E+02  0.00000000000E+00 0.  1.
         25    2    1    2    0    0 -0.14705047332E+02 -0.69202112132E+02  0.44341797604E+02  0.15039722917E+03  0.12509180943E+03 0.  0.
         23    2    1    2    0    0  0.14705047332E+02  0.69202112132E+02  0.75232495296E+02  0.13611066385E+03  0.88662357987E+02 0.  0.
          5    1    3    3  502    0 -0.91052146282E+01 -0.10404013957E+03  0.17753016261E+02  0.10601838313E+03  0.41800000000E+01 0.  1.
         -5    1    3    3    0  502 -0.55998327040E+01  0.34838027439E+02  0.26588781343E+02  0.44378846035E+02  0.41800000000E+01 0.  1.
        -11    1    4    4    0    0  0.80436334724E+01  0.85466922621E+02  0.35936382573E+02  0.93062981331E+02  0.00000000000E+00 0.  1.
         11    1    4    4    0    0  0.66614138598E+01 -0.16264810489E+02  0.39296112723E+02  0.43047682516E+02  0.00000000000E+00 0. -1.
</event>
<event>
 8    1  0.3654190E-009  0.3913734E+03  0.7561462E-02  0.1046808E+00
          1   -1    0    0  501    0  0.00000000000E+00  0.00000000000E+00  0.30977316410E+03  0.30977316410E+03  0.00000000000E+00 0. -1.
         -1   -1    0    0    0  501 -0.00000000000E+00 -0.00000000000E+00 -0.72238215280E+03  0.72238215280E+03  0.00000000000E+00 0.  1.
         25    2    1    2    0    0  0.19766893158E+02  0.37700744700E+03  0.79281304288E+02  0.40553391088E+03  0.12508749939E+03 0.  0.
         23    2    1    2    0    0 -0.19766893158E+02 -0.37700744700E+03 -0.49189029299E+03  0.62662140602E+03  0.90404540731E+02 0.  0.
          5    1    3    3  502    0  0.56481436102E+02  0.84853500092E+02  0.34340212768E+02  0.10764288976E+03  0.41800000000E+01 0. -1.
         -5    1    3    3    0  502 -0.36714542944E+02  0.29215394691E+03  0.44941091520E+02  0.29789102112E+03  0.41800000000E+01 0. -1.
        -11    1    4    4    0    0 -0.17948775755E+02 -0.12824840913E+02 -0.45105969051E+02  0.50211388545E+02  0.00000000000E+00 0.  1.
         11    1    4    4    0    0 -0.18181174028E+01 -0.36418260609E+03 -0.44678432394E+03  0.57641001747E+03  0.00000000000E+00 0. -1.
</event>
<event>
 8    1  0.3654190E-009  0.1035778E+03  0.7561462E-02  0.1272947E+00
          2   -1    0    0  501    0  0.00000000000E+00  0.00000000000E+00  0.78355789406E+02  0.78355789406E+02  0.00000000000E+00 0. -1.
         -2   -1    0    0    0  501 -0.00000000000E+00 -0.00000000000E+00 -0.17931916617E+03  0.17931916617E+03  0.00000000000E+00 0.  1.
         25    2    1    2    0    0  0.50915264515E+02  0.69720119502E+01 -0.46982823632E+02  0.14316386234E+03  0.12509009814E+03 0.  0.
         23    2    1    2    0    0 -0.50915264515E+02 -0.69720119502E+01 -0.53980553129E+02  0.11451109323E+03  0.86936282679E+02 0.  0.
          5    1    3    3  502    0  0.84389980407E+02 -0.21702732886E+02 -0.46566980143E+02  0.98886973093E+02  0.41800000000E+01 0. -1.
         -5    1    3    3    0  502 -0.33474715892E+02  0.28674744836E+02 -0.41584348864E+00  0.44276889246E+02  0.41800000000E+01 0. -1.
        -11    1    4    4    0    0 -0.28818136590E+02 -0.31457637666E+02  0.88309442550E+01  0.43566656292E+02  0.00000000000E+00 0. -1.
         11    1    4    4    0    0 -0.22097127925E+02  0.24485625716E+02 -0.62811497384E+02  0.70944436941E+02  0.00000000000E+00 0.  1.
</event>
<event>
 8    1  0.3654190E-009  0.1153424E+03  0.7561462E-02  0.1250985E+00
          2   -1    0    0  501    0  0.00000000000E+00  0.00000000000E+00  0.20144600706E+04  0.20144600706E+04  0.00000000000E+00 0.  1.
         -2   -1    0    0    0  501 -0.00000000000E+00 -0.00000000000E+00 -0.78504185164E+01  0.78504185164E+01  0.00000000000E+00 0. -1.
         25    2    1    2    0    0  0.28101894695E+02 -0.31152941343E+02  0.15064320716E+04  0.15121984697E+04  0.12508558301E+03 0.  0.
         23    2    1    2    0    0 -0.28101894695E+02  0.31152941343E+02  0.50017758048E+03  0.51011201944E+03  0.90974931319E+02 0.  0.
          5    1    3    3  502    0 -0.41535569760E+02 -0.44368133671E+02  0.70540486111E+03  0.70803052570E+03  0.41800000000E+01 0.  1.
         -5    1    3    3    0  502  0.69637464455E+02  0.13215192327E+02  0.80102721051E+03  0.80416794399E+03  0.41800000000E+01 0.  1.
        -11    1    4    4    0    0  0.32808628116E+02  0.11056213339E+02  0.13653430443E+03  0.14085546570E+03  0.00000000000E+00 0.  1.
         11    1    4    4    0    0 -0.60910522811E+02  0.20096728005E+02  0.36364327605E+03  0.36925655374E+03  0.00000000000E+00 0. -1.
</event>
<event>
 8    1  0.3654190E-009  0.1061938E+03  0.7561462E-02  0.1267785E+00
         -1   -1    0    0    0  501 -0.00000000000E+00  0.00000000000E+00  0.53361664990E+02  0.53361664990E+02  0.00000000000E+00 0.  1.
          1   -1    0    0  501    0  0.00000000000E+00 -0.00000000000E+00 -0.31379221981E+03  0.31379221981E+03  0.00000000000E+00 0. -1.
         25    2    1    2    0    0  0.53129710202E+02  0.19368651831E+02 -0.21071925429E+03  0.25149297615E+03  0.12509277415E+03 0.  0.
         23    2    1    2    0    0 -0.53129710202E+02 -0.19368651831E+02 -0.49711300535E+02  0.11566090865E+03  0.87797047841E+02 0.  0.
          5    1    3    3  502    0  0.60715066184E+02 -0.42630909819E+02 -0.10506395494E+03  0.12868419002E+03  0.41800000000E+01 0.  1.
         -5    1    3    3    0  502 -0.75853559815E+01  0.61999561651E+02 -0.10565529935E+03  0.12280878613E+03  0.41800000000E+01 0.  1.
        -11    1    4    4    0    0 -0.24169428384E+02  0.16586583877E+02  0.17485571437E+02  0.34132407498E+02  0.00000000000E+00 0.  1.
         11    1    4    4    0    0 -0.28960281819E+02 -0.35955235709E+02 -0.67196871971E+02  0.81528501155E+02  0.00000000000E+00 0. -1.
</event>
<event>
 8    1  0.3654190E-009  0.1845807E+03  0.7561462E-02  0.1163442E+00
          1   -1    0    0  501    0  0.00000000000E+00  0.00000000000E+00  0.21869487322E+04  0.21869487322E+04  0.00000000000E+00 0. -1.
         -1   -1    0    0    0  501 -0.00000000000E+00 -0.00000000000E+00 -0.17047761699E+02  0.17047761699E+02  0.00000000000E+00 0.  1.
         25    2    1    2    0    0  0.15325034161E+03 -0.12115744264E+02  0.13745751112E+04  0.13887896489E+04  0.12508994338E+03 0.  0.
         23    2    1    2    0    0 -0.15325034161E+03  0.12115744264E+02  0.79532585929E+03  0.81520684505E+03  0.91577941080E+02 0.  0.
          5    1    3    3  502    0  0.16227858650E+02 -0.47294731703E+02  0.22448611516E+03  0.23002526675E+03  0.41800000000E+01 0.  1.
         -5    1    3    3    0  502  0.13702248296E+03  0.35178987438E+02  0.11500889961E+04  0.11587643821E+04  0.41800000000E+01 0.  1.
        -11    1    4    4    0    0 -0.30370562994E+02  0.41198617051E+02  0.27966672742E+03  0.28431175770E+03  0.00000000000E+00 0.  1.
         11    1    4    4    0    0 -0.12287977862E+03 -0.29082872786E+02  0.51565913188E+03  0.53089508735E+03  0.00000000000E+00 0. -1.
</event>
<event>
 8    1  0.3654190E-009  0.5731215E+02  0.7561462E-02  0.1409471E+00
         -2   -1    0    0    0  501 -0.00000000000E+00  0.00000000000E+00  0.30302832970E+02  0.30302832970E+02  0.00000000000E+00 0.  1.
          2   -1    0    0  501    0  0.00000000000E+00 -0.00000000000E+00 -0.48968788401E+03  0.48968788401E+03  0.00000000000E+00 0. -1.
         25    2    1    2    0    0 -0.20073327942E+02  0.30491337094E+02 -0.34970101794E+03  0.37319169878E+03  0.12509429227E+03 0.  0.
         23    2    1    2    0    0  0.20073327942E+02 -0.30491337094E+02 -0.10968403310E+03  0.14679901820E+03  0.90480409452E+02 0.  0.
          5    1    3    3  502    0  0.32687256931E+01 -0.81580649685E+01 -0.31732785583E+03  0.31747705284E+03  0.41800000000E+01 0. -1.
         -5    1    3    3    0  502 -0.23342053635E+02  0.38649402063E+02 -0.32373162110E+02  0.55714645945E+02  0.41800000000E+01 0. -1.
        -11    1    4    4    0    0 -0.47003842173E+01  0.10583665734E+02  0.11589511343E+02  0.16383661536E+02  0.00000000000E+00 0.  1.
         11    1    4    4    0    0  0.24773712160E+02 -0.41075002829E+02 -0.12127354445E+03  0.13041535666E+03  0.00000000000E+00 0. -1.
</event>
<event>
 8    1  0.3654190E-009  0.1122254E+03  0.7561462E-02  0.1256503E+00
         -1   -1    0    0    0  501 -0.00000000000E+00  0.00000000000E+00  0.33246417725E+02  0.33246417725E+02  0.00000000000E+00 0.  1.
          1   -1    0    0  501    0  0.00000000000E+00 -0.00000000000E+00 -0.47362082092E+03  0.47362082092E+03  0.00000000000E+00 0. -1.
         25    2    1    2    0    0 -0.53100933795E+02 -0.26721770619E+02 -0.28141353970E+03  0.31364677435E+03  0.12508779533E+03 0.  0.
         23    2    1    2    0    0  0.53100933795E+02  0.26721770619E+02 -0.15896086350E+03  0.19322046429E+03  0.92367902990E+02 0.  0.
          5    1    3    3  502    0 -0.31241550506E+02 -0.69724522093E+02 -0.23271903332E+03  0.24497584438E+03  0.41800000000E+01 0.  1.
         -5    1    3    3    0  502 -0.21859383289E+02  0.43002751474E+02 -0.48694506377E+02  0.68670929973E+02  0.41800000000E+01 0.  1.
        -11    1    4    4    0    0 -0.21122470755E+02  0.10272450780E+02 -0.91193131929E+01  0.25196108606E+02  0.00000000000E+00 0. -1.
         11    1    4    4    0    0  0.74223404550E+02  0.16449319840E+02 -0.14984155030E+03  0.16802435569E+03  0.00000000000E+00 0.  1.
</event>
<event>
 8    1  0.3654190E-009  0.9792465E+02  0.7561462E-02  0.1284722E+00
          2   -1    0    0  501    0  0.00000000000E+00  0.00000000000E+00  0.29359604400E+03  0.29359604400E+03  0.00000000000E+00 0. -1.
         -2   -1    0    0    0  501 -0.00000000000E+00 -0.00000000000E+00 -0.42224200672E+02  0.42224200672E+02  0.00000000000E+00 0.  1.
         25    2    1    2    0    0  0.70673239144E+01  0.19612781925E+02  0.16993862751E+03  0.21203977854E+03  0.12508845783E+03 0.  0.
         23    2    1    2    0    0 -0.70673239144E+01 -0.19612781925E+02  0.81433215816E+02  0.12378046613E+03  0.90860480266E+02 0.  0.
          5    1    3    3  502    0  0.57777037352E+02  0.18674613417E+02  0.40902345469E+02  0.73330767734E+02  0.41800000000E+01 0. -1.
         -5    1    3    3    0  502 -0.50709713438E+02  0.93816850811E+00  0.12903628204E+03  0.13870901081E+03  0.41800000000E+01 0. -1.
        -11    1    4    4    0    0  0.31668984893E+02 -0.30385771382E+02  0.15481171770E+02  0.46539084499E+02  0.00000000000E+00 0.  1.
         11    1    4    4    0    0 -0.38736308808E+02  0.10772989457E+02  0.65952044046E+02  0.77241381627E+02  0.00000000000E+00 0. -1.
</event>
<event>
 8    1  0.3654190E-009  0.1338071E+03  0.7561462E-02  0.1221914E+00
         -2   -1    0    0    0  501 -0.00000000000E+00  0.00000000000E+00  0.33091959879E+03  0.33091959879E+03  0.00000000000E+00 0.  1.
          2   -1    0    0  501    0  0.00000000000E+00 -0.00000000000E+00 -0.63900048642E+02  0.63900048642E+02  0.00000000000E+00 0. -1.
         25    2    1    2    0    0  0.82800242290E+02  0.14480291768E+02  0.18693354129E+03  0.24011560333E+03  0.12508315287E+03 0.  0.
         23    2    1    2    0    0 -0.82800242290E+02 -0.14480291768E+02  0.80086008854E+02  0.15470404410E+03  0.10224487015E+03 0.  0.
          5    1    3    3  502    0  0.10858023211E+03  0.12419915159E+02  0.18360043869E+03  0.21370660866E+03  0.41800000000E+01 0. -1.
         -5    1    3    3    0  502 -0.25779989817E+02  0.20603766091E+01  0.33331026009E+01  0.26408994674E+02  0.41800000000E+01 0. -1.
        -11    1    4    4    0    0 -0.59920444950E+02 -0.57675306729E+02  0.45254721771E+02  0.94683106053E+02  0.00000000000E+00 0.  1.
         11    1    4    4    0    0 -0.22879797341E+02  0.43195014960E+02  0.34831287083E+02  0.60020938043E+02  0.00000000000E+00 0. -1.
</event>
<event>
 8    1  0.3654190E-009  0.1832623E+03  0.7561462E-02  0.1164683E+00
         -2   -1    0    0    0  501 -0.00000000000E+00  0.00000000000E+00  0.38196511534E+02  0.38196511534E+02  0.00000000000E+00 0.  1.
          2   -1    0    0  501    0  0.00000000000E+00 -0.00000000000E+00 -0.12730470504E+04  0.12730470504E+04  0.00000000000E+00 0. -1.
         25    2    1    2    0    0 -0.15566687183E+03 -0.19091789424E+01 -0.97096927857E+03  0.99129425540E+03  0.12508853225E+03 0.  0.
         23    2    1    2    0    0  0.15566687183E+03  0.19091789424E+01 -0.26388126032E+03  0.31994930656E+03  0.92186871471E+02 0.  0.
          5    1    3    3  502    0 -0.16717249818E+03  0.23663352037E+02 -0.76775887950E+03  0.78611561988E+03  0.41800000000E+01 0.  1.
         -5    1    3    3    0  502  0.11505626353E+02 -0.25572530979E+02 -0.20321039908E+03  0.20517863551E+03  0.41800000000E+01 0.  1.
        -11    1    4    4    0    0  0.10558387125E+03 -0.30165977125E+02 -0.11205190658E+03  0.15688712443E+03  0.00000000000E+00 0.  1.
         11    1    4    4    0    0  0.50083000579E+02  0.32075156067E+02 -0.15182935374E+03  0.16306218213E+03  0.00000000000E+00 0. -1.
</event>
<event>
 8    1  0.3654190E-009  0.9617505E+02  0.7561462E-02  0.1288551E+00
         -3   -1    0    0    0  501 -0.00000000000E+00  0.00000000000E+00  0.84791138489E+02  0.84791138489E+02  0.00000000000E+00 0.  1.
          3   -1    0    0  501    0  0.00000000000E+00 -0.00000000000E+00 -0.14597235313E+03  0.14597235313E+03  0.00000000000E+00 0. -1.
         25    2    1    2    0    0  0.83415261391E+01 -0.31923644888E+02 -0.59740193998E+02  0.14249608240E+03  0.12509013774E+03 0.  0.
         23    2    1    2    0    0 -0.83415261391E+01  0.31923644888E+02 -0.14410206426E+01  0.88267409218E+02  0.81855719582E+02 0.  0.
          5    1    3    3  502    0 -0.54807027057E+02  0.38914839126E+01 -0.14969781574E+02  0.57100968662E+02  0.41800000000E+01 0. -1.
         -5    1    3    3    0  502  0.63148553196E+02 -0.35815128801E+02 -0.44770412424E+02  0.85395113738E+02  0.41800000000E+01 0. -1.
        -11    1    4    4    0    0  0.68104041996E+01 -0.14324565571E+02 -0.28476060917E+02  0.32595411173E+02  0.00000000000E+00 0. -1.
         11    1    4    4    0    0 -0.15151930339E+02  0.46248210459E+02  0.27035040275E+02  0.55671998045E+02  0.00000000000E+00 0.  1.
</event>
<event>
 8    1  0.3654190E-009  0.1054644E+03  0.7561462E-02  0.1269207E+00
          1   -1    0    0  501    0  0.00000000000E+00  0.00000000000E+00  0.12742265949E+03  0.12742265949E+03  0.00000000000E+00 0. -1.
         -1   -1    0    0    0  501 -0.00000000000E+00 -0.00000000000E+00 -0.14372864937E+03  0.14372864937E+03  0.00000000000E+00 0.  1.
         25    2    1    2    0    0  0.50265932159E+02  0.22021626878E+01 -0.70885256619E+02  0.15232616019E+03  0.12508807303E+03 0.  0.
         23    2    1    2    0    0 -0.50265932159E+02 -0.22021626878E+01  0.54579266738E+02  0.11882514867E+03  0.92784730119E+02 0.  0.
          5    1    3    3  502    0 -0.20678734570E+02  0.30366704553E+02 -0.66090342097E+02  0.75730789824E+02  0.41800000000E+01 0. -1.
         -5    1    3    3    0  502  0.70944666729E+02 -0.28164541865E+02 -0.47949145218E+01  0.76595370363E+02  0.41800000000E+01 0. -1.
        -11    1    4    4    0    0 -0.27412049120E+02 -0.42854529690E+02  0.51028136701E+02  0.72054159402E+02  0.00000000000E+00 0.  1.
         11    1    4    4    0    0 -0.22853883039E+02  0.40652367003E+02  0.35511300373E+01  0.46770989271E+02  0.00000000000E+00 0. -1.
</event>
<event>
 8    1  0.3654190E-009  0.1665091E+03  0.7561462E-02  0.1181538E+00
         -2   -1    0    0    0  501 -0.00000000000E+00  0.00000000000E+00  0.10909288116E+03  0.10909288116E+03  0.00000000000E+00 0.  1.
          2   -1    0    0  501    0  0.00000000000E+00 -0.00000000000E+00 -0.35551495976E+03  0.35551495976E+03  0.00000000000E+00 0. -1.
         25    2    1    2    0    0 -0.14145871512E+03 -0.83163656940E+02 -0.11955736419E+03  0.23847081764E+03  0.12509038978E+03 0.  0.
         23    2    1    2    0    0  0.14145871512E+03  0.83163656940E+02 -0.12686471441E+03  0.22613702327E+03  0.90091817681E+02 0.  0.
          5    1    3    3  502    0 -0.12761082099E+03 -0.61839332576E+02 -0.29634072180E+02  0.14492851797E+03  0.41800000000E+01 0.  1.
         -5    1    3    3    0  502 -0.13847894129E+02 -0.21324324365E+02 -0.89923292014E+02  0.93542299672E+02  0.41800000000E+01 0.  1.
        -11    1    4    4    0    0  0.69586970860E+02  0.52850656799E+02 -0.13335351787E+02  0.88393269228E+02  0.00000000000E+00 0.  1.
         11    1    4    4    0    0  0.71871744259E+02  0.30313000142E+02 -0.11352936262E+03  0.13774375404E+03  0.00000000000E+00 0. -1.
</event>
<event>
 8    1  0.3654190E-009  0.1072704E+03  0.7561462E-02  0.1265710E+00
          2   -1    0    0  501    0  0.00000000000E+00  0.00000000000E+00  0.42925083447E+03  0.42925083447E+03  0.00000000000E+00 0. -1.
         -2   -1    0    0    0  501 -0.00000000000E+00 -0.00000000000E+00 -0.40196375127E+02  0.40196375127E+02  0.00000000000E+00 0.  1.
         25    2    1    2    0    0  0.60859282010E+02 -0.15752302646E+02  0.14478689579E+03  0.20140294258E+03  0.12509161778E+03 0.  0.
         23    2    1    2    0    0 -0.60859282010E+02  0.15752302646E+02  0.24426756355E+03  0.26804426702E+03  0.90714382731E+02 0.  0.
          5    1    3    3  502    0 -0.27007519856E+02  0.29835888723E+02  0.49603399429E+02  0.64012155249E+02  0.41800000000E+01 0.  1.
         -5    1    3    3    0  502  0.87866801866E+02 -0.45588191369E+02  0.95183496364E+02  0.13739078733E+03  0.41800000000E+01 0.  1.
        -11    1    4    4    0    0 -0.26663433553E+02 -0.13605030488E+02  0.13360789726E+02  0.32780272201E+02  0.00000000000E+00 0.  1.
         11    1    4    4    0    0 -0.34195848457E+02  0.29357333134E+02  0.23090677383E+03  0.23526399482E+03  0.00000000000E+00 0. -1.
</event>
<event>
 8    1  0.3654190E-009  0.1546279E+03  0.7561462E-02  0.1194899E+00
         -1   -1    0    0    0  501 -0.00000000000E+00  0.00000000000E+00  0.18597110172E+03  0.18597110172E+03  0.00000000000E+00 0.  1.
          1   -1    0    0  501    0  0.00000000000E+00 -0.00000000000E+00 -0.15956493879E+03  0.15956493879E+03  0.00000000000E+00 0. -1.
         25    2    1    2    0    0  0.12182649979E+03  0.11307429706E+02  0.71707552336E+02  0.18910474229E+03  0.12509626883E+03 0.  0.
         23    2    1    2    0    0 -0.12182649979E+03 -0.11307429706E+02 -0.45301389401E+02  0.15643129822E+03  0.86307480342E+02 0.  0.
          5    1    3    3  502    0  0.11825719642E+03 -0.30699486950E+02  0.79779490712E+02  0.14597760973E+03  0.41800000000E+01 0. -1.
         -5    1    3    3    0  502  0.35693033699E+01  0.42006916656E+02 -0.80719383757E+01  0.43127132558E+02  0.41800000000E+01 0. -1.
        -11    1    4    4    0    0 -0.31538251749E+02  0.31627925670E+02 -0.33350168253E+02  0.55742449965E+02  0.00000000000E+00 0. -1.
         11    1    4    4    0    0 -0.90288248042E+02 -0.42935355376E+02 -0.11951221147E+02  0.10068884825E+03  0.00000000000E+00 0.  1.
</event>
<event>
 8    1  0.3654190E-009  0.1312661E+03  0.7561462E-02  0.1225589E+00
          2   -1    0    0  501    0  0.00000000000E+00  0.00000000000E+00  0.30745588306E+02  0.30745588306E+02  0.00000000000E+00 0. -1.
         -2   -1    0    0    0  501 -0.00000000000E+00 -0.00000000000E+00 -0.61868118078E+03  0.61868118078E+03  0.00000000000E+00 0.  1.
         25    2    1    2    0    0  0.18729943041E+02  0.80415156291E+02 -0.30393080556E+03  0.33887662750E+03  0.12508407562E+03 0.  0.
         23    2    1    2    0    0 -0.18729943041E+02 -0.80415156291E+02 -0.28400478692E+03  0.31055014158E+03  0.94685074413E+02 0.  0.
          5    1    3    3  502    0 -0.43781180343E+01  0.10579176639E+03 -0.27160530871E+03  0.29154413366E+03  0.41800000000E+01 0. -1.
         -5    1    3    3    0  502  0.23108061075E+02 -0.25376610101E+02 -0.32325496849E+02  0.47332493843E+02  0.41800000000E+01 0. -1.
        -11    1    4    4    0    0  0.16680079198E+01 -0.96191210712E+02 -0.25001015720E+03  0.26788170891E+03  0.00000000000E+00 0.  1.
         11    1    4    4    0    0 -0.20397950961E+02  0.15776054422E+02 -0.33994629723E+02  0.42668432670E+02  0.00000000000E+00 0. -1.
</event>
<event>
 8    1  0.3654190E-009  0.9511166E+02  0.7561462E-02  0.1290925E+00
         -1   -1    0    0    0  501 -0.00000000000E+00  0.00000000000E+00  0.28779052647E+02  0.28779052647E+02  0.00000000000E+00 0.  1.
          1   -1    0    0  501    0  0.00000000000E+00 -0.00000000000E+00 -0.43434230820E+03  0.43434230820E+03  0.00000000000E+00 0. -1.
         25    2    1    2    0    0  0.22474243770E+02  0.10946604574E+02 -0.20124104777E+03  0.23826568471E+03  0.12509059684E+03 0.  0.
         23    2    1    2    0    0 -0.22474243770E+02 -0.10946604574E+02 -0.20432220779E+03  0.22485567614E+03  0.90485306609E+02 0.  0.
          5    1    3    3  502    0 -0.26555872301E+02 -0.33225074952E+02 -0.14592261591E+03  0.15205262968E+03  0.41800000000E+01 0. -1.
         -5    1    3    3    0  502  0.49030116071E+02  0.44171679526E+02 -0.55318431860E+02  0.86213055030E+02  0.41800000000E+01 0. -1.
        -11    1    4    4    0    0  0.16646948678E+02 -0.32629809562E+02 -0.15040146619E+03  0.15479801809E+03  0.00000000000E+00 0. -1.
         11    1    4    4    0    0 -0.39121192448E+02  0.21683204988E+02 -0.53920741601E+02  0.70057658053E+02  0.00000000000E+00 0.  1.
</event>
<event>
 8    1  0.3654190E-009  0.1119414E+03  0.7561462E-02  0.1257016E+00
         -1   -1    0    0    0  501 -0.00000000000E+00  0.00000000000E+00  0.51929352729E+02  0.51929352729E+02  0.00000000000E+00 0.  1.
          1   -1    0    0  501    0  0.00000000000E+00 -0.00000000000E+00 -0.35405246303E+03  0.35405246303E+03  0.00000000000E+00 0. -1.
         25    2    1    2    0    0  0.41206418853E+02 -0.58079990927E+02 -0.22317131903E+03  0.26556146856E+03  0.12508477784E+03 0.  0.
         23    2    1    2    0    0 -0.41206418853E+02  0.58079990927E+02 -0.78951791280E+02  0.14042034720E+03  0.91723684302E+02 0.  0.
          5    1    3    3  502    0  0.20440338048E+02  0.37134375725E+02 -0.42099956271E+02  0.59888629957E+02  0.41800000000E+01 0. -1.
         -5    1    3    3    0  502  0.20766080805E+02 -0.95214366652E+02 -0.18107136275E+03  0.20567283860E+03  0.41800000000E+01 0. -1.
        -11    1    4    4    0    0 -0.48401931282E+02  0.35436294666E+02 -0.94567379843E+02  0.11198869256E+03  0.00000000000E+00 0. -1.
         11    1    4    4    0    0  0.71955124285E+01  0.22643696261E+02  0.15615588563E+02  0.28431654642E+02  0.00000000000E+00 0.  1.
</event>
<event>
 8    1  0.3654190E-009  0.1481266E+03  0.7561462E-02  0.1202794E+00
          2   -1    0    0  501    0  0.00000000000E+00  0.00000000000E+00  0.53629078109E+02  0.53629078109E+02  0.00000000000E+00 0. -1.
         -2   -1    0    0    0  501 -0.00000000000E+00 -0.00000000000E+00 -0.64793614289E+03  0.64793614289E+03  0.00000000000E+00 0.  1.
         25    2    1    2    0    0  0.13798456504E+03 -0.20843261151E+02 -0.41921557835E+03  0.45920158773E+03  0.12510082062E+03 0.  0.
         23    2    1    2    0    0 -0.13798456504E+03  0.20843261151E+02 -0.17509148644E+03  0.24236363327E+03  0.92784267982E+02 0.  0.
          5    1    3    3  502    0  0.53153307116E+02 -0.40415718714E+02 -0.61012057828E+02  0.90546385775E+02  0.41800000000E+01 0. -1.
         -5    1    3    3    0  502  0.84831257926E+02  0.19572457562E+02 -0.35820352052E+03  0.36865520196E+03  0.41800000000E+01 0. -1.
        -11    1    4    4    0    0 -0.43395179298E+02  0.19537244225E+02 -0.51517003612E+01  0.47868418763E+02  0.00000000000E+00 0. -1.
         11    1    4    4    0    0 -0.94589385743E+02  0.13060169261E+01 -0.16993978608E+03  0.19449521451E+03  0.00000000000E+00 0.  1.
</event>
<event>
 8    1  0.3654190E-009  0.1000911E+03  0.7561462E-02  0.1280105E+00
          2   -1    0    0  501    0  0.00000000000E+00  0.00000000000E+00  0.61926549014E+03  0.61926549014E+03  0.00000000000E+00 0. -1.
         -2   -1    0    0    0  501 -0.00000000000E+00 -0.00000000000E+00 -0.24188803273E+02  0.24188803273E+02  0.00000000000E+00 0.  1.
         25    2    1    2    0    0 -0.38837806484E+02  0.35467562822E+02  0.39402776960E+03  0.41673883122E+03  0.12508815694E+03 0.  0.
         23    2    1    2    0    0  0.38837806484E+02 -0.35467562822E+02  0.20104891727E+03  0.22671546219E+03  0.90625109311E+02 0.  0.
          5    1    3    3  502    0 -0.59639597175E+02  0.42246273082E+02  0.38628007147E+03  0.39315568819E+03  0.41800000000E+01 0. -1.
         -5    1    3    3    0  502  0.20801790691E+02 -0.67787102594E+01  0.77476981212E+01  0.23583143024E+02  0.41800000000E+01 0. -1.
        -11    1    4    4    0    0  0.63648828252E+02 -0.45184168891E+02  0.14595548806E+03  0.16551672710E+03  0.00000000000E+00 0. -1.
         11    1    4    4    0    0 -0.24811021767E+02  0.97166060685E+01  0.55093429214E+02  0.61198735095E+02  0.00000000000E+00 0.  1.
</event>
<event>
 8    1  0.3654190E-009  0.2385369E+03  0.7561462E-02  0.1120771E+00
         -2   -1    0    0    0  501 -0.00000000000E+00  0.00000000000E+00  0.10650339650E+03  0.10650339650E+03  0.00000000000E+00 0. -1.
          2   -1    0    0  501    0  0.00000000000E+00 -0.00000000000E+00 -0.57079628055E+03  0.57079628055E+03  0.00000000000E+00 0.  1.
         25    2    1    2    0    0  0.21367427448E+03  0.53817668586E+02 -0.21469951383E+03  0.33210843177E+03  0.12508833753E+03 0.  0.
         23    2    1    2    0    0 -0.21367427448E+03 -0.53817668586E+02 -0.24959337022E+03  0.34519124528E+03  0.91143339511E+02 0.  0.
          5    1    3    3  502    0  0.87679174638E+01  0.46798626266E+02 -0.32577063598E+02  0.57842244681E+02  0.41800000000E+01 0. -1.
         -5    1    3    3    0  502  0.20490635701E+03  0.70190423197E+01 -0.18212245023E+03  0.27426618709E+03  0.41800000000E+01 0. -1.
        -11    1    4    4    0    0 -0.25180560187E+02  0.70190936606E+01 -0.80909089078E+02  0.85027107339E+02  0.00000000000E+00 0.  1.
         11    1    4    4    0    0 -0.18849371429E+03 -0.60836762246E+02 -0.16868428114E+03  0.26016413794E+03  0.00000000000E+00 0. -1.
</event>
<event>
 8    1  0.3654190E-009  0.1083044E+03  0.7561462E-02  0.1263742E+00
         -3   -1    0    0    0  501 -0.00000000000E+00  0.00000000000E+00  0.16404141734E+03  0.16404141734E+03  0.00000000000E+00 0.  1.
          3   -1    0    0  501    0  0.00000000000E+00 -0.00000000000E+00 -0.11961000305E+03  0.11961000305E+03  0.00000000000E+00 0. -1.
         25    2    1    2    0    0  0.28629392015E+02  0.82178902077E+02  0.25160259145E+02  0.15444495558E+03  0.12508873503E+03 0.  0.
         23    2    1    2    0    0 -0.28629392015E+02 -0.82178902077E+02  0.19271155138E+02  0.12920646481E+03  0.93541002206E+02 0.  0.
          5    1    3    3  502    0  0.33088521049E+02  0.93260767362E+02  0.61077688024E+02  0.11636312701E+03  0.41800000000E+01 0.  1.
         -5    1    3    3    0  502 -0.44591290340E+01 -0.11081865284E+02 -0.35917428879E+02  0.38081828569E+02  0.41800000000E+01 0.  1.
        -11    1    4    4    0    0 -0.43175990322E+02 -0.35130572008E+02 -0.26792377833E+02  0.61775033305E+02  0.00000000000E+00 0. -1.
         11    1    4    4    0    0  0.14546598307E+02 -0.47048330069E+02  0.46063532971E+02  0.67431431502E+02  0.00000000000E+00 0.  1.
</event>
<event>
 8    1  0.3654190E-009  0.1138119E+03  0.7561462E-02  0.1253669E+00
          1   -1    0    0  501    0  0.00000000000E+00  0.00000000000E+00  0.60755649052E+02  0.60755649052E+02  0.00000000000E+00 0. -1.
         -1   -1    0    0    0  501 -0.00000000000E+00 -0.00000000000E+00 -0.33779444212E+03  0.33779444212E+03  0.00000000000E+00 0.  1.
         25    2    1    2    0    0 -0.70979073255E+02 -0.12738179835E+01 -0.23317589609E+03  0.27396834797E+03  0.12509198903E+03 0.  0.
         23    2    1    2    0    0  0.70979073255E+02  0.12738179835E+01 -0.43862896980E+02  0.12458174320E+03  0.92504083996E+02 0.  0.
          5    1    3    3  502    0  0.55142577042E+01  0.50446632169E+02 -0.93766493226E+02  0.10670003462E+03  0.41800000000E+01 0. -1.
         -5    1    3    3    0  502 -0.76493330959E+02 -0.51720450152E+02 -0.13940940286E+03  0.16726831335E+03  0.41800000000E+01 0. -1.
        -11    1    4    4    0    0  0.49475094664E+02  0.22235772758E+02 -0.67336060803E+02  0.86465945126E+02  0.00000000000E+00 0.  1.
         11    1    4    4    0    0  0.21503978591E+02 -0.20961954774E+02  0.23473163823E+02  0.38115798078E+02  0.00000000000E+00 0. -1.
</event>
<event>
 8    1  0.3654190E-009  0.2521506E+03  0.7561462E-02  0.1111953E+00
         -2   -1    0    0    0  501 -0.00000000000E+00  0.00000000000E+00  0.54264716288E+02  0.54264716288E+02  0.00000000000E+00 0. -1.
          2   -1    0    0  501    0  0.00000000000E+00 -0.00000000000E+00 -0.12560859385E+04  0.12560859385E+04  0.00000000000E+00 0.  1.
         25    2    1    2    0    0 -0.77908089904E+02 -0.22194639709E+03 -0.69834700205E+03  0.74744009527E+03  0.12509311370E+03 0.  0.
         23    2    1    2    0    0  0.77908089904E+02  0.22194639709E+03 -0.50347422018E+03  0.56291055953E+03  0.89733683739E+02 0.  0.
          5    1    3    3  502    0 -0.21569235910E+02 -0.20253905802E+03 -0.58250845560E+03  0.61710685883E+03  0.41800000000E+01 0.  1.
         -5    1    3    3    0  502 -0.56338853994E+02 -0.19407339062E+02 -0.11583854645E+03  0.13033323645E+03  0.41800000000E+01 0.  1.
        -11    1    4    4    0    0  0.37399133724E+02  0.17445361671E+03 -0.28992583592E+03  0.34042583616E+03  0.00000000000E+00 0.  1.
         11    1    4    4    0    0  0.40508956180E+02  0.47492780378E+02 -0.21354838425E+03  0.22248472338E+03  0.00000000000E+00 0. -1.
</event>
<event>
 8    1  0.3654190E-009  0.2476592E+03  0.7561462E-02  0.1114793E+00
          2   -1    0    0  501    0  0.00000000000E+00  0.00000000000E+00  0.61721835101E+03  0.61721835101E+03  0.00000000000E+00 0. -1.
         -2   -1    0    0    0  501 -0.00000000000E+00 -0.00000000000E+00 -0.12988751466E+03  0.12988751466E+03  0.00000000000E+00 0.  1.
         25    2    1    2    0    0 -0.22554266749E+03 -0.42527830835E+02  0.84489949214E+02  0.27470790245E+03  0.12509104244E+03 0.  0.
         23    2    1    2    0    0  0.22554266749E+03  0.42527830835E+02  0.40284088714E+03  0.47239796321E+03  0.90559063827E+02 0.  0.
          5    1    3    3  502    0 -0.16811225426E+03  0.15953454159E+02  0.19540911879E+02  0.17004576552E+03  0.41800000000E+01 0.  1.
         -5    1    3    3    0  502 -0.57430413227E+02 -0.58481284993E+02  0.64949037335E+02  0.10466213694E+03  0.41800000000E+01 0.  1.
        -11    1    4    4    0    0  0.33598430145E+02  0.40169867435E+02  0.11573295660E+03  0.12702987838E+03  0.00000000000E+00 0.  1.
         11    1    4    4    0    0  0.19194423734E+03  0.23579633993E+01  0.28710793054E+03  0.34536808483E+03  0.00000000000E+00 0. -1.
</event>
<event>
 8    1  0.3654190E-009  0.1577477E+03  0.7561462E-02  0.1191263E+00
         -2   -1    0    0    0  501 -0.00000000000E+00  0.00000000000E+00  0.11770020441E+03  0.11770020441E+03  0.00000000000E+00 0.  1.
          2   -1    0    0  501    0  0.00000000000E+00 -0.00000000000E+00 -0.32013765635E+03  0.32013765635E+03  0.00000000000E+00 0. -1.
         25    2    1    2    0    0  0.44399653327E+01 -0.14901370348E+03 -0.38838802204E+02  0.19844486206E+03  0.12508842313E+03 0.  0.
         23    2    1    2    0    0 -0.44399653327E+01  0.14901370348E+03 -0.16359864974E+03  0.23939299870E+03  0.91212348455E+02 0.  0.
          5    1    3    3  502    0  0.12636200164E+02 -0.11442052020E+00 -0.47186921585E+02  0.49028202244E+02  0.41800000000E+01 0.  1.
         -5    1    3    3    0  502 -0.81962348309E+01 -0.14889928296E+03  0.83481193809E+01  0.14941665981E+03  0.41800000000E+01 0.  1.
        -11    1    4    4    0    0  0.99598198824E+01  0.13773393306E+02 -0.75402955261E+02  0.77294954799E+02  0.00000000000E+00 0. -1.
         11    1    4    4    0    0 -0.14399785215E+02  0.13524031018E+03 -0.88195694479E+02  0.16209804390E+03  0.00000000000E+00 0.  1.
</event>
<event>
 8    1  0.3654190E-009  0.1058252E+03  0.7561462E-02  0.1268502E+00
          2   -1    0    0  501    0  0.00000000000E+00  0.00000000000E+00  0.10000672086E+04  0.10000672086E+04  0.00000000000E+00 0. -1.
         -2   -1    0    0    0  501 -0.00000000000E+00 -0.00000000000E+00 -0.19059389641E+02  0.19059389641E+02  0.00000000000E+00 0.  1.
         25    2    1    2    0    0 -0.63369934147E+02  0.44307465616E+02  0.64387457921E+03  0.66045558011E+03  0.12509276354E+03 0.  0.
         23    2    1    2    0    0  0.63369934147E+02 -0.44307465616E+02  0.33713323976E+03  0.35867101814E+03  0.94906152787E+02 0.  0.
          5    1    3    3  502    0 -0.40009318017E+01 -0.18900400677E+02  0.13051827760E+02  0.23686603997E+02  0.41800000000E+01 0.  1.
         -5    1    3    3    0  502 -0.59369002345E+02  0.63207866293E+02  0.63082275145E+03  0.63676897612E+03  0.41800000000E+01 0.  1.
        -11    1    4    4    0    0  0.79070562165E+02 -0.40808584390E+02  0.32865583005E+03  0.34048810403E+03  0.00000000000E+00 0. -1.
         11    1    4    4    0    0 -0.15700628017E+02 -0.34988812260E+01  0.84774097106E+01  0.18182914106E+02  0.00000000000E+00 0.  1.
</event>
<event>
 8    1  0.3654190E-009  0.8738732E+02  0.7561462E-02  0.1309305E+00
          1   -1    0    0  501    0  0.00000000000E+00  0.00000000000E+00  0.19430841880E+03  0.19430841880E+03  0.00000000000E+00 0. -1.
         -1   -1    0    0    0  501 -0.00000000000E+00 -0.00000000000E+00 -0.11621465332E+03  0.11621465332E+03  0.00000000000E+00 0.  1.
         25    2    1    2    0    0 -0.24138534337E+02 -0.52089790285E+02 -0.46351090319E+02  0.14522986015E+03  0.12508906273E+03 0.  0.
         23    2    1    2    0    0  0.24138534337E+02  0.52089790285E+02  0.12444485580E+03  0.16529321197E+03  0.92408380021E+02 0.  0.
          5    1    3    3  502    0 -0.21198967833E+02 -0.10358546453E+02 -0.84883284863E+02  0.88200567860E+02  0.41800000000E+01 0. -1.
         -5    1    3    3    0  502 -0.29395665044E+01 -0.41731243832E+02  0.38532194543E+02  0.57029292292E+02  0.41800000000E+01 0. -1.
        -11    1    4    4    0    0  0.27185554918E+01 -0.26844033214E+02  0.32264026848E+02  0.42059007258E+02  0.00000000000E+00 0.  1.
         11    1    4    4    0    0  0.21419978846E+02  0.78933823499E+02  0.92180828951E+02  0.12323420472E+03  0.00000000000E+00 0. -1.
</event>
<event>
 8    1  0.3654190E-009  0.1054208E+03  0.7561462E-02  0.1269293E+00
          1   -1    0    0  501    0  0.00000000000E+00  0.00000000000E+00  0.16287524390E+03  0.16287524390E+03  0.00000000000E+00 0. -1.
         -1   -1    0    0    0  501 -0.00000000000E+00 -0.00000000000E+00 -0.10914666454E+03  0.10914666454E+03  0.00000000000E+00 0.  1.
         25    2    1    2    0    0  0.77691180956E+02  0.57505650647E+01  0.34031489514E+02  0.15124293243E+03  0.12508914316E+03 0.  0.
         23    2    1    2    0    0 -0.77691180956E+02 -0.57505650647E+01  0.19697089851E+02  0.12077897600E+03  0.90169823658E+02 0.  0.
          5    1    3    3  502    0  0.31016700969E+02  0.50380353774E+02 -0.24324013630E+02  0.64104179462E+02  0.41800000000E+01 0.  1.
         -5    1    3    3    0  502  0.46674479987E+02 -0.44629788709E+02  0.58355503144E+02  0.87138752972E+02  0.41800000000E+01 0.  1.
        -11    1    4    4    0    0 -0.51552797324E+02  0.14725384843E+02  0.51831144215E+02  0.74572081782E+02  0.00000000000E+00 0. -1.
         11    1    4    4    0    0 -0.26138383632E+02 -0.20475949907E+02 -0.32134054365E+02  0.46206894219E+02  0.00000000000E+00 0.  1.
</event>
<event>
 8    1  0.3654190E-009  0.1392436E+03  0.7561462E-02  0.1214350E+00
         -2   -1    0    0    0  501 -0.00000000000E+00  0.00000000000E+00  0.98622945544E+02  0.98622945544E+02  0.00000000000E+00 0.  1.
          2   -1    0    0  501    0  0.00000000000E+00 -0.00000000000E+00 -0.29086425968E+03  0.29086425968E+03  0.00000000000E+00 0. -1.
         25    2    1    2    0    0  0.62501216355E+02 -0.86398457562E+02 -0.16730457136E+02  0.16521582031E+03  0.12508102802E+03 0.  0.
         23    2    1    2    0    0 -0.62501216355E+02  0.86398457562E+02 -0.17551085700E+03  0.22427138492E+03  0.90124900288E+02 0.  0.
          5    1    3    3  502    0  0.32873102283E+02 -0.11019391599E+03 -0.38356386781E+02  0.12129313576E+03  0.41800000000E+01 0.  1.
         -5    1    3    3    0  502  0.29628114072E+02  0.23795458428E+02  0.21625929645E+02  0.43922684553E+02  0.41800000000E+01 0.  1.
        -11    1    4    4    0    0 -0.22643425277E+02  0.82023382062E+02 -0.16011283022E+03  0.18131927177E+03  0.00000000000E+00 0. -1.
         11    1    4    4    0    0 -0.39857791078E+02  0.43750754993E+01 -0.15398026783E+02  0.42952113150E+02  0.00000000000E+00 0.  1.
</event>
<event>
 8    1  0.3654190E-009  0.1072041E+03  0.7561462E-02  0.1265837E+00
         -1   -1    0    0    0  501 -0.00000000000E+00  0.00000000000E+00  0.29088212812E+02  0.29088212812E+02  0.00000000000E+00 0.  1.
          1   -1    0    0  501    0  0.00000000000E+00 -0.00000000000E+00 -0.44491292773E+03  0.44491292773E+03  0.00000000000E+00 0. -1.
         25    2    1    2    0    0 -0.34827210820E+01  0.15630604654E+02 -0.17223130252E+03  0.21346529647E+03  0.12508943234E+03 0.  0.
         23    2    1    2    0    0  0.34827210820E+01 -0.15630604654E+02 -0.24359341240E+03  0.26053584407E+03  0.91020494029E+02 0.  0.
          5    1    3    3  502    0 -0.54819738116E+02 -0.24259928973E+02 -0.95188016359E+02  0.11256988362E+03  0.41800000000E+01 0. -1.
         -5    1    3    3    0  502  0.51337017034E+02  0.39890533628E+02 -0.77043286159E+02  0.10089541285E+03  0.41800000000E+01 0. -1.
        -11    1    4    4    0    0  0.41797879509E+02  0.10116641174E+02 -0.83552781018E+02  0.93970614428E+02  0.00000000000E+00 0.  1.
         11    1    4    4    0    0 -0.38315158427E+02 -0.25747245828E+02 -0.16004063138E+03  0.16656522964E+03  0.00000000000E+00 0. -1.
</event>
<event>
 8    1  0.3654190E-009  0.1535546E+03  0.7561462E-02  0.1196172E+00
         -2   -1    0    0    0  501 -0.00000000000E+00  0.00000000000E+00  0.95291072153E+02  0.95291072153E+02  0.00000000000E+00 0.  1.
          2   -1    0    0  501    0  0.00000000000E+00 -0.00000000000E+00 -0.33205205491E+03  0.33205205491E+03  0.00000000000E+00 0. -1.
         25    2    1    2    0    0 -0.11872758609E+01  0.12473873032E+03 -0.20953266475E+03  0.27406727099E+03  0.12509105069E+03 0.  0.
         23    2    1    2    0    0  0.11872758609E+01 -0.12473873032E+03 -0.27228318011E+02  0.15327585608E+03  0.84799447458E+02 0.  0.
          5    1    3    3  502    0 -0.41697447204E+02  0.11574679002E+03 -0.10599401072E+03  0.16244444962E+03  0.41800000000E+01 0.  1.
         -5    1    3    3    0  502  0.40510171343E+02  0.89919403073E+01 -0.10353865402E+03  0.11162282137E+03  0.41800000000E+01 0.  1.
        -11    1    4    4    0    0  0.32172229660E+02 -0.90882730705E+02 -0.41861257960E+02  0.10510512842E+03  0.00000000000E+00 0. -1.
         11    1    4    4    0    0 -0.30984953799E+02 -0.33855999618E+02  0.14632939950E+02  0.48170727663E+02  0.00000000000E+00 0.  1.
</event>
<event>
 8    1  0.3654190E-009  0.1055622E+03  0.7561462E-02  0.1269016E+00
          2   -1    0    0  501    0  0.00000000000E+00  0.00000000000E+00  0.32872084321E+02  0.32872084321E+02  0.00000000000E+00 0. -1.
         -2   -1    0    0    0  501 -0.00000000000E+00 -0.00000000000E+00 -0.68049900565E+03  0.68049900565E+03  0.00000000000E+00 0.  1.
         25    2    1    2    0    0 -0.99068804096E+02  0.23064929674E+02 -0.31642605333E+03  0.35512952375E+03  0.12507962459E+03 0.  0.
         23    2    1    2    0    0  0.99068804096E+02 -0.23064929674E+02 -0.33120086800E+03  0.35824156622E+03  0.91084498573E+02 0.  0.
          5    1    3    3  502    0 -0.58134527076E+02  0.25904121379E+02 -0.39227585113E+02  0.74879386860E+02  0.41800000000E+01 0.  1.
         -5    1    3    3    0  502 -0.40934277020E+02 -0.28391917048E+01 -0.27719846822E+03  0.28025013689E+03  0.41800000000E+01 0.  1.
        -11    1    4    4    0    0  0.41541259848E+02 -0.25097645303E+02 -0.44591691413E+02  0.65908929687E+02  0.00000000000E+00 0. -1.
         11    1    4    4    0    0  0.57527544248E+02  0.20327156287E+01 -0.28660917659E+03  0.29233263654E+03  0.00000000000E+00 0.  1.
</event>
<event>
 8    1  0.3654190E-009  0.8079793E+02  0.7561462E-02  0.1326802E+00
          1   -1    0    0  501    0  0.00000000000E+00  0.00000000000E+00  0.21501295743E+03  0.21501295743E+03  0.00000000000E+00 0. -1.
         -1   -1    0    0    0  501 -0.00000000000E+00 -0.00000000000E+00 -0.53866423509E+02  0.53866423509E+02  0.00000000000E+00 0.  1.
         25    2    1    2    0    0  0.37434187424E+01 -0.56098787624E+01  0.97903690557E+02  0.15898955056E+03  0.12508821143E+03 0.  0.
         23    2    1    2    0    0 -0.37434187424E+01  0.56098787624E+01  0.63242843362E+02  0.10988983037E+03  0.89613802840E+02 0.  0.
          5    1    3    3  502    0  0.60276656351E+02 -0.24703033271E+02  0.55302991316E+02  0.85553541143E+02  0.41800000000E+01 0. -1.
         -5    1    3    3    0  502 -0.56533237609E+02  0.19093154509E+02  0.42600699241E+02  0.73436009420E+02  0.41800000000E+01 0. -1.
        -11    1    4    4    0    0 -0.17443386959E+02  0.12213895404E+02 -0.17601595822E+02  0.27627290223E+02  0.00000000000E+00 0.  1.
         11    1    4    4    0    0  0.13699968217E+02 -0.66040166419E+01  0.80844439184E+02  0.82262540150E+02  0.00000000000E+00 0. -1.
</event>
<event>
 8    1  0.3654190E-009  0.4553370E+02  0.7561462E-02  0.1471037E+00
         -1   -1    0    0    0  501 -0.00000000000E+00  0.00000000000E+00  0.85676013504E+02  0.85676013504E+02  0.00000000000E+00 0.  1.
          1   -1    0    0  501    0  0.00000000000E+00 -0.00000000000E+00 -0.24972166941E+03  0.24972166941E+03  0.00000000000E+00 0. -1.
         25    2    1    2    0    0 -0.12906468019E+02  0.35137492924E+02 -0.19148291677E+03  0.23175547210E+03  0.12507466214E+03 0.  0.
         23    2    1    2    0    0  0.12906468019E+02 -0.35137492924E+02  0.27437260866E+02  0.10364221081E+03  0.92669759104E+02 0.  0.
          5    1    3    3  502    0  0.24371163020E+01  0.20657004128E+01  0.18169406909E+02  0.18915771237E+02  0.41800000000E+01 0.  1.
         -5    1    3    3    0  502 -0.15343584321E+02  0.33071792512E+02 -0.20965232368E+03  0.21283970087E+03  0.41800000000E+01 0.  1.
        -11    1    4    4    0    0 -0.50877843548E+01 -0.29955020484E+02  0.59330480956E+02  0.66658043567E+02  0.00000000000E+00 0.  1.
         11    1    4    4    0    0  0.17994252373E+02 -0.51824724407E+01 -0.31893220090E+02  0.36984167245E+02  0.00000000000E+00 0. -1.
</event>
<event>
 8    1  0.3654190E-009  0.9249049E+02  0.7561462E-02  0.1296930E+00
         -1   -1    0    0    0  501 -0.00000000000E+00  0.00000000000E+00  0.28040116173E+02  0.28040116173E+02  0.00000000000E+00 0.  1.
          1   -1    0    0  501    0  0.00000000000E+00 -0.00000000000E+00 -0.60956856888E+03  0.60956856888E+03  0.00000000000E+00 0. -1.
         25    2    1    2    0    0  0.10715463039E+02 -0.63539034948E+02 -0.39375867242E+03  0.41814538639E+03  0.12509053497E+03 0.  0.
         23    2    1    2    0    0 -0.10715463039E+02  0.63539034948E+02 -0.18776978028E+03  0.21946329866E+03  0.93566120806E+02 0.  0.
          5    1    3    3  502    0 -0.12503855138E+02  0.20850017243E+02 -0.13908432736E+02  0.28319366404E+02  0.41800000000E+01 0.  1.
         -5    1    3    3    0  502  0.23219318177E+02 -0.84389052191E+02 -0.37985023969E+03  0.38982601998E+03  0.41800000000E+01 0.  1.
        -11    1    4    4    0    0 -0.22886857380E+02  0.37280701907E+02 -0.18098798289E+02  0.47341582937E+02  0.00000000000E+00 0.  1.
         11    1    4    4    0    0  0.12171394341E+02  0.26258333041E+02 -0.16967098199E+03  0.17212171573E+03  0.00000000000E+00 0. -1.
</event>
<event>
 8    1  0.3654190E-009  0.1821174E+03  0.7561462E-02  0.1165769E+00
          2   -1    0    0  501    0  0.00000000000E+00  0.00000000000E+00  0.10772641161E+03  0.10772641161E+03  0.00000000000E+00 0. -1.
         -2   -1    0    0    0  501 -0.00000000000E+00 -0.00000000000E+00 -0.38631933799E+03  0.38631933799E+03  0.00000000000E+00 0.  1.
         25    2    1    2    0    0 -0.14599398016E+03  0.67195176309E+02 -0.22117371874E+03  0.30065737643E+03  0.12509040800E+03 0.  0.
         23    2    1    2    0    0  0.14599398016E+03 -0.67195176309E+02 -0.57419207639E+02  0.19338837317E+03  0.90954183558E+02 0.  0.
          5    1    3    3  502    0 -0.15658893097E+03  0.36691044938E+02 -0.21327537197E+03  0.26715198440E+03  0.41800000000E+01 0.  1.
         -5    1    3    3    0  502  0.10594950803E+02  0.30504131371E+02 -0.78983467753E+01  0.33505392029E+02  0.41800000000E+01 0.  1.
        -11    1    4    4    0    0  0.94827626104E+02 -0.72473719121E+02 -0.42749607288E+01  0.11942777702E+03  0.00000000000E+00 0. -1.
         11    1    4    4    0    0  0.51166354058E+02  0.52785428118E+01 -0.53144246910E+02  0.73960596140E+02  0.00000000000E+00 0.  1.
</event>
<event>
 8    1  0.3654190E-009  0.9359773E+02  0.7561462E-02  0.1294366E+00
          2   -1    0    0  501    0  0.00000000000E+00  0.00000000000E+00  0.42245079487E+03  0.42245079487E+03  0.00000000000E+00 0. -1.
         -2   -1    0    0    0  501 -0.00000000000E+00 -0.00000000000E+00 -0.39467089943E+02  0.39467089943E+02  0.00000000000E+00 0.  1.
         25    2    1    2    0    0  0.48415713426E+02 -0.40452448615E+02  0.15737954787E+03  0.21070501926E+03  0.12509117134E+03 0.  0.
         23    2    1    2    0    0 -0.48415713426E+02  0.40452448615E+02  0.22560415706E+03  0.25121286556E+03  0.90720373858E+02 0.  0.
          5    1    3    3  502    0  0.68776671834E+02  0.80463735360E+01  0.13806935873E+03  0.15451729656E+03  0.41800000000E+01 0. -1.
         -5    1    3    3    0  502 -0.20360958408E+02 -0.48498822151E+02  0.19310189135E+02  0.56187722696E+02  0.41800000000E+01 0. -1.
        -11    1    4    4    0    0 -0.23906600373E+02  0.98629522315E+01  0.39998970612E+01  0.26168732194E+02  0.00000000000E+00 0.  1.
         11    1    4    4    0    0 -0.24509113053E+02  0.30589496383E+02  0.22160426000E+03  0.22504413336E+03  0.00000000000E+00 0. -1.
</event>
<event>
 8    1  0.3654190E-009  0.1144786E+03  0.7561462E-02  0.1252494E+00
          2   -1    0    0  501    0  0.00000000000E+00  0.00000000000E+00  0.24765714615E+03  0.24765714615E+03  0.00000000000E+00 0. -1.
         -2   -1    0    0    0  501 -0.00000000000E+00 -0.00000000000E+00 -0.59468679107E+02  0.59468679107E+02  0.00000000000E+00 0.  1.
         25    2    1    2    0    0 -0.28187405814E+02  0.37544539577E+02  0.79851290106E+02  0.15565083785E+03  0.12508729948E+03 0.  0.
         23    2    1    2    0    0  0.28187405814E+02 -0.37544539577E+02  0.10833717694E+03  0.15147498742E+03  0.94887331117E+02 0.  0.
          5    1    3    3  502    0  0.19029491199E+02  0.66843588417E+02  0.70610933767E+02  0.99164324307E+02  0.41800000000E+01 0. -1.
         -5    1    3    3    0  502 -0.47216897013E+02 -0.29299048840E+02  0.92403563389E+01  0.56486513538E+02  0.41800000000E+01 0. -1.
        -11    1    4    4    0    0  0.62013279334E+01  0.31004105014E+02  0.48343509069E+02  0.57765092097E+02  0.00000000000E+00 0. -1.
         11    1    4    4    0    0  0.21986077880E+02 -0.68548644591E+02  0.59993667872E+02  0.93709895318E+02  0.00000000000E+00 0.  1.
</event>
<event>
 8    1  0.3654190E-009  0.9899938E+02  0.7561462E-02  0.1282414E+00
          2   -1    0    0  501    0  0.00000000000E+00  0.00000000000E+00  0.13610299278E+03  0.13610299278E+03  0.00000000000E+00 0. -1.
         -2   -1    0    0    0  501 -0.00000000000E+00 -0.00000000000E+00 -0.12302812958E+03  0.12302812958E+03  0.00000000000E+00 0.  1.
         25    2    1    2    0    0 -0.21122172307E+01 -0.49552244291E+02 -0.42147645599E+02  0.14101220572E+03  0.12509249281E+03 0.  0.
         23    2    1    2    0    0  0.21122172307E+01  0.49552244291E+02  0.55222508792E+02  0.11811891663E+03  0.91883984533E+02 0.  0.
          5    1    3    3  502    0 -0.52430798918E+02  0.11166834014E+02 -0.58079066893E+01  0.54082261761E+02  0.41800000000E+01 0.  1.
         -5    1    3    3    0  502  0.50318581688E+02 -0.60719078305E+02 -0.36339738909E+02  0.86929943962E+02  0.41800000000E+01 0.  1.
        -11    1    4    4    0    0  0.13965968375E+02 -0.34825754487E+00 -0.21614674596E+02  0.25736427760E+02  0.00000000000E+00 0.  1.
         11    1    4    4    0    0 -0.11853751144E+02  0.49900501836E+02  0.76837183388E+02  0.92382488874E+02  0.00000000000E+00 0. -1.
</event>
<event>
 8    1  0.3654190E-009  0.2314744E+03  0.7561462E-02  0.1125606E+00
         -1   -1    0    0    0  501 -0.00000000000E+00  0.00000000000E+00  0.33147166219E+02  0.33147166219E+02  0.00000000000E+00 0.  1.
          1   -1    0    0  501    0  0.00000000000E+00 -0.00000000000E+00 -0.18263712699E+04  0.18263712699E+04  0.00000000000E+00 0. -1.
         25    2    1    2    0    0  0.17417415609E+03 -0.13574928325E+03 -0.91755940233E+03  0.95201281909E+03  0.12509454967E+03 0.  0.
         23    2    1    2    0    0 -0.17417415609E+03  0.13574928325E+03 -0.87566470134E+03  0.90750561702E+03  0.89516876545E+02 0.  0.
          5    1    3    3  502    0  0.35807895225E+01 -0.24525017358E+02 -0.31408545244E+03  0.31508957832E+03  0.41800000000E+01 0. -1.
         -5    1    3    3    0  502  0.17059336657E+03 -0.11122426590E+03 -0.60347394989E+03  0.63692324077E+03  0.41800000000E+01 0. -1.
        -11    1    4    4    0    0 -0.80599470410E+02  0.16041106920E+02 -0.23117692521E+03  0.24534947013E+03  0.00000000000E+00 0.  1.
         11    1    4    4    0    0 -0.93574685684E+02  0.11970817633E+03 -0.64448777613E+03  0.66215614689E+03  0.00000000000E+00 0. -1.
</event>
<event>
 8    1  0.3654190E-009  0.9754225E+02  0.7561462E-02  0.1285551E+00
          3   -1    0    0  501    0  0.00000000000E+00  0.00000000000E+00  0.15824551335E+02  0.15824551335E+02  0.00000000000E+00 0. -1.
         -3   -1    0    0    0  501 -0.00000000000E+00 -0.00000000000E+00 -0.74006445824E+03  0.74006445824E+03  0.00000000000E+00 0.  1.
         25    2    1    2    0    0 -0.78481567510E+01  0.57274133198E+01 -0.39787071934E+03  0.41718441609E+03  0.12508929168E+03 0.  0.
         23    2    1    2    0    0  0.78481567510E+01 -0.57274133198E+01 -0.32636918756E+03  0.33870459348E+03  0.90053085608E+02 0.  0.
          5    1    3    3  502    0  0.33591455098E+02 -0.37639555137E+02 -0.28336934479E+03  0.28785548446E+03  0.41800000000E+01 0. -1.
         -5    1    3    3    0  502 -0.41439611849E+02  0.43366968457E+02 -0.11450137455E+03  0.12932893164E+03  0.41800000000E+01 0. -1.
        -11    1    4    4    0    0  0.41693928707E+02 -0.21593794444E+02 -0.24067617474E+03  0.24521357372E+03  0.00000000000E+00 0.  1.
         11    1    4    4    0    0 -0.33845771956E+02  0.15866381124E+02 -0.85693012823E+02  0.93491019761E+02  0.00000000000E+00 0. -1.
</event>
<event>
 8    1  0.3654190E-009  0.8173658E+02  0.7561462E-02  0.1324194E+00
         -1   -1    0    0    0  501 -0.00000000000E+00  0.00000000000E+00  0.46518416453E+02  0.46518416453E+02  0.00000000000E+00 0.  1.
          1   -1    0    0  501    0  0.00000000000E+00 -0.00000000000E+00 -0.28291700500E+03  0.28291700500E+03  0.00000000000E+00 0. -1.
         25    2    1    2    0    0 -0.36883212433E+01  0.23814444273E+02 -0.18207133402E+03  0.22221207265E+03  0.12508997997E+03 0.  0.
         23    2    1    2    0    0  0.36883212433E+01 -0.23814444273E+02 -0.54327254525E+02  0.10722334881E+03  0.89244968908E+02 0.  0.
          5    1    3    3  502    0  0.24053085327E+02  0.50174707224E+02 -0.17420183186E+03  0.18292020879E+03  0.41800000000E+01 0. -1.
         -5    1    3    3    0  502 -0.27741406571E+02 -0.26360262951E+02 -0.78695021604E+01  0.39291863860E+02  0.41800000000E+01 0. -1.
        -11    1    4    4    0    0  0.32663072160E+02 -0.16614441187E+01  0.91962123910E+01  0.33973622147E+02  0.00000000000E+00 0.  1.
         11    1    4    4    0    0 -0.28974750916E+02 -0.22153000155E+02 -0.63523466916E+02  0.73249726659E+02  0.00000000000E+00 0. -1.
</event>
<event>
 8    1  0.3654190E-009  0.1135815E+03  0.7561462E-02  0.1254078E+00
         -2   -1    0    0    0  501 -0.00000000000E+00  0.00000000000E+00  0.38571884753E+02  0.38571884753E+02  0.00000000000E+00 0. -1.
          2   -1    0    0  501    0  0.00000000000E+00 -0.00000000000E+00 -0.45788236932E+03  0.45788236932E+03  0.00000000000E+00 0.  1.
         25    2    1    2    0    0 -0.44378737846E+02 -0.59854740139E+02 -0.26852706017E+03  0.30546161151E+03  0.12509177338E+03 0.  0.
         23    2    1    2    0    0  0.44378737846E+02  0.59854740139E+02 -0.15078342439E+03  0.19099264256E+03  0.90501304701E+02 0.  0.
          5    1    3    3  502    0 -0.79077322015E+02 -0.58509545568E+02 -0.24291819793E+03  0.26211316843E+03  0.41800000000E+01 0.  1.
         -5    1    3    3    0  502  0.34698584168E+02 -0.13451945710E+01 -0.25608862248E+02  0.43348443079E+02  0.41800000000E+01 0.  1.
        -11    1    4    4    0    0  0.26620020962E+02 -0.44748024375E+01 -0.99684332302E+00  0.27011906069E+02  0.00000000000E+00 0. -1.
         11    1    4    4    0    0  0.17758716885E+02  0.64329542577E+02 -0.14978658107E+03  0.16398073649E+03  0.00000000000E+00 0.  1.
</event>
<event>
 8    1  0.3654190E-009  0.1821283E+03  0.7561462E-02  0.1165759E+00
         -2   -1    0    0    0  501 -0.00000000000E+00  0.00000000000E+00  0.26678064868E+03  0.26678064868E+03  0.00000000000E+00 0.  1.
          2   -1    0    0  501    0  0.00000000000E+00 -0.00000000000E+00 -0.22523267377E+03  0.22523267377E+03  0.00000000000E+00 0. -1.
         25    2    1    2    0    0 -0.13797026208E+03 -0.98672747751E+02 -0.11874183058E+03  0.24190698209E+03  0.12508901345E+03 0.  0.
         23    2    1    2    0    0  0.13797026208E+03  0.98672747751E+02  0.16028980549E+03  0.25010634037E+03  0.89934728436E+02 0.  0.
          5    1    3    3  502    0 -0.47665133224E+02 -0.10117206375E+02 -0.10346278313E+03  0.11443925324E+03  0.41800000000E+01 0. -1.
         -5    1    3    3    0  502 -0.90305128855E+02 -0.88555541377E+02 -0.15279047454E+02  0.12746772885E+03  0.41800000000E+01 0. -1.
        -11    1    4    4    0    0  0.14885096263E+03  0.97309264425E+02  0.13742264276E+03  0.22474582257E+03  0.00000000000E+00 0. -1.
         11    1    4    4    0    0 -0.10880700554E+02  0.13634833260E+01  0.22867162736E+02  0.25360517797E+02  0.00000000000E+00 0.  1.
</event>
<event>
 8    1  0.3654190E-009  0.1067921E+03  0.7561462E-02  0.1266628E+00
         -2   -1    0    0    0  501 -0.00000000000E+00  0.00000000000E+00  0.15587734718E+02  0.15587734718E+02  0.00000000000E+00 0.  1.
          2   -1    0    0  501    0  0.00000000000E+00 -0.00000000000E+00 -0.11412820756E+04  0.11412820756E+04  0.00000000000E+00 0. -1.
         25    2    1    2    0    0 -0.44029458942E+02  0.21539305764E+02 -0.81560626627E+03  0.82659766679E+03  0.12509031220E+03 0.  0.
         23    2    1    2    0    0  0.44029458942E+02 -0.21539305764E+02 -0.31008807459E+03  0.33027214351E+03  0.10257943180E+03 0.  0.
          5    1    3    3  502    0 -0.40683199945E+02 -0.38366942721E+02 -0.60436224246E+03  0.60695826674E+03  0.41800000000E+01 0. -1.
         -5    1    3    3    0  502 -0.33462589970E+01  0.59906248485E+02 -0.21124402381E+03  0.21963940004E+03  0.41800000000E+01 0. -1.
        -11    1    4    4    0    0  0.39294432992E+02  0.27584973474E+02 -0.23873451150E+03  0.24351416839E+03  0.00000000000E+00 0. -1.
         11    1    4    4    0    0  0.47350259498E+01 -0.49124279238E+02 -0.71353563087E+02  0.86757975118E+02  0.00000000000E+00 0.  1.
</event>
<event>
 8    1  0.3654190E-009  0.1132713E+03  0.7561462E-02  0.1254629E+00
          1   -1    0    0  501    0  0.00000000000E+00  0.00000000000E+00  0.16938197358E+03  0.16938197358E+03  0.00000000000E+00 0. -1.
         -1   -1    0    0    0  501 -0.00000000000E+00 -0.00000000000E+00 -0.15651248339E+03  0.15651248339E+03  0.00000000000E+00 0.  1.
         25    2    1    2    0    0  0.33275574832E+02  0.10640102390E+02 -0.10885050588E+03  0.16946241284E+03  0.12509436868E+03 0.  0.
         23    2    1    2    0    0 -0.33275574832E+02 -0.10640102390E+02  0.12171999607E+03  0.15643204413E+03  0.91840902257E+02 0.  0.
          5    1    3    3  502    0  0.44624796218E+02 -0.50050035878E+02 -0.66086610891E+02  0.94240602014E+02  0.41800000000E+01 0.  1.
         -5    1    3    3    0  502 -0.11349221387E+02  0.60690138269E+02 -0.42763894993E+02  0.75221810827E+02  0.41800000000E+01 0.  1.
        -11    1    4    4    0    0 -0.59885748916E+02  0.13675504847E+02  0.85999349282E+02  0.10568448530E+03  0.00000000000E+00 0. -1.
         11    1    4    4    0    0  0.26610174084E+02 -0.24315607237E+02  0.35720646789E+02  0.50747558829E+02  0.00000000000E+00 0.  1.
</event>
<event>
 8    1  0.3654190E-009  0.8065881E+02  0.7561462E-02  0.1327192E+00
          2   -1    0    0  501    0  0.00000000000E+00  0.00000000000E+00  0.67234316628E+02  0.67234316628E+02  0.00000000000E+00 0. -1.
         -2   -1    0    0    0  501 -0.00000000000E+00 -0.00000000000E+00 -0.28613924097E+03  0.28613924097E+03  0.00000000000E+00 0.  1.
         25    2    1    2    0    0 -0.25686057075E+02  0.47357390289E+02 -0.20122601009E+03  0.24298626398E+03  0.12509165203E+03 0.  0.
         23    2    1    2    0    0  0.25686057075E+02 -0.47357390289E+02 -0.17678914261E+02  0.11038729362E+03  0.94711744995E+02 0.  0.
          5    1    3    3  502    0 -0.73945681361E+01 -0.18058696119E+01 -0.18869248868E+03  0.18889221394E+03  0.41800000000E+01 0. -1.
         -5    1    3    3    0  502 -0.18291488939E+02  0.49163259901E+02 -0.12533521410E+02  0.54094050048E+02  0.41800000000E+01 0. -1.
        -11    1    4    4    0    0  0.46934309048E+02 -0.59308539871E+02  0.66766475927E+01  0.75927003698E+02  0.00000000000E+00 0. -1.
         11    1    4    4    0    0 -0.21248251973E+02  0.11951149582E+02 -0.24355561854E+02  0.34460289921E+02  0.00000000000E+00 0.  1.
</event>
<event>
 8    1  0.3654190E-009  0.9053879E+02  0.7561462E-02  0.1301552E+00
          3   -1    0    0  501    0  0.00000000000E+00  0.00000000000E+00  0.64054511344E+02  0.64054511344E+02  0.00000000000E+00 0. -1.
         -3   -1    0    0    0  501 -0.00000000000E+00 -0.00000000000E+00 -0.23548752036E+03  0.23548752036E+03  0.00000000000E+00 0.  1.
         25    2    1    2    0    0  0.65033269678E+01  0.39253973336E+02 -0.15629417826E+03  0.20410447680E+03  0.12509036577E+03 0.  0.
         23    2    1    2    0    0 -0.65033269678E+01 -0.39253973336E+02 -0.15138830756E+02  0.95437554901E+02  0.85416479700E+02 0.  0.
          5    1    3    3  502    0 -0.12159948196E+02 -0.37608541027E+02 -0.15700357972E+02  0.42734533328E+02  0.41800000000E+01 0. -1.
         -5    1    3    3    0  502  0.18663275163E+02  0.76862514363E+02 -0.14059382029E+03  0.16136994347E+03  0.41800000000E+01 0. -1.
        -11    1    4    4    0    0  0.13480323991E+01 -0.49331753458E+02 -0.42572236586E+02  0.65175412684E+02  0.00000000000E+00 0.  1.
         11    1    4    4    0    0 -0.78513593669E+01  0.10077780122E+02  0.27433405830E+02  0.30262142217E+02  0.00000000000E+00 0. -1.
</event>
<event>
 8    1  0.3654190E-009  0.1112310E+03  0.7561462E-02  0.1258307E+00
          2   -1    0    0  501    0  0.00000000000E+00  0.00000000000E+00  0.19058365771E+03  0.19058365771E+03  0.00000000000E+00 0. -1.
         -2   -1    0    0    0  501 -0.00000000000E+00 -0.00000000000E+00 -0.95312347244E+02  0.95312347244E+02  0.00000000000E+00 0.  1.
         25    2    1    2    0    0 -0.27059148435E+02 -0.24082896005E+02  0.12999256373E+03  0.18400640806E+03  0.12509239860E+03 0.  0.
         23    2    1    2    0    0  0.27059148435E+02  0.24082896005E+02 -0.34721253262E+02  0.10188959690E+03  0.88677737535E+02 0.  0.
          5    1    3    3  502    0  0.47784518659E+02 -0.24208234338E+02  0.68451488943E+02  0.87019983750E+02  0.41800000000E+01 0.  1.
         -5    1    3    3    0  502 -0.74843667094E+02  0.12533833298E+00  0.61541074787E+02  0.96986424307E+02  0.41800000000E+01 0.  1.
        -11    1    4    4    0    0 -0.26338597540E+02 -0.12389511051E+02 -0.20713293481E+02  0.35724812544E+02  0.00000000000E+00 0.  1.
         11    1    4    4    0    0  0.53397745975E+02  0.36472407056E+02 -0.14007959781E+02  0.66164784356E+02  0.00000000000E+00 0. -1.
</event>
<event>
 8    1  0.3654190E-009  0.9091170E+02  0.7561462E-02  0.1300659E+00
          2   -1    0    0  501    0  0.00000000000E+00  0.00000000000E+00  0.51998440153E+03  0.51998440153E+03  0.00000000000E+00 0. -1.
         -2   -1    0    0    0  501 -0.00000000000E+00 -0.00000000000E+00 -0.37161673336E+02  0.37161673336E+02  0.00000000000E+00 0.  1.
         25    2    1    2    0    0  0.27893680657E+02 -0.76658636724E+02  0.31222000068E+03  0.34609781382E+03  0.12509102248E+03 0.  0.
         23    2    1    2    0    0 -0.27893680657E+02  0.76658636724E+02  0.17060272752E+03  0.21104826105E+03  0.93709518450E+02 0.  0.
          5    1    3    3  502    0 -0.41421749646E+01 -0.64605525956E+02  0.30373636559E+03  0.31058699872E+03  0.41800000000E+01 0.  1.
         -5    1    3    3    0  502  0.32035855621E+02 -0.12053110768E+02  0.84836350910E+01  0.35510815098E+02  0.41800000000E+01 0.  1.
        -11    1    4    4    0    0 -0.20025840459E+02  0.37353491373E+02  0.16526073855E+03  0.17060899539E+03  0.00000000000E+00 0. -1.
         11    1    4    4    0    0 -0.78678401979E+01  0.39305145352E+02  0.53419889754E+01  0.40439265655E+02  0.00000000000E+00 0.  1.
</event>
<event>
 8    1  0.3654190E-009  0.1303601E+03  0.7561462E-02  0.1226922E+00
         -2   -1    0    0    0  501 -0.00000000000E+00  0.00000000000E+00  0.19036399949E+02  0.19036399949E+02  0.00000000000E+00 0.  1.
          2   -1    0    0  501    0  0.00000000000E+00 -0.00000000000E+00 -0.12484013581E+04  0.12484013581E+04  0.00000000000E+00 0. -1.
         25    2    1    2    0    0 -0.94104947167E+02  0.14880901202E+02 -0.88621594172E+03  0.90005797874E+03  0.12509391447E+03 0.  0.
         23    2    1    2    0    0  0.94104947167E+02 -0.14880901202E+02 -0.34314901641E+03  0.36737977929E+03  0.90219024951E+02 0.  0.
          5    1    3    3  502    0 -0.91885784803E+02  0.48010211307E+02 -0.41939049607E+03  0.43203453384E+03  0.41800000000E+01 0. -1.
         -5    1    3    3    0  502 -0.22191623645E+01 -0.33129310105E+02 -0.46682544565E+03  0.46802344490E+03  0.41800000000E+01 0. -1.
        -11    1    4    4    0    0  0.27029482200E+02 -0.42981433133E+02 -0.83378281388E+02  0.97621382439E+02  0.00000000000E+00 0.  1.
         11    1    4    4    0    0  0.67075464967E+02  0.28100531930E+02 -0.25977073503E+03  0.26975839685E+03  0.00000000000E+00 0. -1.
</event>
<event>
 8    1  0.3654190E-009  0.1053977E+03  0.7561462E-02  0.1269338E+00
         -1   -1    0    0    0  501 -0.00000000000E+00  0.00000000000E+00  0.32230850566E+02  0.32230850566E+02  0.00000000000E+00 0.  1.
          1   -1    0    0  501    0  0.00000000000E+00 -0.00000000000E+00 -0.51160960085E+03  0.51160960085E+03  0.00000000000E+00 0. -1.
         25    2    1    2    0    0  0.22197815133E+02 -0.59747618861E+02 -0.32120198527E+03  0.35054413086E+03  0.12509177184E+03 0.  0.
         23    2    1    2    0    0 -0.22197815133E+02  0.59747618861E+02 -0.15817676501E+03  0.19329632055E+03  0.91000316453E+02 0.  0.
          5    1    3    3  502    0  0.32629745531E+02 -0.93119326493E+02 -0.27669553065E+03  0.29379210054E+03  0.41800000000E+01 0. -1.
         -5    1    3    3    0  502 -0.10431930398E+02  0.33371707632E+02 -0.44506454622E+02  0.56752030317E+02  0.41800000000E+01 0. -1.
        -11    1    4    4    0    0  0.12117162499E+02  0.72973006433E+01  0.76063843925E+01  0.16060302215E+02  0.00000000000E+00 0.  1.
         11    1    4    4    0    0 -0.34314977632E+02  0.52450318218E+02 -0.16578314940E+03  0.17723601834E+03  0.00000000000E+00 0. -1.
</event>
<event>
 8    1  0.3654190E-009  0.1078802E+03  0.7561462E-02  0.1264547E+00
          2   -1    0    0  501    0  0.00000000000E+00  0.00000000000E+00  0.12232892813E+03  0.12232892813E+03  0.00000000000E+00 0. -1.
         -2   -1    0    0    0  501 -0.00000000000E+00 -0.00000000000E+00 -0.16300970327E+03  0.16300970327E+03  0.00000000000E+00 0.  1.
         25    2    1    2    0    0 -0.74164553323E+02 -0.54879966525E+02 -0.30634502515E+02  0.15842847901E+03  0.12509563750E+03 0.  0.
         23    2    1    2    0    0  0.74164553323E+02  0.54879966525E+02 -0.10046272625E+02  0.12691015240E+03  0.86562506274E+02 0.  0.
          5    1    3    3  502    0 -0.45871120267E+02 -0.52113023270E+02 -0.77075314891E+02  0.10381716349E+03  0.41800000000E+01 0. -1.
         -5    1    3    3    0  502 -0.28293433057E+02 -0.27669432552E+01  0.46440812376E+02  0.54611315524E+02  0.41800000000E+01 0. -1.
        -11    1    4    4    0    0 -0.11029226723E+02  0.24773872682E+02  0.17706998685E+02  0.32387133436E+02  0.00000000000E+00 0. -1.
         11    1    4    4    0    0  0.85193780047E+02  0.30106093844E+02 -0.27753271310E+02  0.94523018961E+02  0.00000000000E+00 0.  1.
</event>
<event>
 8    1  0.3654190E-009  0.9815535E+02  0.7561462E-02  0.1284223E+00
         -1   -1    0    0    0  501 -0.00000000000E+00  0.00000000000E+00  0.21167838806E+03  0.21167838806E+03  0.00000000000E+00 0.  1.
          1   -1    0    0  501    0  0.00000000000E+00 -0.00000000000E+00 -0.84538836936E+02  0.84538836936E+02  0.00000000000E+00 0. -1.
         25    2    1    2    0    0  0.22948707151E+00  0.58328613321E+02  0.11272972910E+02  0.13849676252E+03  0.12510792746E+03 0.  0.
         23    2    1    2    0    0 -0.22948707151E+00 -0.58328613321E+02  0.11586657821E+03  0.15772046248E+03  0.89712878347E+02 0.  0.
          5    1    3    3  502    0  0.33719126442E+02  0.53527071981E+02 -0.41425069892E+02  0.75733980078E+02  0.41800000000E+01 0.  1.
         -5    1    3    3    0  502 -0.33489639371E+02  0.48015413401E+01  0.52698042802E+02  0.62762782440E+02  0.41800000000E+01 0.  1.
        -11    1    4    4    0    0  0.11283702829E+02 -0.76490007285E+02  0.60028304830E+02  0.97884833068E+02  0.00000000000E+00 0. -1.
         11    1    4    4    0    0 -0.11513189901E+02  0.18161393965E+02  0.55838273384E+02  0.59835629410E+02  0.00000000000E+00 0.  1.
</event>
<event>
 8    1  0.3654190E-009  0.1053658E+03  0.7561462E-02  0.1269400E+00
          1   -1    0    0  501    0  0.00000000000E+00  0.00000000000E+00  0.19128782262E+03  0.19128782262E+03  0.00000000000E+00 0. -1.
         -1   -1    0    0    0  501 -0.00000000000E+00 -0.00000000000E+00 -0.78123431405E+02  0.78123431405E+02  0.00000000000E+00 0.  1.
         25    2    1    2    0    0 -0.23771465481E+02  0.15284325069E+02  0.63735029198E+01  0.12840495398E+03  0.12509403464E+03 0.  0.
         23    2    1    2    0    0  0.23771465481E+02 -0.15284325069E+02  0.10679088830E+03  0.14100630005E+03  0.87634409142E+02 0.  0.
          5    1    3    3  502    0  0.46998821206E+02  0.10451674182E+02 -0.20417564108E+02  0.52464044946E+02  0.41800000000E+01 0. -1.
         -5    1    3    3    0  502 -0.70770286687E+02  0.48326508867E+01  0.26791067028E+02  0.75940909034E+02  0.41800000000E+01 0. -1.
        -11    1    4    4    0    0  0.25707020048E+02 -0.50187738444E+02  0.57088917207E+02  0.80242161223E+02  0.00000000000E+00 0.  1.
         11    1    4    4    0    0 -0.19355545671E+01  0.34903413375E+02  0.49701971092E+02  0.60764138825E+02  0.00000000000E+00 0. -1.
</event>
<event>
 8    1  0.3654190E-009  0.1093190E+03  0.7561462E-02  0.1261836E+00
         -2   -1    0    0    0  501 -0.00000000000E+00  0.00000000000E+00  0.72795678392E+02  0.72795678392E+02  0.00000000000E+00 0.  1.
          2   -1    0    0  501    0  0.00000000000E+00 -0.00000000000E+00 -0.18130896555E+03  0.18130896555E+03  0.00000000000E+00 0. -1.
         25    2    1    2    0    0  0.24624711374E+01  0.35577839803E+02 -0.42012027600E+02  0.13668875171E+03  0.12508780089E+03 0.  0.
         23    2    1    2    0    0 -0.24624711374E+01 -0.35577839803E+02 -0.66501259554E+02  0.11741589223E+03  0.89956810616E+02 0.  0.
          5    1    3    3  502    0 -0.20376093823E+02 -0.42360356194E+02 -0.53845387239E+01  0.47497901360E+02  0.41800000000E+01 0. -1.
         -5    1    3    3    0  502  0.22838564961E+02  0.77938195997E+02 -0.36627488876E+02  0.89190850350E+02  0.41800000000E+01 0. -1.
        -11    1    4    4    0    0 -0.30202175386E+02  0.14018036899E+02 -0.46458939548E+02  0.57158637322E+02  0.00000000000E+00 0. -1.
         11    1    4    4    0    0  0.27739704249E+02 -0.49595876702E+02 -0.20042320006E+02  0.60257254907E+02  0.00000000000E+00 0.  1.
</event>
<event>
 8    1  0.3654190E-009  0.1299646E+03  0.7561462E-02  0.1227508E+00
         -2   -1    0    0    0  501 -0.00000000000E+00  0.00000000000E+00  0.17048930804E+02  0.17048930804E+02  0.00000000000E+00 0.  1.
          2   -1    0    0  501    0  0.00000000000E+00 -0.00000000000E+00 -0.11248957466E+04  0.11248957466E+04  0.00000000000E+00 0. -1.
         25    2    1    2    0    0 -0.80621651369E+02 -0.18005527040E+02 -0.69506117187E+03  0.71104286462E+03  0.12509145858E+03 0.  0.
         23    2    1    2    0    0  0.80621651369E+02  0.18005527040E+02 -0.41278564397E+03  0.43090181283E+03  0.91980078061E+02 0.  0.
          5    1    3    3  502    0 -0.46394963283E+02 -0.63890850170E+02 -0.53885715529E+03  0.54462743189E+03  0.41800000000E+01 0.  1.
         -5    1    3    3    0  502 -0.34226688086E+02  0.45885323130E+02 -0.15620401658E+03  0.16641543273E+03  0.41800000000E+01 0.  1.
        -11    1    4    4    0    0  0.71330252866E+02  0.51967154508E+02 -0.28470290746E+03  0.29806766956E+03  0.00000000000E+00 0.  1.
         11    1    4    4    0    0  0.92913985036E+01 -0.33961627468E+02 -0.12808273651E+03  0.13283414327E+03  0.00000000000E+00 0. -1.
</event>
<event>
 8    1  0.3654190E-009  0.1023538E+03  0.7561462E-02  0.1275423E+00
          1   -1    0    0  501    0  0.00000000000E+00  0.00000000000E+00  0.56467571031E+03  0.56467571031E+03  0.00000000000E+00 0. -1.
         -1   -1    0    0    0  501 -0.00000000000E+00 -0.00000000000E+00 -0.34940559573E+02  0.34940559573E+02  0.00000000000E+00 0.  1.
         25    2    1    2    0    0 -0.77496586633E+02 -0.28600660693E+02  0.21577357123E+03  0.26273587673E+03  0.12509271821E+03 0.  0.
         23    2    1    2    0    0  0.77496586633E+02  0.28600660693E+02  0.31396157951E+03  0.33688039316E+03  0.89960030857E+02 0.  0.
          5    1    3    3  502    0 -0.14059473436E+02 -0.42593375152E+01 -0.15434539282E+02  0.21714238468E+02  0.41800000000E+01 0.  1.
         -5    1    3    3    0  502 -0.63437113197E+02 -0.24341323178E+02  0.23120811051E+03  0.24102163826E+03  0.41800000000E+01 0.  1.
        -11    1    4    4    0    0  0.32860515104E+02  0.58874829224E+02  0.19303362756E+03  0.20447014534E+03  0.00000000000E+00 0.  1.
         11    1    4    4    0    0  0.44636071530E+02 -0.30274168531E+02  0.12092795195E+03  0.13241024781E+03  0.00000000000E+00 0. -1.
</event>
<event>
 8    1  0.3654190E-009  0.1602845E+03  0.7561462E-02  0.1188376E+00
         -1   -1    0    0    0  501 -0.00000000000E+00  0.00000000000E+00  0.33951656510E+03  0.33951656510E+03  0.00000000000E+00 0.  1.
          1   -1    0    0  501    0  0.00000000000E+00 -0.00000000000E+00 -0.19977169559E+03  0.19977169559E+03  0.00000000000E+00 0. -1.
         25    2    1    2    0    0 -0.18873679517E+02  0.14907097801E+03  0.26134342675E+03  0.32638481350E+03  0.12509311538E+03 0.  0.
         23    2    1    2    0    0  0.18873679517E+02 -0.14907097801E+03 -0.12159855724E+03  0.21290344719E+03  0.89237304070E+02 0.  0.
          5    1    3    3  502    0 -0.31284065851E+02  0.70239844815E+02  0.22645462342E+03  0.23918925027E+03  0.41800000000E+01 0. -1.
         -5    1    3    3    0  502  0.12410386333E+02  0.78831133192E+02  0.34888803329E+02  0.87195563230E+02  0.41800000000E+01 0. -1.
        -11    1    4    4    0    0 -0.20810617570E+02 -0.90782318744E+02 -0.10520350094E+03  0.14050725181E+03  0.00000000000E+00 0.  1.
         11    1    4    4    0    0  0.39684297087E+02 -0.58288659263E+02 -0.16395056299E+02  0.72396195377E+02  0.00000000000E+00 0. -1.
</event>
<event>
 8    1  0.3654190E-009  0.1102037E+03  0.7561462E-02  0.1260193E+00
         -2   -1    0    0    0  501 -0.00000000000E+00  0.00000000000E+00  0.67355791844E+02  0.67355791844E+02  0.00000000000E+00 0.  1.
          2   -1    0    0  501    0  0.00000000000E+00 -0.00000000000E+00 -0.20869127906E+03  0.20869127906E+03  0.00000000000E+00 0. -1.
         25    2    1    2    0    0  0.26302660313E+02 -0.14429250445E+01 -0.35560522550E+02  0.13268111659E+03  0.12508323614E+03 0.  0.
         23    2    1    2    0    0 -0.26302660313E+02  0.14429250445E+01 -0.10577496467E+03  0.14336595432E+03  0.93121113265E+02 0.  0.
          5    1    3    3  502    0  0.13247305647E+02  0.60312586700E+02 -0.31098338491E+02  0.69265274693E+02  0.41800000000E+01 0. -1.
         -5    1    3    3    0  502  0.13055354666E+02 -0.61755511745E+02 -0.44621840582E+01  0.63415841892E+02  0.41800000000E+01 0. -1.
        -11    1    4    4    0    0 -0.55047504394E+02  0.22660928134E+02 -0.53432035998E+02  0.79992048823E+02  0.00000000000E+00 0. -1.
         11    1    4    4    0    0  0.28744844082E+02 -0.21218003090E+02 -0.52342928673E+02  0.63373905501E+02  0.00000000000E+00 0.  1.
</event>
<event>
 8    1  0.3654190E-009  0.1350415E+03  0.7561462E-02  0.1220161E+00
         -2   -1    0    0    0  501 -0.00000000000E+00  0.00000000000E+00  0.44540645123E+02  0.44540645123E+02  0.00000000000E+00 0.  1.
          2   -1    0    0  501    0  0.00000000000E+00 -0.00000000000E+00 -0.67371626022E+03  0.67371626022E+03  0.00000000000E+00 0. -1.
         25    2    1    2    0    0  0.11732855349E+03  0.55125362842E+02 -0.40763471776E+03  0.44566897701E+03  0.12509987553E+03 0.  0.
         23    2    1    2    0    0 -0.11732855349E+03 -0.55125362842E+02 -0.22154089734E+03  0.27258792833E+03  0.91755187232E+02 0.  0.
          5    1    3    3  502    0  0.10116015256E+03  0.22618586924E+02 -0.39272969223E+03  0.40620076379E+03  0.41800000000E+01 0.  1.
         -5    1    3    3    0  502  0.16168400928E+02  0.32506775918E+02 -0.14905025522E+02  0.39468213222E+02  0.41800000000E+01 0.  1.
        -11    1    4    4    0    0 -0.82570870350E+02 -0.42030745158E+02 -0.68820406822E+02  0.11541568595E+03  0.00000000000E+00 0.  1.
         11    1    4    4    0    0 -0.34757683141E+02 -0.13094617684E+02 -0.15272049052E+03  0.15717224237E+03  0.00000000000E+00 0. -1.
</event>
<event>
 8    1  0.3654190E-009  0.1355224E+03  0.7561462E-02  0.1219484E+00
          2   -1    0    0  501    0  0.00000000000E+00  0.00000000000E+00  0.29451971859E+02  0.29451971859E+02  0.00000000000E+00 0. -1.
         -2   -1    0    0    0  501 -0.00000000000E+00 -0.00000000000E+00 -0.65403490455E+03  0.65403490455E+03  0.00000000000E+00 0.  1.
         25    2    1    2    0    0 -0.28812750947E+02 -0.78793768868E+02 -0.29591986562E+03  0.33204725192E+03  0.12509267768E+03 0.  0.
         23    2    1    2    0    0  0.28812750947E+02  0.78793768868E+02 -0.32866306707E+03  0.35143962449E+03  0.91933483427E+02 0.  0.
          5    1    3    3  502    0  0.36988578296E+02 -0.72154566374E+02 -0.19599277979E+03  0.21214400417E+03  0.41800000000E+01 0.  1.
         -5    1    3    3    0  502 -0.65801329244E+02 -0.66392024936E+01 -0.99927085831E+02  0.11990324776E+03  0.41800000000E+01 0.  1.
        -11    1    4    4    0    0  0.61348829354E+02  0.60950582648E+02 -0.20998373143E+03  0.22709429727E+03  0.00000000000E+00 0.  1.
         11    1    4    4    0    0 -0.32536078406E+02  0.17843186220E+02 -0.11867933564E+03  0.12434532722E+03  0.00000000000E+00 0. -1.
</event>
<event>
 8    1  0.3654190E-009  0.1912974E+03  0.7561462E-02  0.1157296E+00
          1   -1    0    0  501    0  0.00000000000E+00  0.00000000000E+00  0.23598016677E+03  0.23598016677E+03  0.00000000000E+00 0. -1.
         -1   -1    0    0    0  501 -0.00000000000E+00 -0.00000000000E+00 -0.17578101270E+03  0.17578101270E+03  0.00000000000E+00 0.  1.
         25    2    1    2    0    0 -0.16773816073E+03  0.20530313438E+01  0.52305986552E+02  0.21569448727E+03  0.12509152692E+03 0.  0.
         23    2    1    2    0    0  0.16773816073E+03 -0.20530313438E+01  0.78931675202E+01  0.19606669219E+03  0.10119061315E+03 0.  0.
          5    1    3    3  502    0 -0.12280504236E+03  0.41180842468E+02  0.77357174823E+02  0.15092562775E+03  0.41800000000E+01 0.  1.
         -5    1    3    3    0  502 -0.44933118377E+02 -0.39127811124E+02 -0.25051188271E+02  0.64768859525E+02  0.41800000000E+01 0.  1.
        -11    1    4    4    0    0  0.31002281418E+01 -0.26631215274E+02 -0.10065795669E+02  0.28638318456E+02  0.00000000000E+00 0. -1.
         11    1    4    4    0    0  0.16463793259E+03  0.24578183931E+02  0.17958963189E+02  0.16742837374E+03  0.00000000000E+00 0.  1.
</event>
<event>
 8    1  0.3654190E-009  0.1625484E+03  0.7561462E-02  0.1185849E+00
          1   -1    0    0  501    0  0.00000000000E+00  0.00000000000E+00  0.27930209326E+03  0.27930209326E+03  0.00000000000E+00 0. -1.
         -1   -1    0    0    0  501 -0.00000000000E+00 -0.00000000000E+00 -0.12084198092E+03  0.12084198092E+03  0.00000000000E+00 0.  1.
         25    2    1    2    0    0 -0.11577832617E+03  0.53000742005E+02 -0.48368126536E+01  0.17856525527E+03  0.12509378949E+03 0.  0.
         23    2    1    2    0    0  0.11577832617E+03 -0.53000742005E+02  0.16329692499E+03  0.22157881892E+03  0.78851682403E+02 0.  0.
          5    1    3    3  502    0 -0.37053698823E+02 -0.40311348160E+02 -0.11963162388E+02  0.56201165836E+02  0.41800000000E+01 0. -1.
         -5    1    3    3    0  502 -0.78724627347E+02  0.93312090164E+02  0.71263497345E+01  0.12236408943E+03  0.41800000000E+01 0. -1.
        -11    1    4    4    0    0  0.10099991549E+03 -0.87549775621E+01  0.12682763776E+03  0.16236650598E+03  0.00000000000E+00 0. -1.
         11    1    4    4    0    0  0.14778410676E+02 -0.44245764442E+02  0.36469287230E+02  0.59212312945E+02  0.00000000000E+00 0.  1.
</event>
<event>
 8    1  0.3654190E-009  0.8914486E+02  0.7561462E-02  0.1304936E+00
          2   -1    0    0  501    0  0.00000000000E+00  0.00000000000E+00  0.27312150817E+03  0.27312150817E+03  0.00000000000E+00 0. -1.
         -2   -1    0    0    0  501 -0.00000000000E+00 -0.00000000000E+00 -0.66535761623E+02  0.66535761623E+02  0.00000000000E+00 0.  1.
         25    2    1    2    0    0  0.73591816558E+02 -0.27965402442E+02  0.12030878147E+03  0.19057993177E+03  0.12509471731E+03 0.  0.
         23    2    1    2    0    0 -0.73591816558E+02  0.27965402442E+02  0.86276965071E+02  0.14907733801E+03  0.92641884746E+02 0.  0.
          5    1    3    3  502    0  0.18597579851E+02 -0.21455805803E+02  0.13092918973E+03  0.13403785549E+03  0.41800000000E+01 0. -1.
         -5    1    3    3    0  502  0.54994236706E+02 -0.65095966388E+01 -0.10620408262E+02  0.56542076288E+02  0.41800000000E+01 0. -1.
        -11    1    4    4    0    0 -0.64121782049E+02 -0.42770783146E+00  0.72008305181E+01  0.64526256882E+02  0.00000000000E+00 0.  1.
         11    1    4    4    0    0 -0.94700345087E+01  0.28393110273E+02  0.79076134553E+02  0.84551081131E+02  0.00000000000E+00 0. -1.
</event>
<event>
 8    1  0.3654190E-009  0.1464097E+03  0.7561462E-02  0.1204955E+00
         -1   -1    0    0    0  501 -0.00000000000E+00  0.00000000000E+00  0.97271875192E+02  0.97271875192E+02  0.00000000000E+00 0.  1.
          1   -1    0    0  501    0  0.00000000000E+00 -0.00000000000E+00 -0.24847621846E+03  0.24847621846E+03  0.00000000000E+00 0. -1.
         25    2    1    2    0    0  0.10327346621E+03  0.44413797318E+02 -0.85185665715E+02  0.18852627404E+03  0.12509022402E+03 0.  0.
         23    2    1    2    0    0 -0.10327346621E+03 -0.44413797318E+02 -0.66018677552E+02  0.15722181961E+03  0.87876279861E+02 0.  0.
          5    1    3    3  502    0  0.12582050421E+03  0.21887793832E+02 -0.41620930682E+02  0.13438619374E+03  0.41800000000E+01 0. -1.
         -5    1    3    3    0  502 -0.22547038002E+02  0.22526003487E+02 -0.43564735033E+02  0.54140080294E+02  0.41800000000E+01 0. -1.
        -11    1    4    4    0    0  0.82915372374E+01 -0.15606446751E+02  0.88961232006E+01  0.19785140332E+02  0.00000000000E+00 0.  1.
         11    1    4    4    0    0 -0.11156500344E+03 -0.28807350567E+02 -0.74914800753E+02  0.13743667928E+03  0.00000000000E+00 0. -1.
</event>
<event>
 8    1  0.3654190E-009  0.1657079E+03  0.7561462E-02  0.1182399E+00
         -2   -1    0    0    0  501 -0.00000000000E+00  0.00000000000E+00  0.11224335269E+03  0.11224335269E+03  0.00000000000E+00 0.  1.
          2   -1    0    0  501    0  0.00000000000E+00 -0.00000000000E+00 -0.29955617087E+03  0.29955617087E+03  0.00000000000E+00 0. -1.
         25    2    1    2    0    0  0.38208438297E+02 -0.13342733272E+03 -0.43730234691E+02  0.19189230618E+03  0.12509031086E+03 0.  0.
         23    2    1    2    0    0 -0.38208438297E+02  0.13342733272E+03 -0.14358258349E+03  0.21990721739E+03  0.92089565667E+02 0.  0.
          5    1    3    3  502    0 -0.18504942436E+02 -0.10378317155E+03  0.12962306271E+02  0.10629615880E+03  0.41800000000E+01 0.  1.
         -5    1    3    3    0  502  0.56713380732E+02 -0.29644161164E+02 -0.56692540962E+02  0.85596147378E+02  0.41800000000E+01 0.  1.
        -11    1    4    4    0    0  0.23052280433E+02  0.69579702520E+02 -0.39390447371E+02  0.83212679202E+02  0.00000000000E+00 0. -1.
         11    1    4    4    0    0 -0.61260718729E+02  0.63847630198E+02 -0.10419213611E+03  0.13669453818E+03  0.00000000000E+00 0.  1.
</event>
<event>
 8    1  0.3654190E-009  0.1355014E+03  0.7561462E-02  0.1219514E+00
         -1   -1    0    0    0  501 -0.00000000000E+00  0.00000000000E+00  0.27930160843E+02  0.27930160843E+02  0.00000000000E+00 0.  1.
          1   -1    0    0  501    0  0.00000000000E+00 -0.00000000000E+00 -0.85275884780E+03  0.85275884780E+03  0.00000000000E+00 0. -1.
         25    2    1    2    0    0 -0.40905670335E+02 -0.96715234848E+02 -0.54235144306E+03  0.56641038431E+03  0.12509406516E+03 0.  0.
         23    2    1    2    0    0  0.40905670335E+02  0.96715234848E+02 -0.28247724389E+03  0.31427862434E+03  0.89165856025E+02 0.  0.
          5    1    3    3  502    0  0.63503294773E+01 -0.10244980264E+03 -0.45878297741E+03  0.47014421352E+03  0.41800000000E+01 0.  1.
         -5    1    3    3    0  502 -0.47255999812E+02  0.57345677910E+01 -0.83568465657E+02  0.96266170789E+02  0.41800000000E+01 0.  1.
        -11    1    4    4    0    0  0.56028277111E+02  0.82527492019E+02 -0.27449834277E+03  0.29206043032E+03  0.00000000000E+00 0. -1.
         11    1    4    4    0    0 -0.15122606776E+02  0.14187742829E+02 -0.79789011234E+01  0.22218194018E+02  0.00000000000E+00 0.  1.
</event>
<event>
 8    1  0.3654190E-009  0.1289891E+03  0.7561462E-02  0.1228963E+00
         -1   -1    0    0    0  501 -0.00000000000E+00  0.00000000000E+00  0.60930282073E+02  0.60930282073E+02  0.00000000000E+00 0. -1.
          1   -1    0    0  501    0  0.00000000000E+00 -0.00000000000E+00 -0.34411383840E+03  0.34411383840E+03  0.00000000000E+00 0.  1.
         25    2    1    2    0    0  0.67304046925E+02  0.63121191943E+02 -0.18907406124E+03  0.24476737090E+03  0.12509174880E+03 0.  0.
         23    2    1    2    0    0 -0.67304046925E+02 -0.63121191943E+02 -0.94109495093E+02  0.16027674958E+03  0.91202630357E+02 0.  0.
          5    1    3    3  502    0 -0.14349584739E+01  0.74041859350E+02 -0.50782426360E+02  0.89892064548E+02  0.41800000000E+01 0. -1.
         -5    1    3    3    0  502  0.68739005399E+02 -0.10920667407E+02 -0.13829163488E+03  0.15487530635E+03  0.41800000000E+01 0. -1.
        -11    1    4    4    0    0 -0.78906929511E+02 -0.40589801205E+02 -0.10057287067E+03  0.13412210034E+03  0.00000000000E+00 0.  1.
         11    1    4    4    0    0  0.11602882585E+02 -0.22531390738E+02  0.64633755718E+01  0.26154649236E+02  0.00000000000E+00 0. -1.
</event>
<event>
 8    1  0.3654190E-009  0.7141718E+02  0.7561462E-02  0.1355339E+00
         -3   -1    0    0    0  501 -0.00000000000E+00  0.00000000000E+00  0.60742409948E+02  0.60742409948E+02  0.00000000000E+00 0.  1.
          3   -1    0    0  501    0  0.00000000000E+00 -0.00000000000E+00 -0.20125206866E+03  0.20125206866E+03  0.00000000000E+00 0. -1.
         25    2    1    2    0    0  0.13516826781E+02 -0.14726139386E+02 -0.80771044334E+02  0.15023317443E+03  0.12508589572E+03 0.  0.
         23    2    1    2    0    0 -0.13516826781E+02  0.14726139386E+02 -0.59738614378E+02  0.11176130418E+03  0.92316430153E+02 0.  0.
          5    1    3    3  502    0 -0.36502223493E+02  0.57261962519E+01  0.15074657175E+02  0.40123800074E+02  0.41800000000E+01 0.  1.
         -5    1    3    3    0  502  0.50019050273E+02 -0.20452335638E+02 -0.95845701510E+02  0.11010937436E+03  0.41800000000E+01 0.  1.
        -11    1    4    4    0    0  0.13669860550E+02  0.19533134656E+02 -0.76046530832E+02  0.79696193689E+02  0.00000000000E+00 0. -1.
         11    1    4    4    0    0 -0.27186687331E+02 -0.48069952702E+01  0.16307916454E+02  0.32065110488E+02  0.00000000000E+00 0.  1.
</event>
<event>
 8    1  0.3654190E-009  0.1043725E+03  0.7561462E-02  0.1271361E+00
          1   -1    0    0  501    0  0.00000000000E+00  0.00000000000E+00  0.11345382767E+03  0.11345382767E+03  0.00000000000E+00 0. -1.
         -1   -1    0    0    0  501 -0.00000000000E+00 -0.00000000000E+00 -0.10524448344E+03  0.10524448344E+03  0.00000000000E+00 0.  1.
         25    2    1    2    0    0 -0.10455176460E+02 -0.60520533473E+01  0.43791026158E+01  0.12574249641E+03  0.12508421483E+03 0.  0.
         23    2    1    2    0    0  0.10455176460E+02  0.60520533473E+01  0.38302416122E+01  0.92955814702E+02  0.92087863867E+02 0.  0.
          5    1    3    3  502    0  0.41859687320E+02 -0.42744542386E+02  0.12289017215E+02  0.61219454999E+02  0.41800000000E+01 0. -1.
         -5    1    3    3    0  502 -0.52314863780E+02  0.36692489038E+02 -0.79099145989E+01  0.64523041413E+02  0.41800000000E+01 0. -1.
        -11    1    4    4    0    0 -0.12474349892E+02 -0.35306684285E+02 -0.17192578011E+02  0.41203835975E+02  0.00000000000E+00 0.  1.
         11    1    4    4    0    0  0.22929526351E+02  0.41358737632E+02  0.21022819623E+02  0.51751978727E+02  0.00000000000E+00 0. -1.
</event>
<event>
 8    1  0.3654190E-009  0.9398766E+02  0.7561462E-02  0.1293473E+00
          3   -1    0    0  501    0  0.00000000000E+00  0.00000000000E+00  0.68565686863E+02  0.68565686863E+02  0.00000000000E+00 0. -1.
         -3   -1    0    0    0  501 -0.00000000000E+00 -0.00000000000E+00 -0.17379013096E+03  0.17379013096E+03  0.00000000000E+00 0.  1.
         25    2    1    2    0    0 -0.11614797100E+02 -0.15339086148E+02 -0.48063301302E+02  0.13537975367E+03  0.12508959068E+03 0.  0.
         23    2    1    2    0    0  0.11614797100E+02  0.15339086148E+02 -0.57161142790E+02  0.10697606414E+03  0.88353217141E+02 0.  0.
          5    1    3    3  502    0 -0.47551464995E+02  0.22076876095E+02  0.13958135811E+02  0.54413529904E+02  0.41800000000E+01 0.  1.
         -5    1    3    3    0  502  0.35936667895E+02 -0.37415962242E+02 -0.62021437113E+02  0.80966223770E+02  0.41800000000E+01 0.  1.
        -11    1    4    4    0    0  0.55327393673E+01  0.48908160507E+02 -0.12512704466E+02  0.50785698205E+02  0.00000000000E+00 0. -1.
         11    1    4    4    0    0  0.60820577329E+01 -0.33569074360E+02 -0.44648438324E+02  0.56190365940E+02  0.00000000000E+00 0.  1.
</event>
<event>
 8    1  0.3654190E-009  0.9997051E+02  0.7561462E-02  0.1280358E+00
         -3   -1    0    0    0  501 -0.00000000000E+00  0.00000000000E+00  0.17549122060E+02  0.17549122060E+02  0.00000000000E+00 0.  1.
          3   -1    0    0  501    0  0.00000000000E+00 -0.00000000000E+00 -0.88920824250E+03  0.88920824250E+03  0.00000000000E+00 0. -1.
         25    2    1    2    0    0  0.20646268455E+02 -0.46124424417E+02 -0.36068289082E+03  0.38508849712E+03  0.12508905608E+03 0.  0.
         23    2    1    2    0    0 -0.20646268455E+02  0.46124424417E+02 -0.51097622962E+03  0.52166886744E+03  0.92130174718E+02 0.  0.
          5    1    3    3  502    0 -0.20660222873E+02  0.11512026203E+02 -0.26413883945E+03  0.26522852498E+03  0.41800000000E+01 0. -1.
         -5    1    3    3    0  502  0.41306491328E+02 -0.57636450620E+02 -0.96544051373E+02  0.11985997214E+03  0.41800000000E+01 0. -1.
        -11    1    4    4    0    0 -0.23773032948E+02 -0.24534343697E+02 -0.15208953311E+03  0.15587917500E+03  0.00000000000E+00 0.  1.
         11    1    4    4    0    0  0.31267644933E+01  0.70658768115E+02 -0.35888669651E+03  0.36578969244E+03  0.00000000000E+00 0. -1.
</event>
<event>
 8    1  0.3654190E-009  0.1162066E+03  0.7561462E-02  0.1249490E+00
          2   -1    0    0  501    0  0.00000000000E+00  0.00000000000E+00  0.11765439115E+03  0.11765439115E+03  0.00000000000E+00 0. -1.
         -2   -1    0    0    0  501 -0.00000000000E+00 -0.00000000000E+00 -0.16689950817E+03  0.16689950817E+03  0.00000000000E+00 0.  1.
         25    2    1    2    0    0  0.53846837849E+02 -0.63539774250E+02 -0.51953062525E+02  0.15900628397E+03  0.12508833990E+03 0.  0.
         23    2    1    2    0    0 -0.53846837849E+02  0.63539774250E+02  0.27079455091E+01  0.12554761535E+03  0.93904663846E+02 0.  0.
          5    1    3    3  502    0  0.27821407936E+02 -0.73554046032E+02  0.20402260487E+02  0.81350802456E+02  0.41800000000E+01 0.  1.
         -5    1    3    3    0  502  0.26025429913E+02  0.10014271782E+02 -0.72355323012E+02  0.77655481518E+02  0.41800000000E+01 0.  1.
        -11    1    4    4    0    0 -0.70214876828E+02  0.77048147840E+02  0.87703124559E+00  0.10424641575E+03  0.00000000000E+00 0.  1.
         11    1    4    4    0    0  0.16368038979E+02 -0.13508373590E+02  0.18309142635E+01  0.21301199593E+02  0.00000000000E+00 0. -1.
</event>
<event>
 8    1  0.3654190E-009  0.2609725E+03  0.7561462E-02  0.1106560E+00
          2   -1    0    0  501    0  0.00000000000E+00  0.00000000000E+00  0.10774953610E+04  0.10774953610E+04  0.00000000000E+00 0. -1.
         -2   -1    0    0    0  501 -0.00000000000E+00 -0.00000000000E+00 -0.19042976818E+03  0.19042976818E+03  0.00000000000E+00 0.  1.
         25    2    1    2    0    0  0.48274252085E+02 -0.24166037211E+03 -0.61988181708E+02  0.28323389495E+03  0.12509502674E+03 0.  0.
         23    2    1    2    0    0 -0.48274252085E+02  0.24166037211E+03  0.94905377456E+03  0.98469123425E+03  0.90463367981E+02 0.  0.
          5    1    3    3  502    0  0.71253758255E+02 -0.17867850650E+03 -0.87513328060E+02  0.21137445858E+03  0.41800000000E+01 0. -1.
         -5    1    3    3    0  502 -0.22979506169E+02 -0.62981865608E+02  0.25525146353E+02  0.71859436371E+02  0.41800000000E+01 0. -1.
        -11    1    4    4    0    0  0.23207464322E+02  0.11128346908E+03  0.39479351221E+03  0.41083392529E+03  0.00000000000E+00 0.  1.
         11    1    4    4    0    0 -0.71481716407E+02  0.13037690303E+03  0.55426026235E+03  0.57385730896E+03  0.00000000000E+00 0. -1.
</event>
<event>
 8    1  0.3654190E-009  0.1392560E+03  0.7561462E-02  0.1214334E+00
          3   -1    0    0  501    0  0.00000000000E+00  0.00000000000E+00  0.30591383720E+03  0.30591383720E+03  0.00000000000E+00 0. -1.
         -3   -1    0    0    0  501 -0.00000000000E+00 -0.00000000000E+00 -0.85092965071E+02  0.85092965071E+02  0.00000000000E+00 0.  1.
         25    2    1    2    0    0  0.17298077094E+02 -0.98007549570E+02  0.37263789589E+02  0.16413908619E+03  0.12509335057E+03 0.  0.
         23    2    1    2    0    0 -0.17298077094E+02  0.98007549570E+02  0.18355708254E+03  0.22686771608E+03  0.88718965304E+02 0.  0.
          5    1    3    3  502    0  0.62583323769E+02 -0.91371163764E+02  0.40667720137E+02  0.11805379216E+03  0.41800000000E+01 0. -1.
         -5    1    3    3    0  502 -0.45285246675E+02 -0.66363858058E+01 -0.34039305474E+01  0.46085294034E+02  0.41800000000E+01 0. -1.
        -11    1    4    4    0    0 -0.44487528395E+02  0.53629661503E+02  0.14873494379E+03  0.16424787451E+03  0.00000000000E+00 0. -1.
         11    1    4    4    0    0  0.27189451301E+02  0.44377888067E+02  0.34822138745E+02  0.62619841569E+02  0.00000000000E+00 0.  1.
</event>
<event>
 8    1  0.3654190E-009  0.1529736E+03  0.7561462E-02  0.1196866E+00
          1   -1    0    0  501    0  0.00000000000E+00  0.00000000000E+00  0.43468960673E+03  0.43468960673E+03  0.00000000000E+00 0. -1.
         -1   -1    0    0    0  501 -0.00000000000E+00 -0.00000000000E+00 -0.65372571923E+02  0.65372571923E+02  0.00000000000E+00 0.  1.
         25    2    1    2    0    0 -0.76014600539E+02  0.89784260396E+02  0.27568929483E+03  0.32479459144E+03  0.12508999333E+03 0.  0.
         23    2    1    2    0    0  0.76014600539E+02 -0.89784260396E+02  0.93627739975E+02  0.17526758722E+03  0.90072973338E+02 0.  0.
          5    1    3    3  502    0 -0.93899920884E+02  0.10980679268E+03  0.23299577747E+03  0.27418831408E+03  0.41800000000E+01 0.  1.
         -5    1    3    3    0  502  0.17885320345E+02 -0.20022532282E+02  0.42693517368E+02  0.50606277359E+02  0.41800000000E+01 0.  1.
        -11    1    4    4    0    0  0.85027266426E+02 -0.62572839166E+02  0.37121244276E+02  0.11190613484E+03  0.00000000000E+00 0.  1.
         11    1    4    4    0    0 -0.90126658871E+01 -0.27211421231E+02  0.56506495699E+02  0.63361452382E+02  0.00000000000E+00 0. -1.
</event>
<event>
 8    1  0.3654190E-009  0.1473006E+03  0.7561462E-02  0.1203830E+00
          2   -1    0    0  501    0  0.00000000000E+00  0.00000000000E+00  0.20848311566E+03  0.20848311566E+03  0.00000000000E+00 0. -1.
         -2   -1    0    0    0  501 -0.00000000000E+00 -0.00000000000E+00 -0.14199576637E+03  0.14199576637E+03  0.00000000000E+00 0.  1.
         25    2    1    2    0    0 -0.63733731537E+02  0.93808426916E+02  0.10746475426E+03  0.20014468757E+03  0.12508882067E+03 0.  0.
         23    2    1    2    0    0  0.63733731537E+02 -0.93808426916E+02 -0.40977404975E+02  0.15033419447E+03  0.89773118535E+02 0.  0.
          5    1    3    3  502    0 -0.66985862625E+02  0.11768741210E+03  0.63033609204E+02  0.14942603872E+03  0.41800000000E+01 0. -1.
         -5    1    3    3    0  502  0.32521310881E+01 -0.23878985182E+02  0.44431145057E+02  0.50718648849E+02  0.41800000000E+01 0. -1.
        -11    1    4    4    0    0 -0.14537076145E+02 -0.31238347797E+02  0.12620825594E+02  0.36693953107E+02  0.00000000000E+00 0. -1.
         11    1    4    4    0    0  0.78270807682E+02 -0.62570079119E+02 -0.53598230569E+02  0.11364024136E+03  0.00000000000E+00 0.  1.
</event>
<event>
 8    1  0.3654190E-009  0.1607060E+03  0.7561462E-02  0.1187902E+00
         -2   -1    0    0    0  501 -0.00000000000E+00  0.00000000000E+00  0.11480006542E+03  0.11480006542E+03  0.00000000000E+00 0.  1.
          2   -1    0    0  501    0  0.00000000000E+00 -0.00000000000E+00 -0.77001045578E+03  0.77001045578E+03  0.00000000000E+00 0. -1.
         25    2    1    2    0    0 -0.38409308091E+02 -0.14435779209E+03  0.11692722440E+02  0.19518822987E+03  0.12508908120E+03 0.  0.
         23    2    1    2    0    0  0.38409308091E+02  0.14435779209E+03 -0.66690311280E+03  0.68962229133E+03  0.92220907299E+02 0.  0.
          5    1    3    3  502    0  0.26196583840E+02 -0.35953568641E+02  0.46221592237E+02  0.64287075620E+02  0.41800000000E+01 0.  1.
         -5    1    3    3    0  502 -0.64605891932E+02 -0.10840422345E+03 -0.34528869797E+02  0.13090115425E+03  0.41800000000E+01 0.  1.
        -11    1    4    4    0    0 -0.60488155231E-01  0.26266643253E+02 -0.26593272316E+02  0.37378367261E+02  0.00000000000E+00 0.  1.
         11    1    4    4    0    0  0.38469796247E+02  0.11809114884E+03 -0.64030984048E+03  0.65224392406E+03  0.00000000000E+00 0. -1.
</event>
<event>
 8    1  0.3654190E-009  0.1443032E+03  0.7561462E-02  0.1207653E+00
          1   -1    0    0  501    0  0.00000000000E+00  0.00000000000E+00  0.35527887726E+03  0.35527887726E+03  0.00000000000E+00 0. -1.
         -1   -1    0    0    0  501 -0.00000000000E+00 -0.00000000000E+00 -0.71741704313E+02  0.71741704313E+02  0.00000000000E+00 0.  1.
         25    2    1    2    0    0  0.76177814833E+02  0.88250416022E+02  0.16503745040E+03  0.23764214868E+03  0.12508091539E+03 0.  0.
         23    2    1    2    0    0 -0.76177814833E+02 -0.88250416022E+02  0.11849972255E+03  0.18937843289E+03  0.90723818259E+02 0.  0.
          5    1    3    3  502    0 -0.10864905456E+02  0.73163730903E+02  0.39144743399E+02  0.83789981656E+02  0.41800000000E+01 0. -1.
         -5    1    3    3    0  502  0.87042720288E+02  0.15086685119E+02  0.12589270700E+03  0.15385216703E+03  0.41800000000E+01 0. -1.
        -11    1    4    4    0    0 -0.15449019194E+02 -0.54412542104E+02  0.56643333449E+01  0.56846122159E+02  0.00000000000E+00 0.  1.
         11    1    4    4    0    0 -0.60728795639E+02 -0.33837873918E+02  0.11283538921E+03  0.13253231073E+03  0.00000000000E+00 0. -1.
</event>
<event>
 8    1  0.3654190E-009  0.9381299E+02  0.7561462E-02  0.1293872E+00
         -2   -1    0    0    0  501 -0.00000000000E+00  0.00000000000E+00  0.39761638283E+03  0.39761638283E+03  0.00000000000E+00 0.  1.
          2   -1    0    0  501    0  0.00000000000E+00 -0.00000000000E+00 -0.43257920142E+02  0.43257920142E+02  0.00000000000E+00 0. -1.
         25    2    1    2    0    0  0.48197385621E+02 -0.77840367884E+01  0.28319252372E+03  0.31341603577E+03  0.12509207319E+03 0.  0.
         23    2    1    2    0    0 -0.48197385621E+02  0.77840367884E+01  0.71165938968E+02  0.12745826721E+03  0.93794668295E+02 0.  0.
          5    1    3    3  502    0 -0.16636006421E+02  0.17837525477E+02  0.21288257186E+03  0.21431611192E+03  0.41800000000E+01 0. -1.
         -5    1    3    3    0  502  0.64833392042E+02 -0.25621562266E+02  0.70309951856E+02  0.99099923848E+02  0.41800000000E+01 0. -1.
        -11    1    4    4    0    0 -0.43796799632E+02  0.40726446437E+02  0.14141452218E+02  0.61455543023E+02  0.00000000000E+00 0. -1.
         11    1    4    4    0    0 -0.44005859893E+01 -0.32942409649E+02  0.57024486750E+02  0.66002724183E+02  0.00000000000E+00 0.  1.
</event>
<event>
 8    1  0.3654190E-009  0.1102618E+03  0.7561462E-02  0.1260086E+00
         -2   -1    0    0    0  501 -0.00000000000E+00  0.00000000000E+00  0.51028066534E+02  0.51028066534E+02  0.00000000000E+00 0.  1.
          2   -1    0    0  501    0  0.00000000000E+00 -0.00000000000E+00 -0.33622531251E+03  0.33622531251E+03  0.00000000000E+00 0. -1.
         25    2    1    2    0    0  0.28691776991E+02  0.15581628174E+02 -0.25193673160E+03  0.28317081365E+03  0.12509031846E+03 0.  0.
         23    2    1    2    0    0 -0.28691776991E+02 -0.15581628174E+02 -0.33260514378E+02  0.10408256539E+03  0.93064028490E+02 0.  0.
          5    1    3    3  502    0  0.76211653410E+02  0.22939033168E+02 -0.17582074678E+03  0.19304098724E+03  0.41800000000E+01 0. -1.
         -5    1    3    3    0  502 -0.47519876419E+02 -0.73574049939E+01 -0.76115984826E+02  0.90129826412E+02  0.41800000000E+01 0. -1.
        -11    1    4    4    0    0 -0.23739966159E+02  0.34693875142E+02  0.26171142529E+01  0.42120069475E+02  0.00000000000E+00 0. -1.
         11    1    4    4    0    0 -0.49518108322E+01 -0.50275503317E+02 -0.35877628630E+02  0.61962495918E+02  0.00000000000E+00 0.  1.
</event>
<event>
 8    1  0.3654190E-009  0.2783860E+03  0.7561462E-02  0.1096574E+00
         -2   -1    0    0    0  501 -0.00000000000E+00  0.00000000000E+00  0.50373657646E+02  0.50373657646E+02  0.00000000000E+00 0.  1.
          2   -1    0    0  501    0  0.00000000000E+00 -0.00000000000E+00 -0.17228833051E+04  0.17228833051E+04  0.00000000000E+00 0. -1.
         25    2    1    2    0    0 -0.23964757044E+03  0.13094136402E+03 -0.86491897380E+03  0.91559191219E+03  0.12508844706E+03 0.  0.
         23    2    1    2    0    0  0.23964757044E+03 -0.13094136402E+03 -0.80759067363E+03  0.85766505054E+03  0.93861834375E+02 0.  0.
          5    1    3    3  502    0 -0.23154518010E+03  0.13397214227E+03 -0.86555757230E+03  0.90596307248E+03  0.41800000000E+01 0.  1.
         -5    1    3    3    0  502 -0.81023903378E+01 -0.30307782511E+01  0.63859849876E+00  0.96288397035E+01  0.41800000000E+01 0.  1.
        -11    1    4    4    0    0  0.19475988624E+03 -0.76956719045E+02 -0.49847509920E+03  0.54067658949E+03  0.00000000000E+00 0. -1.
         11    1    4    4    0    0  0.44887684197E+02 -0.53984644977E+02 -0.30911557443E+03  0.31698846105E+03  0.00000000000E+00 0.  1.
</event>
<event>
 8    1  0.3654190E-009  0.1010130E+03  0.7561462E-02  0.1278180E+00
         -1   -1    0    0    0  501 -0.00000000000E+00  0.00000000000E+00  0.70093293941E+03  0.70093293941E+03  0.00000000000E+00 0.  1.
          1   -1    0    0  501    0  0.00000000000E+00 -0.00000000000E+00 -0.21282651741E+02  0.21282651741E+02  0.00000000000E+00 0. -1.
         25    2    1    2    0    0  0.53309261462E+02 -0.24366459949E+02  0.39527486880E+03  0.41871894024E+03  0.12509087610E+03 0.  0.
         23    2    1    2    0    0 -0.53309261462E+02  0.24366459949E+02  0.28437541887E+03  0.30349665091E+03  0.88347249701E+02 0.  0.
          5    1    3    3  502    0  0.60395455656E+02  0.20456429921E+02  0.91860417417E+02  0.11190123001E+03  0.41800000000E+01 0. -1.
         -5    1    3    3    0  502 -0.70861941945E+01 -0.44822889870E+02  0.30341445139E+03  0.30681771024E+03  0.41800000000E+01 0. -1.
        -11    1    4    4    0    0 -0.46788366220E+02 -0.17668949953E+02  0.22478164431E+03  0.23027837637E+03  0.00000000000E+00 0.  1.
         11    1    4    4    0    0 -0.65208952416E+01  0.42035409902E+02  0.59593774559E+02  0.73218274539E+02  0.00000000000E+00 0. -1.
</event>
<event>
 8    1  0.3654190E-009  0.1026274E+03  0.7561462E-02  0.1274866E+00
          1   -1    0    0  501    0  0.00000000000E+00  0.00000000000E+00  0.12102868723E+03  0.12102868723E+03  0.00000000000E+00 0. -1.
         -1   -1    0    0    0  501 -0.00000000000E+00 -0.00000000000E+00 -0.14346760082E+03  0.14346760082E+03  0.00000000000E+00 0.  1.
         25    2    1    2    0    0  0.23513708410E+02  0.35976471157E+02  0.47935152987E+02  0.14068580492E+03  0.12509003099E+03 0.  0.
         23    2    1    2    0    0 -0.23513708410E+02 -0.35976471157E+02 -0.70374066579E+02  0.12381048313E+03  0.92354347631E+02 0.  0.
          5    1    3    3  502    0  0.42538789464E+02  0.71580385405E+02  0.80098304910E+01  0.83755178755E+02  0.41800000000E+01 0.  1.
         -5    1    3    3    0  502 -0.19025081054E+02 -0.35603914248E+02  0.39925322496E+02  0.56930626163E+02  0.41800000000E+01 0.  1.
        -11    1    4    4    0    0  0.16879920234E+02  0.10377763824E+02 -0.57734429500E+02  0.61040101890E+02  0.00000000000E+00 0.  1.
         11    1    4    4    0    0 -0.40393628644E+02 -0.46354234981E+02 -0.12639637079E+02  0.62770381241E+02  0.00000000000E+00 0. -1.
</event>
<event>
 8    1  0.3654190E-009  0.7961052E+02  0.7561462E-02  0.1330160E+00
          1   -1    0    0  501    0  0.00000000000E+00  0.00000000000E+00  0.40081679712E+03  0.40081679712E+03  0.00000000000E+00 0. -1.
         -1   -1    0    0    0  501 -0.00000000000E+00 -0.00000000000E+00 -0.31074764275E+02  0.31074764275E+02  0.00000000000E+00 0.  1.
         25    2    1    2    0    0 -0.13119750571E+02 -0.26037984125E+02  0.21433866460E+03  0.24987884852E+03  0.12509305066E+03 0.  0.
         23    2    1    2    0    0  0.13119750571E+02  0.26037984125E+02  0.15540336825E+03  0.18201271288E+03  0.90157175608E+02 0.  0.
          5    1    3    3  502    0 -0.44789283060E+02 -0.24134261456E+02  0.21170153525E+03  0.21776949942E+03  0.41800000000E+01 0.  1.
         -5    1    3    3    0  502  0.31669532489E+02 -0.19037226689E+01  0.26371293500E+01  0.32109349095E+02  0.41800000000E+01 0.  1.
        -11    1    4    4    0    0  0.41674957803E+02  0.22603177402E+02  0.36923741247E+02  0.60092165914E+02  0.00000000000E+00 0.  1.
         11    1    4    4    0    0 -0.28555207233E+02  0.34348067230E+01  0.11847962700E+03  0.12192054697E+03  0.00000000000E+00 0. -1.
</event>
<event>
 8    1  0.3654190E-009  0.9189262E+02  0.7561462E-02  0.1298332E+00
         -1   -1    0    0    0  501 -0.00000000000E+00  0.00000000000E+00  0.66628696918E+03  0.66628696918E+03  0.00000000000E+00 0.  1.
          1   -1    0    0  501    0  0.00000000000E+00 -0.00000000000E+00 -0.27173379524E+02  0.27173379524E+02  0.00000000000E+00 0. -1.
         25    2    1    2    0    0 -0.10497601672E+02  0.18660711969E+02  0.54395640654E+03  0.55856343352E+03  0.12508443244E+03 0.  0.
         23    2    1    2    0    0  0.10497601672E+02 -0.18660711969E+02  0.95157183113E+02  0.13489691518E+03  0.93187265307E+02 0.  0.
          5    1    3    3  502    0 -0.38106571605E+01  0.57006989769E+02  0.12184228099E+03  0.13463778009E+03  0.41800000000E+01 0.  1.
         -5    1    3    3    0  502 -0.66869445118E+01 -0.38346277800E+02  0.42211412555E+03  0.42392565343E+03  0.41800000000E+01 0.  1.
        -11    1    4    4    0    0  0.37911950066E+02  0.17677083126E+02  0.18489540272E+02  0.45734651252E+02  0.00000000000E+00 0. -1.
         11    1    4    4    0    0 -0.27414348394E+02 -0.36337795095E+02  0.76667642842E+02  0.89162263930E+02  0.00000000000E+00 0.  1.
</event>
<event>
 8    1  0.3654190E-009  0.1158282E+03  0.7561462E-02  0.1250142E+00
         -1   -1    0    0    0  501 -0.00000000000E+00  0.00000000000E+00  0.42715423188E+02  0.42715423188E+02  0.00000000000E+00 0.  1.
          1   -1    0    0  501    0  0.00000000000E+00 -0.00000000000E+00 -0.52222587213E+03  0.52222587213E+03  0.00000000000E+00 0. -1.
         25    2    1    2    0    0  0.73312478747E+02 -0.65091718740E+02 -0.20190972542E+03  0.25695612889E+03  0.12508902257E+03 0.  0.
         23    2    1    2    0    0 -0.73312478747E+02  0.65091718740E+02 -0.27760072353E+03  0.30798516643E+03  0.90449155056E+02 0.  0.
          5    1    3    3  502    0  0.18452177590E+02  0.92649236592E+01 -0.14882188076E+03  0.15030550975E+03  0.41800000000E+01 0. -1.
         -5    1    3    3    0  502  0.54860301157E+02 -0.74356642400E+02 -0.53087844653E+02  0.10665061914E+03  0.41800000000E+01 0. -1.
        -11    1    4    4    0    0 -0.40540221070E+02  0.73782100899E+02 -0.11879656133E+03  0.14560196057E+03  0.00000000000E+00 0.  1.
         11    1    4    4    0    0 -0.32772257678E+02 -0.86903821590E+01 -0.15880416220E+03  0.16238320586E+03  0.00000000000E+00 0. -1.
</event>
<event>
 8    1  0.3654190E-009  0.2203894E+03  0.7561462E-02  0.1133593E+00
          1   -1    0    0  501    0  0.00000000000E+00  0.00000000000E+00  0.13391915375E+04  0.13391915375E+04  0.00000000000E+00 0. -1.
         -1   -1    0    0    0  501 -0.00000000000E+00 -0.00000000000E+00 -0.59615107360E+02  0.59615107360E+02  0.00000000000E+00 0.  1.
         25    2    1    2    0    0 -0.17908581736E+03  0.75999525823E+02  0.22488080266E+03  0.32259275959E+03  0.12508818980E+03 0.  0.
         23    2    1    2    0    0  0.17908581736E+03 -0.75999525823E+02  0.10546956275E+04  0.10762138853E+04  0.89475149191E+02 0.  0.
          5    1    3    3  502    0 -0.12667339662E+03  0.10789025509E+03  0.13834809102E+03  0.21643503239E+03  0.41800000000E+01 0.  1.
         -5    1    3    3    0  502 -0.52412420739E+02 -0.31890729265E+02  0.86532711639E+02  0.10615772720E+03  0.41800000000E+01 0.  1.
        -11    1    4    4    0    0  0.34881237351E+02 -0.57774581620E+02  0.28171205468E+03  0.28968307640E+03  0.00000000000E+00 0.  1.
         11    1    4    4    0    0  0.14420458001E+03 -0.18224944203E+02  0.77298357281E+03  0.78653080889E+03  0.00000000000E+00 0. -1.
</event>
<event>
 8    1  0.3654190E-009  0.1041884E+03  0.7561462E-02  0.1271727E+00
          1   -1    0    0  501    0  0.00000000000E+00  0.00000000000E+00  0.37481270704E+02  0.37481270704E+02  0.00000000000E+00 0. -1.
         -1   -1    0    0    0  501 -0.00000000000E+00 -0.00000000000E+00 -0.51905290609E+03  0.51905290609E+03  0.00000000000E+00 0.  1.
         25    2    1    2    0    0  0.40667924946E+02 -0.54596911033E+02 -0.15428343889E+03  0.20996571239E+03  0.12509003977E+03 0.  0.
         23    2    1    2    0    0 -0.40667924946E+02  0.54596911033E+02 -0.32728819650E+03  0.34656846441E+03  0.91419003172E+02 0.  0.
          5    1    3    3  502    0 -0.32013635498E+01 -0.68927362423E+02 -0.26489747823E+02  0.74029785620E+02  0.41800000000E+01 0.  1.
         -5    1    3    3    0  502  0.43869288496E+02  0.14330451390E+02 -0.12779369106E+03  0.13593592677E+03  0.41800000000E+01 0.  1.
        -11    1    4    4    0    0 -0.52373607203E+01 -0.14413171327E+02 -0.67116184775E+01  0.16739631944E+02  0.00000000000E+00 0.  1.
         11    1    4    4    0    0 -0.35430564226E+02  0.69010082361E+02 -0.32057657803E+03  0.32982883247E+03  0.00000000000E+00 0. -1.
</event>
<event>
 8    1  0.3654190E-009  0.1186406E+03  0.7561462E-02  0.1245357E+00
          2   -1    0    0  501    0  0.00000000000E+00  0.00000000000E+00  0.90901377579E+03  0.90901377579E+03  0.00000000000E+00 0. -1.
         -2   -1    0    0    0  501 -0.00000000000E+00 -0.00000000000E+00 -0.19393028791E+02  0.19393028791E+02  0.00000000000E+00 0.  1.
         25    2    1    2    0    0 -0.11044923319E+02  0.67236064239E+02  0.37600547855E+03  0.40208206472E+03  0.12508872133E+03 0.  0.
         23    2    1    2    0    0  0.11044923319E+02 -0.67236064239E+02  0.51361526845E+03  0.52632473986E+03  0.92598105495E+02 0.  0.
          5    1    3    3  502    0 -0.27515423736E+02  0.89932850356E+02  0.35367943583E+03  0.36599403252E+03  0.41800000000E+01 0.  1.
         -5    1    3    3    0  502  0.16470500417E+02 -0.22696786117E+02  0.22326042722E+02  0.36088032194E+02  0.41800000000E+01 0.  1.
        -11    1    4    4    0    0  0.44215629925E+02 -0.68570196908E+02  0.37802647094E+03  0.38673105198E+03  0.00000000000E+00 0.  1.
         11    1    4    4    0    0 -0.33170706606E+02  0.13341326693E+01  0.13558879751E+03  0.13959368789E+03  0.00000000000E+00 0. -1.
</event>
<event>
 8    1  0.3654190E-009  0.8408781E+02  0.7561462E-02  0.1317835E+00
          1   -1    0    0  501    0  0.00000000000E+00  0.00000000000E+00  0.63886977983E+03  0.63886977983E+03  0.00000000000E+00 0. -1.
         -1   -1    0    0    0  501 -0.00000000000E+00 -0.00000000000E+00 -0.34306323991E+02  0.34306323991E+02  0.00000000000E+00 0.  1.
         25    2    1    2    0    0 -0.45526999939E+02  0.63915453673E+01  0.52241777413E+03  0.53914903608E+03  0.12509113797E+03 0.  0.
         23    2    1    2    0    0  0.45526999939E+02 -0.63915453673E+01  0.82145681705E+02  0.13402706774E+03  0.95403261417E+02 0.  0.
          5    1    3    3  502    0 -0.39766534265E+02  0.38926581945E+02  0.93116625867E+02  0.10855797733E+03  0.41800000000E+01 0. -1.
         -5    1    3    3    0  502 -0.57604656734E+01 -0.32535036577E+02  0.42930114827E+03  0.43059105875E+03  0.41800000000E+01 0. -1.
        -11    1    4    4    0    0 -0.15297632185E+02  0.69401324947E+01 -0.12357235005E+02  0.20853878451E+02  0.00000000000E+00 0.  1.
         11    1    4    4    0    0  0.60824632123E+02 -0.13331677862E+02  0.94502916710E+02  0.11317318929E+03  0.00000000000E+00 0. -1.
</event>
<event>
 8    1  0.3654190E-009  0.1141067E+03  0.7561462E-02  0.1253148E+00
          1   -1    0    0  501    0  0.00000000000E+00  0.00000000000E+00  0.62409446965E+03  0.62409446965E+03  0.00000000000E+00 0. -1.
         -1   -1    0    0    0  501 -0.00000000000E+00 -0.00000000000E+00 -0.32749202385E+02  0.32749202385E+02  0.00000000000E+00 0.  1.
         25    2    1    2    0    0  0.14395248055E+02  0.47311058375E+02  0.50311723723E+03  0.52078783127E+03  0.12508977335E+03 0.  0.
         23    2    1    2    0    0 -0.14395248055E+02 -0.47311058375E+02  0.88228030034E+02  0.13605584076E+03  0.91002456612E+02 0.  0.
          5    1    3    3  502    0 -0.22278996238E+02 -0.30877292742E+02  0.25886257816E+03  0.26168123290E+03  0.41800000000E+01 0.  1.
         -5    1    3    3    0  502  0.36674244293E+02  0.78188351118E+02  0.24425465907E+03  0.25910659838E+03  0.41800000000E+01 0.  1.
        -11    1    4    4    0    0 -0.27371342596E+02 -0.71189050466E+02  0.67946868799E+02  0.10214621031E+03  0.00000000000E+00 0. -1.
         11    1    4    4    0    0  0.12976094541E+02  0.23877992091E+02  0.20281161235E+02  0.33909630444E+02  0.00000000000E+00 0.  1.
</event>
<event>
 8    1  0.3654190E-009  0.9381985E+02  0.7561462E-02  0.1293856E+00
         -2   -1    0    0    0  501 -0.00000000000E+00  0.00000000000E+00  0.43526558700E+02  0.43526558700E+02  0.00000000000E+00 0.  1.
          2   -1    0    0  501    0  0.00000000000E+00 -0.00000000000E+00 -0.95343087950E+03  0.95343087950E+03  0.00000000000E+00 0. -1.
         25    2    1    2    0    0  0.36417029337E+02  0.27608424443E+02 -0.87653633883E+03  0.88659523675E+03  0.12508691141E+03 0.  0.
         23    2    1    2    0    0 -0.36417029337E+02 -0.27608424443E+02 -0.33367981970E+02  0.11036220145E+03  0.94752140676E+02 0.  0.
          5    1    3    3  502    0  0.23793746167E+02 -0.46065867460E+02 -0.49928658694E+03  0.50198881939E+03  0.41800000000E+01 0. -1.
         -5    1    3    3    0  502  0.12623283170E+02  0.73674291903E+02 -0.37724975190E+03  0.38460641736E+03  0.41800000000E+01 0. -1.
        -11    1    4    4    0    0 -0.21376336906E+02  0.74282908636E+01 -0.59819246651E+02  0.63956778801E+02  0.00000000000E+00 0. -1.
         11    1    4    4    0    0 -0.15040692431E+02 -0.35036715307E+02  0.26451264681E+02  0.46405422652E+02  0.00000000000E+00 0.  1.
</event>
<event>
 8    1  0.3654190E-009  0.1246833E+03  0.7561462E-02  0.1235565E+00
         -2   -1    0    0    0  501 -0.00000000000E+00  0.00000000000E+00  0.73142754571E+02  0.73142754571E+02  0.00000000000E+00 0. -1.
          2   -1    0    0  501    0  0.00000000000E+00 -0.00000000000E+00 -0.27155546261E+03  0.27155546261E+03  0.00000000000E+00 0.  1.
         25    2    1    2    0    0 -0.48750776420E+02  0.73207845637E+02 -0.91524379514E+02  0.17821229856E+03  0.12508750716E+03 0.  0.
         23    2    1    2    0    0  0.48750776420E+02 -0.73207845637E+02 -0.10688832852E+03  0.16648591862E+03  0.92500915993E+02 0.  0.
          5    1    3    3  502    0  0.16053266369E+02 -0.23977764124E+02 -0.42323100724E+02  0.51394141576E+02  0.41800000000E+01 0.  1.
         -5    1    3    3    0  502 -0.64804042789E+02  0.97185609760E+02 -0.49201278790E+02  0.12681815698E+03  0.41800000000E+01 0.  1.
        -11    1    4    4    0    0  0.52856925703E+02 -0.31740397003E+02 -0.10848948493E+03  0.12478491791E+03  0.00000000000E+00 0.  1.
         11    1    4    4    0    0 -0.41061492828E+01 -0.41467448633E+02  0.16011564128E+01  0.41701000707E+02  0.00000000000E+00 0. -1.
</event>
<event>
 8    1  0.3654190E-009  0.1204318E+03  0.7561462E-02  0.1242386E+00
         -2   -1    0    0    0  501 -0.00000000000E+00  0.00000000000E+00  0.18470351123E+03  0.18470351123E+03  0.00000000000E+00 0. -1.
          2   -1    0    0  501    0  0.00000000000E+00 -0.00000000000E+00 -0.97069106044E+02  0.97069106044E+02  0.00000000000E+00 0.  1.
         25    2    1    2    0    0 -0.43509873845E+02 -0.37646397722E+02  0.95358797926E+02  0.16748534235E+03  0.12509068381E+03 0.  0.
         23    2    1    2    0    0  0.43509873845E+02  0.37646397722E+02 -0.77243927358E+01  0.11428727493E+03  0.98445693582E+02 0.  0.
          5    1    3    3  502    0 -0.81379056649E+02 -0.12055644119E+02  0.88800126916E+02  0.12112317844E+03  0.41800000000E+01 0.  1.
         -5    1    3    3    0  502  0.37869182804E+02 -0.25590753604E+02  0.65586710100E+01  0.46362163902E+02  0.41800000000E+01 0.  1.
        -11    1    4    4    0    0 -0.28778742775E+02 -0.41748523712E+01  0.58898163622E+01  0.29670445982E+02  0.00000000000E+00 0. -1.
         11    1    4    4    0    0  0.72288616620E+02  0.41821250093E+02 -0.13614209098E+02  0.84616828950E+02  0.00000000000E+00 0.  1.
</event>
<event>
 8    1  0.3654190E-009  0.1125045E+03  0.7561462E-02  0.1256001E+00
          2   -1    0    0  501    0  0.00000000000E+00  0.00000000000E+00  0.68029805550E+03  0.68029805550E+03  0.00000000000E+00 0. -1.
         -2   -1    0    0    0  501 -0.00000000000E+00 -0.00000000000E+00 -0.25505138423E+02  0.25505138423E+02  0.00000000000E+00 0.  1.
         25    2    1    2    0    0 -0.53465874774E+02  0.21200175135E+02  0.48543701846E+03  0.50458432847E+03  0.12509275939E+03 0.  0.
         23    2    1    2    0    0  0.53465874774E+02 -0.21200175135E+02  0.16935589862E+03  0.20121886546E+03  0.92193081236E+02 0.  0.
          5    1    3    3  502    0 -0.80210867390E+02 -0.63576317931E+01  0.42699144522E+03  0.43452660381E+03  0.41800000000E+01 0. -1.
         -5    1    3    3    0  502  0.26744992615E+02  0.27557806928E+02  0.58445573248E+02  0.70057724663E+02  0.41800000000E+01 0. -1.
        -11    1    4    4    0    0 -0.21902569295E+02  0.10199908877E+02  0.21618242992E+02  0.32420812958E+02  0.00000000000E+00 0.  1.
         11    1    4    4    0    0  0.75368444069E+02 -0.31400084012E+02  0.14773765562E+03  0.16879805250E+03  0.00000000000E+00 0. -1.
</event>
<event>
 8    1  0.3654190E-009  0.4886882E+02  0.7561462E-02  0.1451540E+00
         -2   -1    0    0    0  501 -0.00000000000E+00  0.00000000000E+00  0.67063496297E+02  0.67063496297E+02  0.00000000000E+00 0.  1.
          2   -1    0    0  501    0  0.00000000000E+00 -0.00000000000E+00 -0.20696710177E+03  0.20696710177E+03  0.00000000000E+00 0. -1.
         25    2    1    2    0    0 -0.27205539186E+02 -0.49202049060E+01 -0.10593982796E+03  0.16623468250E+03  0.12508546174E+03 0.  0.
         23    2    1    2    0    0  0.27205539186E+02  0.49202049060E+01 -0.33963777513E+02  0.10779591556E+03  0.98499093654E+02 0.  0.
          5    1    3    3  502    0 -0.30572692959E+02 -0.29624206481E+02 -0.12657130892E+03  0.13360408604E+03  0.41800000000E+01 0. -1.
         -5    1    3    3    0  502  0.33671537727E+01  0.24704001575E+02  0.20631480966E+02  0.32630596458E+02  0.41800000000E+01 0. -1.
        -11    1    4    4    0    0  0.10872321618E+02 -0.33462771609E+01  0.34813089721E+02  0.36624529542E+02  0.00000000000E+00 0.  1.
         11    1    4    4    0    0  0.16333217568E+02  0.82664820669E+01 -0.68776867234E+02  0.71171386023E+02  0.00000000000E+00 0. -1.
</event>
<event>
 8    1  0.3654190E-009  0.1334788E+03  0.7561462E-02  0.1222383E+00
         -2   -1    0    0    0  501 -0.00000000000E+00  0.00000000000E+00  0.90152446010E+02  0.90152446010E+02  0.00000000000E+00 0.  1.
          2   -1    0    0  501    0  0.00000000000E+00 -0.00000000000E+00 -0.29713305799E+03  0.29713305799E+03  0.00000000000E+00 0. -1.
         25    2    1    2    0    0  0.50383917646E+02 -0.11168108921E+03 -0.12075579533E+03  0.21269754213E+03  0.12508827874E+03 0.  0.
         23    2    1    2    0    0 -0.50383917646E+02  0.11168108921E+03 -0.86224816645E+02  0.17458796186E+03  0.89638343234E+02 0.  0.
          5    1    3    3  502    0  0.84087380902E+01 -0.97107205938E+02 -0.13435703728E+03  0.16604156765E+03  0.41800000000E+01 0. -1.
         -5    1    3    3    0  502  0.41975179556E+02 -0.14573883273E+02  0.13601241947E+02  0.46655974482E+02  0.41800000000E+01 0. -1.
        -11    1    4    4    0    0 -0.16572794387E+02  0.65305826564E+02  0.41788879070E+01  0.67505344982E+02  0.00000000000E+00 0.  1.
         11    1    4    4    0    0 -0.33811123259E+02  0.46375262647E+02 -0.90403704552E+02  0.10708261688E+03  0.00000000000E+00 0. -1.
</event>
<event>
 8    1  0.3654190E-009  0.1005888E+03  0.7561462E-02  0.1279063E+00
          2   -1    0    0  501    0  0.00000000000E+00  0.00000000000E+00  0.51183791619E+03  0.51183791619E+03  0.00000000000E+00 0. -1.
         -2   -1    0    0    0  501 -0.00000000000E+00 -0.00000000000E+00 -0.25762190420E+02  0.25762190420E+02  0.00000000000E+00 0.  1.
         25    2    1    2    0    0 -0.16281957446E+02 -0.70248185855E+01  0.21329451371E+03  0.24790389731E+03  0.12508933811E+03 0.  0.
         23    2    1    2    0    0  0.16281957446E+02  0.70248185855E+01  0.27278121206E+03  0.28969620930E+03  0.95915868418E+02 0.  0.
          5    1    3    3  502    0  0.84165183941E+01  0.47969277631E+02  0.36323205484E+02  0.60899400941E+02  0.41800000000E+01 0. -1.
         -5    1    3    3    0  502 -0.24698475840E+02 -0.54994096217E+02  0.17697130823E+03  0.18700449637E+03  0.41800000000E+01 0. -1.
        -11    1    4    4    0    0 -0.37518676964E+01 -0.40300614001E+02  0.73633226870E+02  0.84024211387E+02  0.00000000000E+00 0.  1.
         11    1    4    4    0    0  0.20033825143E+02  0.47325432586E+02  0.19914798519E+03  0.20567199791E+03  0.00000000000E+00 0. -1.
</event>
<event>
 8    1  0.3654190E-009  0.1135667E+03  0.7561462E-02  0.1254104E+00
         -1   -1    0    0    0  501 -0.00000000000E+00  0.00000000000E+00  0.19145070859E+03  0.19145070859E+03  0.00000000000E+00 0.  1.
          1   -1    0    0  501    0  0.00000000000E+00 -0.00000000000E+00 -0.16701651018E+03  0.16701651018E+03  0.00000000000E+00 0. -1.
         25    2    1    2    0    0 -0.53863135209E+02  0.17657598086E+02 -0.11699868876E+03  0.18041774595E+03  0.12509533077E+03 0.  0.
         23    2    1    2    0    0  0.53863135209E+02 -0.17657598086E+02  0.14143288717E+03  0.17804947282E+03  0.92115824330E+02 0.  0.
          5    1    3    3  502    0  0.21019086907E+02 -0.33848916646E+02 -0.12732894316E+02  0.42037485297E+02  0.41800000000E+01 0.  1.
         -5    1    3    3    0  502 -0.74882222116E+02  0.51506514732E+02 -0.10426579444E+03  0.13838026065E+03  0.41800000000E+01 0.  1.
        -11    1    4    4    0    0 -0.39928302640E+01  0.24296259476E+02  0.66703299946E+01  0.25509688754E+02  0.00000000000E+00 0.  1.
         11    1    4    4    0    0  0.57855965473E+02 -0.41953857562E+02  0.13476255718E+03  0.15253978407E+03  0.00000000000E+00 0. -1.
</event>
<event>
 8    1  0.3654190E-009  0.1351834E+03  0.7561462E-02  0.1219961E+00
         -1   -1    0    0    0  501 -0.00000000000E+00  0.00000000000E+00  0.93743824575E+03  0.93743824575E+03  0.00000000000E+00 0.  1.
          1   -1    0    0  501    0  0.00000000000E+00 -0.00000000000E+00 -0.31840545923E+02  0.31840545923E+02  0.00000000000E+00 0. -1.
         25    2    1    2    0    0  0.93895019598E+02 -0.88845738332E+02  0.38679359651E+03  0.42657416097E+03  0.12508552506E+03 0.  0.
         23    2    1    2    0    0 -0.93895019598E+02  0.88845738332E+02  0.51880410331E+03  0.54270463070E+03  0.93063304499E+02 0.  0.
          5    1    3    3  502    0  0.87782532811E+02 -0.62309834550E+02  0.13239154171E+03  0.17068474233E+03  0.41800000000E+01 0. -1.
         -5    1    3    3    0  502  0.61124867870E+01 -0.26535903782E+02  0.25440205480E+03  0.25588941864E+03  0.41800000000E+01 0. -1.
        -11    1    4    4    0    0  0.38723795578E+00  0.15836942652E+02  0.72244957771E+01  0.17411262017E+02  0.00000000000E+00 0. -1.
         11    1    4    4    0    0 -0.94282257554E+02  0.73008795680E+02  0.51157960753E+03  0.52529336868E+03  0.00000000000E+00 0.  1.
</event>
<event>
 8    1  0.3654190E-009  0.1917525E+03  0.7561462E-02  0.1156890E+00
         -1   -1    0    0    0  501 -0.00000000000E+00  0.00000000000E+00  0.44698644484E+02  0.44698644484E+02  0.00000000000E+00 0.  1.
          1   -1    0    0  501    0  0.00000000000E+00 -0.00000000000E+00 -0.10738146673E+04  0.10738146673E+04  0.00000000000E+00 0. -1.
         25    2    1    2    0    0 -0.18930975417E+03  0.13074543100E+01 -0.49384193294E+03  0.54347670563E+03  0.12508869800E+03 0.  0.
         23    2    1    2    0    0  0.18930975417E+03 -0.13074543100E+01 -0.53527408988E+03  0.57503660616E+03  0.91152919138E+02 0.  0.
          5    1    3    3  502    0 -0.13237438715E+03  0.51190142970E+00 -0.17448573274E+03  0.21905703309E+03  0.41800000000E+01 0. -1.
         -5    1    3    3    0  502 -0.56935367024E+02  0.79555288032E+00 -0.31935620021E+03  0.32441967255E+03  0.41800000000E+01 0. -1.
        -11    1    4    4    0    0  0.68913585287E+02  0.19879040507E+02 -0.10094117908E+03  0.12382802640E+03  0.00000000000E+00 0.  1.
         11    1    4    4    0    0  0.12039616889E+03 -0.21186494817E+02 -0.43433291079E+03  0.45120857975E+03  0.00000000000E+00 0. -1.
</event>
<event>
 8    1  0.3654190E-009  0.1071657E+03  0.7561462E-02  0.1265910E+00
         -2   -1    0    0    0  501 -0.00000000000E+00  0.00000000000E+00  0.72060178874E+01  0.72060178874E+01  0.00000000000E+00 0.  1.
          2   -1    0    0  501    0  0.00000000000E+00 -0.00000000000E+00 -0.24193445642E+04  0.24193445642E+04  0.00000000000E+00 0. -1.
         25    2    1    2    0    0 -0.40494969319E+02 -0.28322419861E+02 -0.18541197136E+04  0.18589919028E+04  0.12509588458E+03 0.  0.
         23    2    1    2    0    0  0.40494969319E+02  0.28322419861E+02 -0.55801883272E+03  0.56755867929E+03  0.91081473178E+02 0.  0.
          5    1    3    3  502    0  0.10997266816E+02  0.30350096117E+02 -0.11645845883E+04  0.11650394002E+04  0.41800000000E+01 0.  1.
         -5    1    3    3    0  502 -0.51492236136E+02 -0.58672515979E+02 -0.68953512526E+03  0.69395250261E+03  0.41800000000E+01 0.  1.
        -11    1    4    4    0    0 -0.11756533390E+02 -0.25814597178E+02 -0.14809929036E+03  0.15079127730E+03  0.00000000000E+00 0.  1.
         11    1    4    4    0    0  0.52251502709E+02  0.54137017040E+02 -0.40991954236E+03  0.41676740199E+03  0.00000000000E+00 0. -1.
</event>
<event>
 8    1  0.3654190E-009  0.1945123E+03  0.7561462E-02  0.1154453E+00
          1   -1    0    0  501    0  0.00000000000E+00  0.00000000000E+00  0.17260193003E+04  0.17260193003E+04  0.00000000000E+00 0. -1.
         -1   -1    0    0    0  501 -0.00000000000E+00 -0.00000000000E+00 -0.23478843728E+02  0.23478843728E+02  0.00000000000E+00 0.  1.
         25    2    1    2    0    0 -0.16262637132E+03 -0.95068842989E+01  0.10834339580E+04  0.11027322404E+04  0.12510609530E+03 0.  0.
         23    2    1    2    0    0  0.16262637132E+03  0.95068842989E+01  0.61910649852E+03  0.64676590362E+03  0.92062805064E+02 0.  0.
          5    1    3    3  502    0 -0.17757361633E+03 -0.29481428935E+02  0.95789678645E+03  0.97467187800E+03  0.41800000000E+01 0.  1.
         -5    1    3    3    0  502  0.14947245016E+02  0.19974544636E+02  0.12553717156E+03  0.12806036237E+03  0.41800000000E+01 0.  1.
        -11    1    4    4    0    0  0.32596410798E+02 -0.33477622786E+02  0.21712940659E+03  0.22210010453E+03  0.00000000000E+00 0.  1.
         11    1    4    4    0    0  0.13002996052E+03  0.42984507085E+02  0.40197709193E+03  0.42466579909E+03  0.00000000000E+00 0. -1.
</event>
<event>
 8    1  0.3654190E-009  0.3265628E+03  0.7561462E-02  0.1072668E+00
          2   -1    0    0  501    0  0.00000000000E+00  0.00000000000E+00  0.85093415771E+03  0.85093415771E+03  0.00000000000E+00 0. -1.
         -2   -1    0    0    0  501 -0.00000000000E+00 -0.00000000000E+00 -0.13553661308E+03  0.13553661308E+03  0.00000000000E+00 0.  1.
         25    2    1    2    0    0 -0.64944123742E+02 -0.31453904443E+03  0.36020944187E+03  0.49854869862E+03  0.12508962069E+03 0.  0.
         23    2    1    2    0    0  0.64944123742E+02  0.31453904443E+03  0.35518810277E+03  0.48792207218E+03  0.93577831212E+02 0.  0.
          5    1    3    3  502    0 -0.51214471147E+02 -0.31189426253E+03  0.29720766499E+03  0.43387880979E+03  0.41800000000E+01 0.  1.
         -5    1    3    3    0  502 -0.13729652595E+02 -0.26447818996E+01  0.63001776878E+02  0.64669888832E+02  0.41800000000E+01 0.  1.
        -11    1    4    4    0    0  0.51328628312E+02  0.28869136512E+03  0.35260582075E+03  0.45859371693E+03  0.00000000000E+00 0.  1.
         11    1    4    4    0    0  0.13615495429E+02  0.25847679306E+02  0.25822820181E+01  0.29328355250E+02  0.00000000000E+00 0. -1.
</event>
<event>
 8    1  0.3654190E-009  0.1858272E+03  0.7561462E-02  0.1162280E+00
         -1   -1    0    0    0  501 -0.00000000000E+00  0.00000000000E+00  0.70023811257E+03  0.70023811257E+03  0.00000000000E+00 0.  1.
          1   -1    0    0  501    0  0.00000000000E+00 -0.00000000000E+00 -0.50133331113E+02  0.50133331113E+02  0.00000000000E+00 0. -1.
         25    2    1    2    0    0 -0.89569063205E+02  0.12236622041E+03  0.32045528232E+03  0.37594627825E+03  0.12509159517E+03 0.  0.
         23    2    1    2    0    0  0.89569063205E+02 -0.12236622041E+03  0.32964949913E+03  0.37442516543E+03  0.92354227012E+02 0.  0.
          5    1    3    3  502    0 -0.11842611528E+03  0.11601586896E+03  0.28355355474E+03  0.32848823029E+03  0.41800000000E+01 0. -1.
         -5    1    3    3    0  502  0.28857052078E+02  0.63503514546E+01  0.36901727584E+02  0.47458047968E+02  0.41800000000E+01 0. -1.
        -11    1    4    4    0    0  0.40270699460E+02  0.38686090042E+01  0.98396752681E+02  0.10638898584E+03  0.00000000000E+00 0.  1.
         11    1    4    4    0    0  0.49298363745E+02 -0.12623482941E+03  0.23125274645E+03  0.26803617958E+03  0.00000000000E+00 0. -1.
</event>
<event>
 8    1  0.3654190E-009  0.1252404E+03  0.7561462E-02  0.1234694E+00
          1   -1    0    0  501    0  0.00000000000E+00  0.00000000000E+00  0.13039208647E+03  0.13039208647E+03  0.00000000000E+00 0. -1.
         -1   -1    0    0    0  501 -0.00000000000E+00 -0.00000000000E+00 -0.19072940182E+03  0.19072940182E+03  0.00000000000E+00 0.  1.
         25    2    1    2    0    0 -0.82305970621E+02  0.60012985666E+02 -0.83607013705E+02  0.18169746979E+03  0.12509199230E+03 0.  0.
         23    2    1    2    0    0  0.82305970621E+02 -0.60012985666E+02  0.23269698356E+02  0.13942401851E+03  0.92313307959E+02 0.  0.
          5    1    3    3  502    0 -0.29589390815E+02  0.75931443614E+02 -0.12322914953E+00  0.81600268159E+02  0.41800000000E+01 0. -1.
         -5    1    3    3    0  502 -0.52716579806E+02 -0.15918457948E+02 -0.83483784555E+02  0.10009720163E+03  0.41800000000E+01 0. -1.
        -11    1    4    4    0    0  0.30567590576E+02 -0.53353227646E+02 -0.26838314575E+02  0.67091278294E+02  0.00000000000E+00 0.  1.
         11    1    4    4    0    0  0.51738380045E+02 -0.66597580197E+01  0.50108012931E+02  0.72332740212E+02  0.00000000000E+00 0. -1.
</event>
<event>
 8    1  0.3654190E-009  0.9664855E+02  0.7561462E-02  0.1287506E+00
         -2   -1    0    0    0  501 -0.00000000000E+00  0.00000000000E+00  0.37223639061E+02  0.37223639061E+02  0.00000000000E+00 0.  1.
          2   -1    0    0  501    0  0.00000000000E+00 -0.00000000000E+00 -0.36562111986E+03  0.36562111986E+03  0.00000000000E+00 0. -1.
         25    2    1    2    0    0 -0.25440221123E+02  0.32153455307E+02 -0.20501272255E+03  0.24363866101E+03  0.12509408937E+03 0.  0.
         23    2    1    2    0    0  0.25440221123E+02 -0.32153455307E+02 -0.12338475825E+03  0.15920609791E+03  0.91878906741E+02 0.  0.
          5    1    3    3  502    0 -0.42311228987E+02 -0.13653803970E+02 -0.14536389253E+02  0.46962170667E+02  0.41800000000E+01 0.  1.
         -5    1    3    3    0  502  0.16871007864E+02  0.45807259278E+02 -0.19047633330E+03  0.19667649035E+03  0.41800000000E+01 0.  1.
        -11    1    4    4    0    0  0.32831129694E+02  0.25469636101E+02 -0.62493228631E+02  0.75046579301E+02  0.00000000000E+00 0.  1.
         11    1    4    4    0    0 -0.73909085709E+01 -0.57623091408E+02 -0.60891529619E+02  0.84159518607E+02  0.00000000000E+00 0. -1.
</event>
<event>
 8    1  0.3654190E-009  0.1702594E+03  0.7561462E-02  0.1177578E+00
         -2   -1    0    0    0  501 -0.00000000000E+00  0.00000000000E+00  0.43664094610E+02  0.43664094610E+02  0.00000000000E+00 0.  1.
          2   -1    0    0  501    0  0.00000000000E+00 -0.00000000000E+00 -0.82246327215E+03  0.82246327215E+03  0.00000000000E+00 0. -1.
         25    2    1    2    0    0 -0.88388248370E+02  0.99818492578E+02 -0.22788386091E+03  0.29215552572E+03  0.12509030032E+03 0.  0.
         23    2    1    2    0    0  0.88388248370E+02 -0.99818492578E+02 -0.55091531663E+03  0.57397184104E+03  0.90331469045E+02 0.  0.
          5    1    3    3  502    0  0.26995935918E+02 -0.35760023574E+01 -0.28818234443E+02  0.39868927568E+02  0.41800000000E+01 0. -1.
         -5    1    3    3    0  502 -0.11538418429E+03  0.10339449494E+03 -0.19906562647E+03  0.25228659815E+03  0.41800000000E+01 0. -1.
        -11    1    4    4    0    0 -0.14792096458E+01 -0.59438779903E+02 -0.15583631399E+03  0.16679362511E+03  0.00000000000E+00 0.  1.
         11    1    4    4    0    0  0.89867458016E+02 -0.40379712675E+02 -0.39507900264E+03  0.40717821594E+03  0.00000000000E+00 0. -1.
</event>
<event>
 8    1  0.3654190E-009  0.6230742E+02  0.7561462E-02  0.1388396E+00
          2   -1    0    0  501    0  0.00000000000E+00  0.00000000000E+00  0.69213037579E+03  0.69213037579E+03  0.00000000000E+00 0. -1.
         -2   -1    0    0    0  501 -0.00000000000E+00 -0.00000000000E+00 -0.16976788949E+02  0.16976788949E+02  0.00000000000E+00 0.  1.
         25    2    1    2    0    0 -0.20921865045E+02  0.41955062577E+01  0.40837977128E+03  0.42764108265E+03  0.12509009261E+03 0.  0.
         23    2    1    2    0    0  0.20921865045E+02 -0.41955062577E+01  0.26677381556E+03  0.28146608209E+03  0.87175455194E+02 0.  0.
          5    1    3    3  502    0  0.54124511491E+01  0.22463400124E+02  0.38950456700E+03  0.39021171060E+03  0.41800000000E+01 0. -1.
         -5    1    3    3    0  502 -0.26334316194E+02 -0.18267893866E+02  0.18875204279E+02  0.37429372053E+02  0.41800000000E+01 0. -1.
        -11    1    4    4    0    0 -0.22565589313E+02 -0.10466367376E+02  0.23377628395E+02  0.34135966025E+02  0.00000000000E+00 0.  1.
         11    1    4    4    0    0  0.43487454358E+02  0.62708611179E+01  0.24339618716E+03  0.24733011606E+03  0.00000000000E+00 0. -1.
</event>
<event>
 8    1  0.3654190E-009  0.3179894E+03  0.7561462E-02  0.1076578E+00
          1   -1    0    0  501    0  0.00000000000E+00  0.00000000000E+00  0.65517373895E+03  0.65517373895E+03  0.00000000000E+00 0. -1.
         -1   -1    0    0    0  501 -0.00000000000E+00 -0.00000000000E+00 -0.27661615770E+03  0.27661615770E+03  0.00000000000E+00 0.  1.
         25    2    1    2    0    0  0.14499505232E+03  0.27454960223E+03 -0.10393515771E+03  0.35050034803E+03  0.12508767997E+03 0.  0.
         23    2    1    2    0    0 -0.14499505232E+03 -0.27454960223E+03  0.48249273895E+03  0.58128954862E+03  0.93259031278E+02 0.  0.
          5    1    3    3  502    0  0.52164805398E+02  0.43635453504E+02 -0.72697955222E+02  0.99637768030E+02  0.41800000000E+01 0. -1.
         -5    1    3    3    0  502  0.92830246924E+02  0.23091414872E+03 -0.31237202487E+02  0.25086258000E+03  0.41800000000E+01 0. -1.
        -11    1    4    4    0    0 -0.93151708875E+02 -0.23777166664E+03  0.33963552345E+03  0.42492928248E+03  0.00000000000E+00 0.  1.
         11    1    4    4    0    0 -0.51843343447E+02 -0.36777935587E+02  0.14285721550E+03  0.15636026614E+03  0.00000000000E+00 0. -1.
</event>
<event>
 8    1  0.3654190E-009  0.1035196E+03  0.7561462E-02  0.1273064E+00
          1   -1    0    0  501    0  0.00000000000E+00  0.00000000000E+00  0.21902885451E+03  0.21902885451E+03  0.00000000000E+00 0. -1.
         -1   -1    0    0    0  501 -0.00000000000E+00 -0.00000000000E+00 -0.64829065903E+02  0.64829065903E+02  0.00000000000E+00 0.  1.
         25    2    1    2    0    0 -0.17266540682E+02 -0.38958736416E+02  0.10965153857E+03  0.17171757418E+03  0.12509016269E+03 0.  0.
         23    2    1    2    0    0  0.17266540682E+02  0.38958736416E+02  0.44548250045E+02  0.11214034624E+03  0.93674938493E+02 0.  0.
          5    1    3    3  502    0  0.53462107711E+02 -0.96139093280E+01  0.55972172178E+02  0.78108774615E+02  0.41800000000E+01 0.  1.
         -5    1    3    3    0  502 -0.70728648393E+02 -0.29344827088E+02  0.53679366387E+02  0.93608799566E+02  0.41800000000E+01 0.  1.
        -11    1    4    4    0    0  0.41070226858E+02  0.21554520238E+02 -0.12399055598E+02  0.48011430478E+02  0.00000000000E+00 0.  1.
         11    1    4    4    0    0 -0.23803686176E+02  0.17404216178E+02  0.56947305642E+02  0.64128915758E+02  0.00000000000E+00 0. -1.
</event>
<event>
 8    1  0.3654190E-009  0.1627166E+03  0.7561462E-02  0.1185663E+00
         -1   -1    0    0    0  501 -0.00000000000E+00  0.00000000000E+00  0.36687408867E+03  0.36687408867E+03  0.00000000000E+00 0. -1.
          1   -1    0    0  501    0  0.00000000000E+00 -0.00000000000E+00 -0.75474357486E+02  0.75474357486E+02  0.00000000000E+00 0.  1.
         25    2    1    2    0    0  0.70224398232E+02  0.10303759147E+03  0.13204510264E+03  0.22052544368E+03  0.12508937131E+03 0.  0.
         23    2    1    2    0    0 -0.70224398232E+02 -0.10303759147E+03  0.15935462854E+03  0.22182300248E+03  0.90902890087E+02 0.  0.
          5    1    3    3  502    0  0.33382959490E+02  0.12428421055E+03  0.74200107278E+02  0.14860725183E+03  0.41800000000E+01 0. -1.
         -5    1    3    3    0  502  0.36841438742E+02 -0.21246619073E+02  0.57844995364E+02  0.71918191852E+02  0.41800000000E+01 0. -1.
        -11    1    4    4    0    0  0.17329057278E+02 -0.46743961656E+02  0.58904989715E+02  0.77169242518E+02  0.00000000000E+00 0. -1.
         11    1    4    4    0    0 -0.87553455510E+02 -0.56293629819E+02  0.10044963883E+03  0.14465375996E+03  0.00000000000E+00 0.  1.
</event>
<event>
 8    1  0.3654190E-009  0.9635815E+02  0.7561462E-02  0.1288146E+00
         -1   -1    0    0    0  501 -0.00000000000E+00  0.00000000000E+00  0.56524807965E+02  0.56524807965E+02  0.00000000000E+00 0.  1.
          1   -1    0    0  501    0  0.00000000000E+00 -0.00000000000E+00 -0.30816369672E+03  0.30816369672E+03  0.00000000000E+00 0. -1.
         25    2    1    2    0    0 -0.97630391000E+00  0.40314714054E+02 -0.49664518861E+02  0.14050264918E+03  0.12509276819E+03 0.  0.
         23    2    1    2    0    0  0.97630391000E+00 -0.40314714054E+02 -0.20197436989E+03  0.22418585550E+03  0.88540512632E+02 0.  0.
          5    1    3    3  502    0 -0.42876341307E+02  0.10746181347E+02 -0.71857328085E+02  0.84467798935E+02  0.41800000000E+01 0.  1.
         -5    1    3    3    0  502  0.41900037397E+02  0.29568532707E+02  0.22192809224E+02  0.56034850241E+02  0.41800000000E+01 0.  1.
        -11    1    4    4    0    0 -0.33606798374E+02  0.10667188199E+02 -0.63654238763E+02  0.72767217299E+02  0.00000000000E+00 0.  1.
         11    1    4    4    0    0  0.34583102284E+02 -0.50981902253E+02 -0.13832013113E+03  0.15141863821E+03  0.00000000000E+00 0. -1.
</event>
<event>
 8    1  0.3654190E-009  0.1607188E+03  0.7561462E-02  0.1187888E+00
          1   -1    0    0  501    0  0.00000000000E+00  0.00000000000E+00  0.16265797478E+03  0.16265797478E+03  0.00000000000E+00 0. -1.
         -1   -1    0    0    0  501 -0.00000000000E+00 -0.00000000000E+00 -0.20975235753E+03  0.20975235753E+03  0.00000000000E+00 0.  1.
         25    2    1    2    0    0  0.10384106306E+03  0.67132477343E+02 -0.10874983774E+03  0.20679035328E+03  0.12508392027E+03 0.  0.
         23    2    1    2    0    0 -0.10384106306E+03 -0.67132477343E+02  0.61655454988E+02  0.16561997903E+03  0.91317284417E+02 0.  0.
          5    1    3    3  502    0  0.10928061934E+03  0.94422573611E+02 -0.10454320989E+03  0.17833853006E+03  0.41800000000E+01 0. -1.
         -5    1    3    3    0  502 -0.54395562750E+01 -0.27290096267E+02 -0.42066278456E+01  0.28451823221E+02  0.41800000000E+01 0. -1.
        -11    1    4    4    0    0 -0.59158484748E+02  0.96866352768E+01  0.48396387744E+01  0.60141327922E+02  0.00000000000E+00 0.  1.
         11    1    4    4    0    0 -0.44682578315E+02 -0.76819112620E+02  0.56815816214E+02  0.10547865111E+03  0.00000000000E+00 0. -1.
</event>
<event>
 8    1  0.3654190E-009  0.1602346E+03  0.7561462E-02  0.1188432E+00
         -2   -1    0    0    0  501 -0.00000000000E+00  0.00000000000E+00  0.31893706310E+03  0.31893706310E+03  0.00000000000E+00 0.  1.
          2   -1    0    0  501    0  0.00000000000E+00 -0.00000000000E+00 -0.97587777537E+02  0.97587777537E+02  0.00000000000E+00 0. -1.
         25    2    1    2    0    0 -0.12598350464E+03 -0.25196621239E+02  0.17916366092E+03  0.25347739761E+03  0.12507781795E+03 0.  0.
         23    2    1    2    0    0  0.12598350464E+03  0.25196621239E+02  0.42185624650E+02  0.16304744303E+03  0.91094064520E+02 0.  0.
          5    1    3    3  502    0 -0.11893443509E+03  0.17309396619E+02  0.17158126955E+03  0.20952951945E+03  0.41800000000E+01 0.  1.
         -5    1    3    3    0  502 -0.70490695490E+01 -0.42506017858E+02  0.75823913666E+01  0.43947878156E+02  0.41800000000E+01 0.  1.
        -11    1    4    4    0    0  0.10805698793E+03  0.55678097576E+02  0.26767855900E+02  0.12447040331E+03  0.00000000000E+00 0. -1.
         11    1    4    4    0    0  0.17926516708E+02 -0.30481476337E+02  0.15417768750E+02  0.38577039729E+02  0.00000000000E+00 0.  1.
</event>
<event>
 8    1  0.3654190E-009  0.1113449E+03  0.7561462E-02  0.1258099E+00
          2   -1    0    0  501    0  0.00000000000E+00  0.00000000000E+00  0.50896374913E+03  0.50896374913E+03  0.00000000000E+00 0. -1.
         -2   -1    0    0    0  501 -0.00000000000E+00 -0.00000000000E+00 -0.33424790054E+02  0.33424790054E+02  0.00000000000E+00 0.  1.
         25    2    1    2    0    0  0.51623338228E+01  0.70006759750E+02  0.31195496728E+03  0.34335239942E+03  0.12508945788E+03 0.  0.
         23    2    1    2    0    0 -0.51623338228E+01 -0.70006759750E+02  0.16358399180E+03  0.19903613977E+03  0.89039690370E+02 0.  0.
          5    1    3    3  502    0 -0.42076913854E+02 -0.10258650305E+02  0.15308258721E+03  0.15914602569E+03  0.41800000000E+01 0.  1.
         -5    1    3    3    0  502  0.47239247677E+02  0.80265410056E+02  0.15887238007E+03  0.18420637372E+03  0.41800000000E+01 0.  1.
        -11    1    4    4    0    0  0.21908952355E+02 -0.39461883743E+02  0.19297523339E+02  0.49088052200E+02  0.00000000000E+00 0.  1.
         11    1    4    4    0    0 -0.27071286178E+02 -0.30544876007E+02  0.14428646846E+03  0.14994808757E+03  0.00000000000E+00 0. -1.
</event>
<event>
 8    1  0.3654190E-009  0.1349151E+03  0.7561462E-02  0.1220340E+00
         -1   -1    0    0    0  501 -0.00000000000E+00  0.00000000000E+00  0.11834039039E+03  0.11834039039E+03  0.00000000000E+00 0.  1.
          1   -1    0    0  501    0  0.00000000000E+00 -0.00000000000E+00 -0.18581480293E+03  0.18581480293E+03  0.00000000000E+00 0. -1.
         25    2    1    2    0    0  0.79572297903E+01  0.95813643332E+02 -0.56536352360E+01  0.15786974431E+03  0.12508925143E+03 0.  0.
         23    2    1    2    0    0 -0.79572297903E+01 -0.95813643332E+02 -0.61820777300E+02  0.14628544901E+03  0.91291030944E+02 0.  0.
          5    1    3    3  502    0  0.43260549049E+02 -0.26248126350E+01  0.23156381159E+02  0.49315871013E+02  0.41800000000E+01 0.  1.
         -5    1    3    3    0  502 -0.35303319259E+02  0.98438455967E+02 -0.28810016395E+02  0.10855387330E+03  0.41800000000E+01 0.  1.
        -11    1    4    4    0    0  0.13572262897E+02 -0.98945344886E+02 -0.24097203036E+02  0.10273783524E+03  0.00000000000E+00 0.  1.
         11    1    4    4    0    0 -0.21529492687E+02  0.31317015540E+01 -0.37723574263E+02  0.43547613772E+02  0.00000000000E+00 0. -1.
</event>
<event>
 8    1  0.3654190E-009  0.1085322E+03  0.7561462E-02  0.1263312E+00
         -2   -1    0    0    0  501 -0.00000000000E+00  0.00000000000E+00  0.13793947426E+03  0.13793947426E+03  0.00000000000E+00 0.  1.
          2   -1    0    0  501    0  0.00000000000E+00 -0.00000000000E+00 -0.15915334173E+03  0.15915334173E+03  0.00000000000E+00 0. -1.
         25    2    1    2    0    0 -0.36979752664E+02  0.80698235874E+02  0.35099787034E+02  0.15734900790E+03  0.12508800046E+03 0.  0.
         23    2    1    2    0    0  0.36979752664E+02 -0.80698235874E+02 -0.56313654506E+02  0.13974380808E+03  0.92072780084E+02 0.  0.
          5    1    3    3  502    0 -0.10763689779E+02  0.74336697987E+02  0.76801333566E+02  0.10750683198E+03  0.41800000000E+01 0.  1.
         -5    1    3    3    0  502 -0.26216062885E+02  0.63615378876E+01 -0.41701546533E+02  0.49842175923E+02  0.41800000000E+01 0.  1.
        -11    1    4    4    0    0 -0.12375258853E+02  0.67695461324E+01 -0.34075196283E+02  0.36879435845E+02  0.00000000000E+00 0. -1.
         11    1    4    4    0    0  0.49355011517E+02 -0.87467782007E+02 -0.22238458223E+02  0.10286437223E+03  0.00000000000E+00 0.  1.
</event>
<event>
 8    1  0.3654190E-009  0.8180311E+02  0.7561462E-02  0.1324011E+00
         -1   -1    0    0    0  501 -0.00000000000E+00  0.00000000000E+00  0.80849196479E+02  0.80849196479E+02  0.00000000000E+00 0.  1.
          1   -1    0    0  501    0  0.00000000000E+00 -0.00000000000E+00 -0.15066226659E+03  0.15066226659E+03  0.00000000000E+00 0. -1.
         25    2    1    2    0    0 -0.85701784998E+01  0.51803565828E+01 -0.26878861779E+02  0.12833796098E+03  0.12509146639E+03 0.  0.
         23    2    1    2    0    0  0.85701784998E+01 -0.51803565828E+01 -0.42934208330E+02  0.10317350209E+03  0.93279907989E+02 0.  0.
          5    1    3    3  502    0 -0.60833822041E+02  0.10984188725E+01  0.12976693272E+02  0.62352444991E+02  0.41800000000E+01 0. -1.
         -5    1    3    3    0  502  0.52263643541E+02  0.40819377103E+01 -0.39855555051E+02  0.65985515987E+02  0.41800000000E+01 0. -1.
        -11    1    4    4    0    0 -0.22860348477E+01 -0.26238582474E+02 -0.65411957657E+02  0.70515341381E+02  0.00000000000E+00 0. -1.
         11    1    4    4    0    0  0.10856213347E+02  0.21058225891E+02  0.22477749328E+02  0.32658160707E+02  0.00000000000E+00 0.  1.
</event>
<event>
 8    1  0.3654190E-009  0.1274263E+03  0.7561462E-02  0.1231325E+00
         -2   -1    0    0    0  501 -0.00000000000E+00  0.00000000000E+00  0.64579161819E+02  0.64579161819E+02  0.00000000000E+00 0.  1.
          2   -1    0    0  501    0  0.00000000000E+00 -0.00000000000E+00 -0.37243663466E+03  0.37243663466E+03  0.00000000000E+00 0. -1.
         25    2    1    2    0    0 -0.62628494756E+02 -0.62964084240E+02 -0.25856894860E+03  0.30065291549E+03  0.12508984832E+03 0.  0.
         23    2    1    2    0    0  0.62628494756E+02  0.62964084240E+02 -0.49288524238E+02  0.13636288099E+03  0.90987210253E+02 0.  0.
          5    1    3    3  502    0  0.28808213667E+01 -0.76651660428E+02 -0.18906749048E+03  0.20407783940E+03  0.41800000000E+01 0.  1.
         -5    1    3    3    0  502 -0.65509316123E+02  0.13687576188E+02 -0.69501458122E+02  0.96575076090E+02  0.41800000000E+01 0.  1.
        -11    1    4    4    0    0  0.77006817035E+02  0.53381645072E+02 -0.64163507318E+02  0.11356322280E+03  0.00000000000E+00 0. -1.
         11    1    4    4    0    0 -0.14378322279E+02  0.95824391679E+01  0.14874983079E+02  0.22799658190E+02  0.00000000000E+00 0.  1.
</event>
<event>
 8    1  0.3654190E-009  0.1879592E+03  0.7561462E-02  0.1160315E+00
         -1   -1    0    0    0  501 -0.00000000000E+00  0.00000000000E+00  0.22405898593E+02  0.22405898593E+02  0.00000000000E+00 0.  1.
          1   -1    0    0  501    0  0.00000000000E+00 -0.00000000000E+00 -0.20449022566E+04  0.20449022566E+04  0.00000000000E+00 0. -1.
         25    2    1    2    0    0  0.84619740616E+02  0.16041927363E+03 -0.11856605892E+04  0.12059575194E+04  0.12509061500E+03 0.  0.
         23    2    1    2    0    0 -0.84619740616E+02 -0.16041927363E+03 -0.83683576880E+03  0.86135063579E+03  0.93466410948E+02 0.  0.
          5    1    3    3  502    0  0.69943742594E+02  0.12444034127E+03 -0.11234450207E+04  0.11324856346E+04  0.41800000000E+01 0. -1.
         -5    1    3    3    0  502  0.14675998022E+02  0.35978932357E+02 -0.62215568543E+02  0.73471884831E+02  0.41800000000E+01 0. -1.
        -11    1    4    4    0    0 -0.22668637432E+02 -0.11499036348E+03 -0.62776995396E+03  0.63861707298E+03  0.00000000000E+00 0. -1.
         11    1    4    4    0    0 -0.61951103184E+02 -0.45428910150E+02 -0.20906581484E+03  0.22273356280E+03  0.00000000000E+00 0.  1.
</event>
<event>
 8    1  0.3654190E-009  0.1638508E+03  0.7561462E-02  0.1184417E+00
         -2   -1    0    0    0  501 -0.00000000000E+00  0.00000000000E+00  0.10046109843E+03  0.10046109843E+03  0.00000000000E+00 0.  1.
          2   -1    0    0  501    0  0.00000000000E+00 -0.00000000000E+00 -0.71157501845E+03  0.71157501845E+03  0.00000000000E+00 0. -1.
         25    2    1    2    0    0  0.13040652374E+03 -0.91813274791E+02 -0.59209520347E+03  0.62582777327E+03  0.12509249764E+03 0.  0.
         23    2    1    2    0    0 -0.13040652374E+03  0.91813274791E+02 -0.19018716554E+02  0.18620834361E+03  0.94214100799E+02 0.  0.
          5    1    3    3  502    0  0.10762093559E+03 -0.58504007317E+02 -0.22260801488E+03  0.25411962800E+03  0.41800000000E+01 0.  1.
         -5    1    3    3    0  502  0.22785588159E+02 -0.33309267475E+02 -0.36948718859E+03  0.37170814527E+03  0.41800000000E+01 0.  1.
        -11    1    4    4    0    0 -0.11617316321E+02 -0.36399212011E+01  0.24815507767E+02  0.27640920582E+02  0.00000000000E+00 0.  1.
         11    1    4    4    0    0 -0.11878920742E+03  0.95453195993E+02 -0.43834224321E+02  0.15856742303E+03  0.00000000000E+00 0. -1.
</event>
<event>
 8    1  0.3654190E-009  0.1575755E+03  0.7561462E-02  0.1191461E+00
         -1   -1    0    0    0  501 -0.00000000000E+00  0.00000000000E+00  0.40088162210E+02  0.40088162210E+02  0.00000000000E+00 0.  1.
          1   -1    0    0  501    0  0.00000000000E+00 -0.00000000000E+00 -0.99643404735E+03  0.99643404735E+03  0.00000000000E+00 0. -1.
         25    2    1    2    0    0 -0.78670002555E+02  0.13208914848E+03 -0.67040915494E+03  0.69909427391E+03  0.12509139193E+03 0.  0.
         23    2    1    2    0    0  0.78670002555E+02 -0.13208914848E+03 -0.28593673020E+03  0.33742793565E+03  0.91985246822E+02 0.  0.
          5    1    3    3  502    0 -0.56093013260E+02  0.67803968829E+02 -0.57539835641E+03  0.58210355203E+03  0.41800000000E+01 0.  1.
         -5    1    3    3    0  502 -0.22576989295E+02  0.64285179650E+02 -0.95010798532E+02  0.11699072188E+03  0.41800000000E+01 0.  1.
        -11    1    4    4    0    0  0.67926530510E+02 -0.77067902441E+02 -0.25140886720E+03  0.27158772734E+03  0.00000000000E+00 0. -1.
         11    1    4    4    0    0  0.10743472045E+02 -0.55021246039E+02 -0.34527862994E+02  0.65840208310E+02  0.00000000000E+00 0.  1.
</event>
<event>
 8    1  0.3654190E-009  0.8119541E+02  0.7561462E-02  0.1325693E+00
          2   -1    0    0  501    0  0.00000000000E+00  0.00000000000E+00  0.40265186097E+03  0.40265186097E+03  0.00000000000E+00 0. -1.
         -2   -1    0    0    0  501 -0.00000000000E+00 -0.00000000000E+00 -0.30859194166E+02  0.30859194166E+02  0.00000000000E+00 0.  1.
         25    2    1    2    0    0  0.27831112137E+02  0.18475080931E+01  0.20100844134E+03  0.23839778036E+03  0.12510445276E+03 0.  0.
         23    2    1    2    0    0 -0.27831112137E+02 -0.18475080931E+01  0.17078422546E+03  0.19511327478E+03  0.90132980860E+02 0.  0.
          5    1    3    3  502    0  0.96330935763E+01  0.52069770146E+02  0.16625144323E+03  0.17453100650E+03  0.41800000000E+01 0. -1.
         -5    1    3    3    0  502  0.18198018561E+02 -0.50222262053E+02  0.34756998118E+02  0.63866773861E+02  0.41800000000E+01 0. -1.
        -11    1    4    4    0    0 -0.16677246107E+02  0.23026497454E+02  0.16476016908E+03  0.16719528533E+03  0.00000000000E+00 0. -1.
         11    1    4    4    0    0 -0.11153866030E+02 -0.24874005547E+02  0.60240563843E+01  0.27917989446E+02  0.00000000000E+00 0.  1.
</event>
<event>
 8    1  0.3654190E-009  0.1366120E+03  0.7561462E-02  0.1217962E+00
          1   -1    0    0  501    0  0.00000000000E+00  0.00000000000E+00  0.51301051080E+03  0.51301051080E+03  0.00000000000E+00 0.  1.
         -1   -1    0    0    0  501 -0.00000000000E+00 -0.00000000000E+00 -0.86660999601E+02  0.86660999601E+02  0.00000000000E+00 0. -1.
         25    2    1    2    0    0  0.40021832192E+02 -0.81948203992E+02  0.44474090924E+03  0.47091364949E+03  0.12509170131E+03 0.  0.
         23    2    1    2    0    0 -0.40021832192E+02  0.81948203992E+02 -0.18391398035E+02  0.12875786092E+03  0.89011729769E+02 0.  0.
          5    1    3    3  502    0 -0.27497254094E+02 -0.73359319168E+02  0.31160881079E+03  0.32133349041E+03  0.41800000000E+01 0.  1.
         -5    1    3    3    0  502  0.67519086286E+02 -0.85888848242E+01  0.13313209844E+03  0.14958015908E+03  0.41800000000E+01 0.  1.
        -11    1    4    4    0    0 -0.77329480264E+01  0.92335876563E+02 -0.67802596779E+01  0.92906859311E+02  0.00000000000E+00 0.  1.
         11    1    4    4    0    0 -0.32288884166E+02 -0.10387672570E+02 -0.11611138358E+02  0.35851001605E+02  0.00000000000E+00 0. -1.
</event>
<event>
 8    1  0.3654190E-009  0.8673875E+02  0.7561462E-02  0.1310947E+00
         -2   -1    0    0    0  501 -0.00000000000E+00  0.00000000000E+00  0.12286523579E+02  0.12286523579E+02  0.00000000000E+00 0.  1.
          2   -1    0    0  501    0  0.00000000000E+00 -0.00000000000E+00 -0.10044590240E+04  0.10044590240E+04  0.00000000000E+00 0. -1.
         25    2    1    2    0    0  0.11099352214E+02  0.25838545296E+02 -0.65667324091E+03  0.66906914083E+03  0.12507175478E+03 0.  0.
         23    2    1    2    0    0 -0.11099352214E+02 -0.25838545296E+02 -0.33549925953E+03  0.34767640676E+03  0.86765803367E+02 0.  0.
          5    1    3    3  502    0 -0.29007081072E+02 -0.12917869568E+02 -0.47230947114E+02  0.57065899378E+02  0.41800000000E+01 0. -1.
         -5    1    3    3    0  502  0.40106433286E+02  0.38756414863E+02 -0.60944229379E+03  0.61200324145E+03  0.41800000000E+01 0. -1.
        -11    1    4    4    0    0 -0.46168663006E+02 -0.18219692846E+02 -0.13171543887E+03  0.14075673870E+03  0.00000000000E+00 0.  1.
         11    1    4    4    0    0  0.35069310793E+02 -0.76188524497E+01 -0.20378382065E+03  0.20691966806E+03  0.00000000000E+00 0. -1.
</event>
<event>
 8    1  0.3654190E-009  0.3955571E+03  0.7561462E-02  0.1045329E+00
         -2   -1    0    0    0  501 -0.00000000000E+00  0.00000000000E+00  0.16439956162E+04  0.16439956162E+04  0.00000000000E+00 0.  1.
          2   -1    0    0  501    0  0.00000000000E+00 -0.00000000000E+00 -0.99413513705E+02  0.99413513705E+02  0.00000000000E+00 0. -1.
         25    2    1    2    0    0 -0.67703202566E+02 -0.38300185870E+03  0.76811649150E+03  0.87001501254E+03  0.12509608358E+03 0.  0.
         23    2    1    2    0    0  0.67703202566E+02  0.38300185870E+03  0.77646561100E+03  0.87339411737E+03  0.92974683562E+02 0.  0.
          5    1    3    3  502    0  0.22772063120E+02 -0.11651649566E+03  0.31434310055E+03  0.33604124431E+03  0.41800000000E+01 0. -1.
         -5    1    3    3    0  502 -0.90475265686E+02 -0.26648536304E+03  0.45377339095E+03  0.53397376822E+03  0.41800000000E+01 0. -1.
        -11    1    4    4    0    0  0.62640131369E+02  0.24873917566E+03  0.41624738582E+03  0.48893440231E+03  0.00000000000E+00 0. -1.
         11    1    4    4    0    0  0.50630711967E+01  0.13426268304E+03  0.36021822518E+03  0.38445971506E+03  0.00000000000E+00 0.  1.
</event>
<event>
 8    1  0.3654190E-009  0.1033116E+03  0.7561462E-02  0.1273482E+00
         -2   -1    0    0    0  501 -0.00000000000E+00  0.00000000000E+00  0.64368926014E+02  0.64368926014E+02  0.00000000000E+00 0.  1.
          2   -1    0    0  501    0  0.00000000000E+00 -0.00000000000E+00 -0.21318274969E+03  0.21318274969E+03  0.00000000000E+00 0. -1.
         25    2    1    2    0    0  0.14070539708E+01 -0.29263084742E+02 -0.43952556522E+02  0.13579368703E+03  0.12509912183E+03 0.  0.
         23    2    1    2    0    0 -0.14070539708E+01  0.29263084742E+02 -0.10486126716E+03  0.14175798868E+03  0.90780692190E+02 0.  0.
          5    1    3    3  502    0  0.39503831650E+02 -0.54141021559E+02  0.68104126432E+01  0.67495607641E+02  0.41800000000E+01 0. -1.
         -5    1    3    3    0  502 -0.38096777679E+02  0.24877936817E+02 -0.50762969165E+02  0.68298079389E+02  0.41800000000E+01 0. -1.
        -11    1    4    4    0    0  0.68606087142E+01  0.60795787017E+02 -0.55501231063E+02  0.82604977577E+02  0.00000000000E+00 0.  1.
         11    1    4    4    0    0 -0.82676626850E+01 -0.31532702275E+02 -0.49360036094E+02  0.59153011101E+02  0.00000000000E+00 0. -1.
</event>
<event>
 8    1  0.3654190E-009  0.8797210E+02  0.7561462E-02  0.1307838E+00
         -1   -1    0    0    0  501 -0.00000000000E+00  0.00000000000E+00  0.42990950326E+02  0.42990950326E+02  0.00000000000E+00 0.  1.
          1   -1    0    0  501    0  0.00000000000E+00 -0.00000000000E+00 -0.43108448362E+03  0.43108448362E+03  0.00000000000E+00 0. -1.
         25    2    1    2    0    0 -0.38818530275E+02 -0.59630689717E+02 -0.13839700714E+03  0.19965033356E+03  0.12507528396E+03 0.  0.
         23    2    1    2    0    0  0.38818530275E+02  0.59630689717E+02 -0.24969652615E+03  0.27442510039E+03  0.88871160115E+02 0.  0.
          5    1    3    3  502    0 -0.32362247853E+01  0.25479635039E+01 -0.12682593627E+03  0.12696163113E+03  0.41800000000E+01 0.  1.
         -5    1    3    3    0  502 -0.35582305489E+02 -0.62178653220E+02 -0.11571070876E+02  0.72688702434E+02  0.41800000000E+01 0.  1.
        -11    1    4    4    0    0  0.47733438641E+02  0.11147242472E+02 -0.55399296874E+02  0.73971780250E+02  0.00000000000E+00 0.  1.
         11    1    4    4    0    0 -0.89149083664E+01  0.48483447245E+02 -0.19429722928E+03  0.20045332014E+03  0.00000000000E+00 0. -1.
</event>
<event>
 8    1  0.3654190E-009  0.1694963E+03  0.7561462E-02  0.1178374E+00
         -1   -1    0    0    0  501 -0.00000000000E+00  0.00000000000E+00  0.66254996109E+02  0.66254996109E+02  0.00000000000E+00 0.  1.
          1   -1    0    0  501    0  0.00000000000E+00 -0.00000000000E+00 -0.47140703138E+03  0.47140703138E+03  0.00000000000E+00 0. -1.
         25    2    1    2    0    0 -0.92967317379E+02 -0.10024293677E+03 -0.25093030850E+03  0.31193773651E+03  0.12509022048E+03 0.  0.
         23    2    1    2    0    0  0.92967317379E+02  0.10024293677E+03 -0.15422172678E+03  0.22572429099E+03  0.92062728938E+02 0.  0.
          5    1    3    3  502    0 -0.18954699333E+02 -0.10804079870E+03 -0.13331873328E+03  0.17269467813E+03  0.41800000000E+01 0.  1.
         -5    1    3    3    0  502 -0.74012618046E+02  0.77978619289E+01 -0.11761157522E+03  0.13924305838E+03  0.41800000000E+01 0.  1.
        -11    1    4    4    0    0  0.18191998435E+02 -0.10540567841E+02  0.79841869804E+00  0.21040196052E+02  0.00000000000E+00 0.  1.
         11    1    4    4    0    0  0.74775318944E+02  0.11078350461E+03 -0.15502014547E+03  0.20468409494E+03  0.00000000000E+00 0. -1.
</event>
<event>
 8    1  0.3654190E-009  0.1332872E+03  0.7561462E-02  0.1222658E+00
         -2   -1    0    0    0  501 -0.00000000000E+00  0.00000000000E+00  0.16260004579E+03  0.16260004579E+03  0.00000000000E+00 0.  1.
          2   -1    0    0  501    0  0.00000000000E+00 -0.00000000000E+00 -0.14119753929E+03  0.14119753929E+03  0.00000000000E+00 0. -1.
         25    2    1    2    0    0  0.80099028262E+02  0.52748205556E+02  0.55894077228E+02  0.16724050887E+03  0.12508801869E+03 0.  0.
         23    2    1    2    0    0 -0.80099028262E+02 -0.52748205556E+02 -0.34491570733E+02  0.13655707621E+03  0.90884207069E+02 0.  0.
          5    1    3    3  502    0  0.48176736266E+02 -0.31348773201E+02 -0.60449834155E+01  0.57946162279E+02  0.41800000000E+01 0. -1.
         -5    1    3    3    0  502  0.31922291996E+02  0.84096978757E+02  0.61939060644E+02  0.10929434659E+03  0.41800000000E+01 0. -1.
        -11    1    4    4    0    0 -0.16525402071E+02 -0.52795961012E+02  0.13449530672E+02  0.56933226574E+02  0.00000000000E+00 0.  1.
         11    1    4    4    0    0 -0.63573626191E+02  0.47755455628E-01 -0.47941101405E+02  0.79623849641E+02  0.00000000000E+00 0. -1.
</event>
<event>
 8    1  0.3654190E-009  0.9061084E+02  0.7561462E-02  0.1301379E+00
         -1   -1    0    0    0  501 -0.00000000000E+00  0.00000000000E+00  0.38973034739E+02  0.38973034739E+02  0.00000000000E+00 0.  1.
          1   -1    0    0  501    0  0.00000000000E+00 -0.00000000000E+00 -0.33590416258E+03  0.33590416258E+03  0.00000000000E+00 0. -1.
         25    2    1    2    0    0  0.17624222949E+02  0.72076733591E+01 -0.11680722776E+03  0.17220283823E+03  0.12508926911E+03 0.  0.
         23    2    1    2    0    0 -0.17624222949E+02 -0.72076733591E+01 -0.18012390008E+03  0.20267435909E+03  0.90937960514E+02 0.  0.
          5    1    3    3  502    0  0.28244355997E+02  0.61140109150E+02 -0.85105459547E+02  0.10861062672E+03  0.41800000000E+01 0. -1.
         -5    1    3    3    0  502 -0.10620133048E+02 -0.53932435791E+02 -0.31701768214E+02  0.63592211506E+02  0.41800000000E+01 0. -1.
        -11    1    4    4    0    0 -0.15290380352E+02  0.23382133980E+02 -0.16697579055E+03  0.16929688287E+03  0.00000000000E+00 0. -1.
         11    1    4    4    0    0 -0.23338425964E+01 -0.30589807339E+02 -0.13148109529E+02  0.33377476215E+02  0.00000000000E+00 0.  1.
</event>
<event>
 8    1  0.3654190E-009  0.1370254E+03  0.7561462E-02  0.1217388E+00
          1   -1    0    0  501    0  0.00000000000E+00  0.00000000000E+00  0.13092699785E+04  0.13092699785E+04  0.00000000000E+00 0. -1.
         -1   -1    0    0    0  501 -0.00000000000E+00 -0.00000000000E+00 -0.22526916287E+02  0.22526916287E+02  0.00000000000E+00 0.  1.
         25    2    1    2    0    0  0.11445546930E+03  0.67063722618E+02  0.70395966201E+03  0.72718987753E+03  0.12509322486E+03 0.  0.
         23    2    1    2    0    0 -0.11445546930E+03 -0.67063722618E+02  0.58278340019E+03  0.60460701724E+03  0.91189672741E+02 0.  0.
          5    1    3    3  502    0  0.75231321765E+02  0.50630917157E+02  0.18101511143E+03  0.20250230743E+03  0.41800000000E+01 0. -1.
         -5    1    3    3    0  502  0.39224147534E+02  0.16432805461E+02  0.52294455058E+03  0.52468757010E+03  0.41800000000E+01 0. -1.
        -11    1    4    4    0    0 -0.80744534441E+02 -0.69781448698E+02  0.53802860048E+03  0.54851062465E+03  0.00000000000E+00 0. -1.
         11    1    4    4    0    0 -0.33710934858E+02  0.27177260800E+01  0.44754799714E+02  0.56096392589E+02  0.00000000000E+00 0.  1.
</event>
<event>
 8    1  0.3654190E-009  0.1196994E+03  0.7561462E-02  0.1243594E+00
         -2   -1    0    0    0  501 -0.00000000000E+00  0.00000000000E+00  0.58763164758E+02  0.58763164758E+02  0.00000000000E+00 0.  1.
          2   -1    0    0  501    0  0.00000000000E+00 -0.00000000000E+00 -0.58396233966E+03  0.58396233966E+03  0.00000000000E+00 0. -1.
         25    2    1    2    0    0  0.34614888339E+02 -0.79747386118E+02 -0.48973390575E+03  0.51287835978E+03  0.12508827845E+03 0.  0.
         23    2    1    2    0    0 -0.34614888339E+02  0.79747386118E+02 -0.35465269154E+02  0.12984714464E+03  0.89692026217E+02 0.  0.
          5    1    3    3  502    0  0.24194403180E+02  0.29239371409E+02 -0.78402456930E+02  0.87205089521E+02  0.41800000000E+01 0.  1.
         -5    1    3    3    0  502  0.10420485159E+02 -0.10898675753E+03 -0.41133144882E+03  0.42567327026E+03  0.41800000000E+01 0.  1.
        -11    1    4    4    0    0  0.11025001638E+00  0.35064683203E+02  0.27959061218E+02  0.44846998421E+02  0.00000000000E+00 0.  1.
         11    1    4    4    0    0 -0.34725138355E+02  0.44682702916E+02 -0.63424330373E+02  0.85000146217E+02  0.00000000000E+00 0. -1.
</event>
<event>
 8    1  0.3654190E-009  0.1382228E+03  0.7561462E-02  0.1215740E+00
          1   -1    0    0  501    0  0.00000000000E+00  0.00000000000E+00  0.36753928018E+03  0.36753928018E+03  0.00000000000E+00 0. -1.
         -1   -1    0    0    0  501 -0.00000000000E+00 -0.00000000000E+00 -0.63663884953E+02  0.63663884953E+02  0.00000000000E+00 0.  1.
         25    2    1    2    0    0  0.10308572424E+03  0.20670187138E+02  0.18995566459E+03  0.25057100055E+03  0.12509495845E+03 0.  0.
         23    2    1    2    0    0 -0.10308572424E+03 -0.20670187138E+02  0.11391973063E+03  0.18063216458E+03  0.92716507020E+02 0.  0.
          5    1    3    3  502    0 -0.12953284320E+01  0.53492393586E+02  0.68939233625E+02  0.87368211497E+02  0.41800000000E+01 0.  1.
         -5    1    3    3    0  502  0.10438105267E+03 -0.32822206448E+02  0.12101643097E+03  0.16320278906E+03  0.41800000000E+01 0.  1.
        -11    1    4    4    0    0 -0.33603416723E+02  0.13042536060E+02  0.94293398005E+02  0.10094821578E+03  0.00000000000E+00 0. -1.
         11    1    4    4    0    0 -0.69482307514E+02 -0.33712723198E+02  0.19626332628E+02  0.79683948793E+02  0.00000000000E+00 0.  1.
</event>
<event>
 8    1  0.3654190E-009  0.6321601E+02  0.7561462E-02  0.1384811E+00
          1   -1    0    0  501    0  0.00000000000E+00  0.00000000000E+00  0.22970757232E+03  0.22970757232E+03  0.00000000000E+00 0. -1.
         -1   -1    0    0    0  501 -0.00000000000E+00 -0.00000000000E+00 -0.54031650537E+02  0.54031650537E+02  0.00000000000E+00 0.  1.
         25    2    1    2    0    0  0.20940817807E+02  0.93602504464E+01  0.83150440104E+02  0.15194466463E+03  0.12508818203E+03 0.  0.
         23    2    1    2    0    0 -0.20940817807E+02 -0.93602504464E+01  0.92525481684E+02  0.13179455823E+03  0.91009387859E+02 0.  0.
          5    1    3    3  502    0  0.40625512068E+02  0.14873356857E+02 -0.19180622257E+02  0.47508079788E+02  0.41800000000E+01 0.  1.
         -5    1    3    3    0  502 -0.19684694261E+02 -0.55131064108E+01  0.10233106236E+03  0.10443658485E+03  0.41800000000E+01 0.  1.
        -11    1    4    4    0    0 -0.19283272760E+02  0.22822036102E+02  0.94890301611E+02  0.99482959747E+02  0.00000000000E+00 0. -1.
         11    1    4    4    0    0 -0.16575450473E+01 -0.32182286549E+02 -0.23648199264E+01  0.32311598481E+02  0.00000000000E+00 0.  1.
</event>
<event>
 8    1  0.3654190E-009  0.1017787E+03  0.7561462E-02  0.1276600E+00
          1   -1    0    0  501    0  0.00000000000E+00  0.00000000000E+00  0.17237567605E+03  0.17237567605E+03  0.00000000000E+00 0. -1.
         -1   -1    0    0    0  501 -0.00000000000E+00 -0.00000000000E+00 -0.78297574111E+02  0.78297574111E+02  0.00000000000E+00 0.  1.
         25    2    1    2    0    0  0.25988747693E+02  0.33553352409E+02  0.44600815389E+02  0.13942272090E+03  0.12509284514E+03 0.  0.
         23    2    1    2    0    0 -0.25988747693E+02 -0.33553352409E+02  0.49477286553E+02  0.11125052927E+03  0.90152292889E+02 0.  0.
          5    1    3    3  502    0  0.58494184031E+02  0.51804105099E+02  0.60271130953E+02  0.98769005750E+02  0.41800000000E+01 0. -1.
         -5    1    3    3    0  502 -0.32505436339E+02 -0.18250752689E+02 -0.15670315564E+02  0.40653715146E+02  0.41800000000E+01 0. -1.
        -11    1    4    4    0    0  0.27273861067E+02 -0.64088359847E+01 -0.71422760719E+01  0.28912778899E+02  0.00000000000E+00 0.  1.
         11    1    4    4    0    0 -0.53262608760E+02 -0.27144516425E+02  0.56619562625E+02  0.82337750368E+02  0.00000000000E+00 0. -1.
</event>
<event>
 8    1  0.3654190E-009  0.9083187E+02  0.7561462E-02  0.1300850E+00
          2   -1    0    0  501    0  0.00000000000E+00  0.00000000000E+00  0.97621646398E+03  0.97621646398E+03  0.00000000000E+00 0. -1.
         -2   -1    0    0    0  501 -0.00000000000E+00 -0.00000000000E+00 -0.15572517570E+02  0.15572517570E+02  0.00000000000E+00 0.  1.
         25    2    1    2    0    0 -0.24834856114E+02 -0.42803985230E+02  0.67671513762E+03  0.68995689644E+03  0.12509272652E+03 0.  0.
         23    2    1    2    0    0  0.24834856114E+02  0.42803985230E+02  0.28392880879E+03  0.30183208511E+03  0.89655384178E+02 0.  0.
          5    1    3    3  502    0 -0.33347893025E+02 -0.65254659865E+02  0.64863661894E+03  0.65277652258E+03  0.41800000000E+01 0.  1.
         -5    1    3    3    0  502  0.85130369109E+01  0.22450674634E+02  0.28078518684E+02  0.37180373862E+02  0.41800000000E+01 0.  1.
        -11    1    4    4    0    0  0.45519398655E+02  0.12506913159E+02  0.24000724767E+03  0.24460563662E+03  0.00000000000E+00 0.  1.
         11    1    4    4    0    0 -0.20684542541E+02  0.30297072071E+02  0.43921561125E+02  0.57226448499E+02  0.00000000000E+00 0. -1.
</event>
<event>
 8    1  0.3654190E-009  0.1308846E+03  0.7561462E-02  0.1226149E+00
          4   -1    0    0  501    0  0.00000000000E+00  0.00000000000E+00  0.10556583478E+03  0.10556583478E+03  0.00000000000E+00 0. -1.
         -4   -1    0    0    0  501 -0.00000000000E+00 -0.00000000000E+00 -0.19439866729E+03  0.19439866729E+03  0.00000000000E+00 0.  1.
         25    2    1    2    0    0 -0.57222072590E+02  0.69572620831E+02 -0.25526026696E+02  0.15625263518E+03  0.12509433561E+03 0.  0.
         23    2    1    2    0    0  0.57222072590E+02 -0.69572620831E+02 -0.63306805814E+02  0.14371186689E+03  0.92361430602E+02 0.  0.
          5    1    3    3  502    0 -0.51230402577E+01 -0.35329664984E+02  0.15029788401E+01  0.35974464760E+02  0.41800000000E+01 0.  1.
         -5    1    3    3    0  502 -0.52099032332E+02  0.10490228582E+03 -0.27029005537E+02  0.12027817042E+03  0.41800000000E+01 0.  1.
        -11    1    4    4    0    0  0.29899050881E+02 -0.75024327657E+02 -0.72184018177E+01  0.81084575036E+02  0.00000000000E+00 0. -1.
         11    1    4    4    0    0  0.27323021709E+02  0.54517068255E+01 -0.56088403996E+02  0.62627291858E+02  0.00000000000E+00 0.  1.
</event>
<event>
 8    1  0.3654190E-009  0.8362430E+02  0.7561462E-02  0.1319070E+00
          2   -1    0    0  501    0  0.00000000000E+00  0.00000000000E+00  0.30722771452E+03  0.30722771452E+03  0.00000000000E+00 0. -1.
         -2   -1    0    0    0  501 -0.00000000000E+00 -0.00000000000E+00 -0.53932573431E+02  0.53932573431E+02  0.00000000000E+00 0.  1.
         25    2    1    2    0    0  0.34710440121E+02  0.54043801575E+02  0.10511119492E+03  0.17556158498E+03  0.12509180502E+03 0.  0.
         23    2    1    2    0    0 -0.34710440121E+02 -0.54043801575E+02  0.14818394617E+03  0.18559870297E+03  0.91448616713E+02 0.  0.
          5    1    3    3  502    0  0.38660715557E+01  0.46759881106E+02  0.12790291249E+03  0.13630135881E+03  0.41800000000E+01 0. -1.
         -5    1    3    3    0  502  0.30844368565E+02  0.72839204689E+01 -0.22791717569E+02  0.39260226175E+02  0.41800000000E+01 0. -1.
        -11    1    4    4    0    0 -0.49764071670E+02 -0.25525729957E+02  0.30764539147E+02  0.63831673861E+02  0.00000000000E+00 0.  1.
         11    1    4    4    0    0  0.15053631549E+02 -0.28518071618E+02  0.11741940703E+03  0.12176702911E+03  0.00000000000E+00 0. -1.
</event>
<event>
 8    1  0.3654190E-009  0.1429403E+03  0.7561462E-02  0.1209426E+00
         -1   -1    0    0    0  501 -0.00000000000E+00  0.00000000000E+00  0.20759114380E+03  0.20759114380E+03  0.00000000000E+00 0.  1.
          1   -1    0    0  501    0  0.00000000000E+00 -0.00000000000E+00 -0.10602874996E+03  0.10602874996E+03  0.00000000000E+00 0. -1.
         25    2    1    2    0    0  0.37269082168E+02  0.92816143150E+02  0.51926642245E+02  0.16836762409E+03  0.12508980675E+03 0.  0.
         23    2    1    2    0    0 -0.37269082168E+02 -0.92816143150E+02  0.49635751597E+02  0.14525226967E+03  0.92901523638E+02 0.  0.
          5    1    3    3  502    0 -0.20038492860E+02 -0.23034565944E+02  0.11217005934E+02  0.32793689125E+02  0.41800000000E+01 0. -1.
         -5    1    3    3    0  502  0.57307575028E+02  0.11585070909E+03  0.40709636311E+02  0.13557393496E+03  0.41800000000E+01 0. -1.
        -11    1    4    4    0    0 -0.78030125636E+01 -0.95812174328E+02  0.60638184476E+02  0.11365671635E+03  0.00000000000E+00 0.  1.
         11    1    4    4    0    0 -0.29466069604E+02  0.29960311786E+01 -0.11002432879E+02  0.31595553326E+02  0.00000000000E+00 0. -1.
</event>
<event>
 8    1  0.3654190E-009  0.1150303E+03  0.7561462E-02  0.1251528E+00
         -2   -1    0    0    0  501 -0.00000000000E+00  0.00000000000E+00  0.16337490232E+03  0.16337490232E+03  0.00000000000E+00 0.  1.
          2   -1    0    0  501    0  0.00000000000E+00 -0.00000000000E+00 -0.19149088967E+03  0.19149088967E+03  0.00000000000E+00 0. -1.
         25    2    1    2    0    0  0.22378783309E+02  0.59239538932E+02  0.11015061150E+03  0.17829790627E+03  0.12508738246E+03 0.  0.
         23    2    1    2    0    0 -0.22378783309E+02 -0.59239538932E+02 -0.13826659885E+03  0.17656788572E+03  0.89713059215E+02 0.  0.
          5    1    3    3  502    0  0.15849051856E+01 -0.29442159711E+02  0.74786498807E+02  0.80497487518E+02  0.41800000000E+01 0.  1.
         -5    1    3    3    0  502  0.20793878123E+02  0.88681698643E+02  0.35364112694E+02  0.97800418753E+02  0.41800000000E+01 0.  1.
        -11    1    4    4    0    0 -0.46205921720E+02 -0.10483640277E+01 -0.68641052160E+02  0.82750711845E+02  0.00000000000E+00 0. -1.
         11    1    4    4    0    0  0.23827138411E+02 -0.58191174904E+02 -0.69625546687E+02  0.93817173871E+02  0.00000000000E+00 0.  1.
</event>
<event>
 8    1  0.3654190E-009  0.1415522E+03  0.7561462E-02  0.1211255E+00
         -1   -1    0    0    0  501 -0.00000000000E+00  0.00000000000E+00  0.14981428381E+03  0.14981428381E+03  0.00000000000E+00 0.  1.
          1   -1    0    0  501    0  0.00000000000E+00 -0.00000000000E+00 -0.15930898983E+03  0.15930898983E+03  0.00000000000E+00 0. -1.
         25    2    1    2    0    0  0.93500743195E+02 -0.53349210025E+02  0.16679806861E+02  0.16587108833E+03  0.12508586970E+03 0.  0.
         23    2    1    2    0    0 -0.93500743195E+02  0.53349210025E+02 -0.26174512878E+02  0.14325218530E+03  0.90816057401E+02 0.  0.
          5    1    3    3  502    0  0.16458488819E+02  0.32254553340E+02  0.33377712321E+02  0.49424509559E+02  0.41800000000E+01 0. -1.
         -5    1    3    3    0  502  0.77042254377E+02 -0.85603763365E+02 -0.16697905460E+02  0.11644657878E+03  0.41800000000E+01 0. -1.
        -11    1    4    4    0    0 -0.58013768169E+02 -0.99317140635E+01  0.13747213057E+02  0.60441890343E+02  0.00000000000E+00 0.  1.
         11    1    4    4    0    0 -0.35486975026E+02  0.63280924089E+02 -0.39921725934E+02  0.82810294961E+02  0.00000000000E+00 0. -1.
</event>
<event>
 8    1  0.3654190E-009  0.3144682E+03  0.7561462E-02  0.1078224E+00
          2   -1    0    0  501    0  0.00000000000E+00  0.00000000000E+00  0.13027988307E+04  0.13027988307E+04  0.00000000000E+00 0. -1.
         -2   -1    0    0    0  501 -0.00000000000E+00 -0.00000000000E+00 -0.85630663844E+02  0.85630663844E+02  0.00000000000E+00 0.  1.
         25    2    1    2    0    0 -0.48406834096E+02 -0.30120887324E+03  0.45351429141E+03  0.56070711118E+03  0.12508894880E+03 0.  0.
         23    2    1    2    0    0  0.48406834096E+02  0.30120887324E+03  0.76365387542E+03  0.82772238334E+03  0.94271392967E+02 0.  0.
          5    1    3    3  502    0 -0.62396240138E+02 -0.26032027205E+03  0.44032896633E+03  0.51533193750E+03  0.41800000000E+01 0.  1.
         -5    1    3    3    0  502  0.13989406042E+02 -0.40888601189E+02  0.13185325079E+02  0.45375173675E+02  0.41800000000E+01 0.  1.
        -11    1    4    4    0    0  0.61020993871E+02  0.10701762146E+03  0.25760144012E+03  0.28554305270E+03  0.00000000000E+00 0. -1.
         11    1    4    4    0    0 -0.12614159776E+02  0.19419125178E+03  0.50605243530E+03  0.54217933064E+03  0.00000000000E+00 0.  1.
</event>
<event>
 8    1  0.3654190E-009  0.7177416E+02  0.7561462E-02  0.1354162E+00
          2   -1    0    0  501    0  0.00000000000E+00  0.00000000000E+00  0.45262620651E+03  0.45262620651E+03  0.00000000000E+00 0. -1.
         -2   -1    0    0    0  501 -0.00000000000E+00 -0.00000000000E+00 -0.30219309670E+02  0.30219309670E+02  0.00000000000E+00 0.  1.
         25    2    1    2    0    0  0.32854026957E+01 -0.38250725327E+02  0.24408508347E+03  0.27694747296E+03  0.12509381658E+03 0.  0.
         23    2    1    2    0    0 -0.32854026957E+01  0.38250725327E+02  0.17832181337E+03  0.20589804322E+03  0.95506142318E+02 0.  0.
          5    1    3    3  502    0  0.78683079226E+01 -0.16362546480E+02  0.25212954121E+03  0.25281697164E+03  0.41800000000E+01 0. -1.
         -5    1    3    3    0  502 -0.45829052269E+01 -0.21888178847E+02 -0.80444577424E+01  0.24130501319E+02  0.41800000000E+01 0. -1.
        -11    1    4    4    0    0 -0.24817523378E+02  0.63975340597E+02  0.10752569520E+03  0.12755598300E+03  0.00000000000E+00 0. -1.
         11    1    4    4    0    0  0.21532120682E+02 -0.25724615270E+02  0.70796118172E+02  0.78342060224E+02  0.00000000000E+00 0.  1.
</event>
<event>
 8    1  0.3654190E-009  0.8729305E+02  0.7561462E-02  0.1309543E+00
         -2   -1    0    0    0  501 -0.00000000000E+00  0.00000000000E+00  0.12719908453E+03  0.12719908453E+03  0.00000000000E+00 0.  1.
          2   -1    0    0  501    0  0.00000000000E+00 -0.00000000000E+00 -0.19376101563E+03  0.19376101563E+03  0.00000000000E+00 0. -1.
         25    2    1    2    0    0 -0.55300615902E+02  0.44717968942E+02  0.54783748367E+02  0.15396939940E+03  0.12508981574E+03 0.  0.
         23    2    1    2    0    0  0.55300615902E+02 -0.44717968942E+02 -0.12134567947E+03  0.16699070076E+03  0.90018138997E+02 0.  0.
          5    1    3    3  502    0 -0.28322152517E+02  0.46134009651E+01 -0.38870313821E+02  0.48495375947E+02  0.41800000000E+01 0.  1.
         -5    1    3    3    0  502 -0.26978463385E+02  0.40104567977E+02  0.93654062188E+02  0.10547402345E+03  0.41800000000E+01 0.  1.
        -11    1    4    4    0    0  0.22470046711E+02 -0.57582932505E+02 -0.29265280156E+02  0.68389719533E+02  0.00000000000E+00 0.  1.
         11    1    4    4    0    0  0.32830569190E+02  0.12864963564E+02 -0.92080399317E+02  0.98600981228E+02  0.00000000000E+00 0. -1.
</event>
<event>
 8    1  0.3654190E-009  0.6294404E+02  0.7561462E-02  0.1385876E+00
         -2   -1    0    0    0  501 -0.00000000000E+00  0.00000000000E+00  0.29145555437E+02  0.29145555437E+02  0.00000000000E+00 0.  1.
          2   -1    0    0  501    0  0.00000000000E+00 -0.00000000000E+00 -0.49030247003E+03  0.49030247003E+03  0.00000000000E+00 0. -1.
         25    2    1    2    0    0 -0.45185383230E+02 -0.21583912745E+02 -0.23972465988E+03  0.27499576939E+03  0.12508867446E+03 0.  0.
         23    2    1    2    0    0  0.45185383230E+02  0.21583912745E+02 -0.22143225472E+03  0.24445225608E+03  0.90648099426E+02 0.  0.
          5    1    3    3  502    0  0.63067628304E+01 -0.35134345582E+01  0.13529790685E+02  0.15894877029E+02  0.41800000000E+01 0. -1.
         -5    1    3    3    0  502 -0.51492146061E+02 -0.18070478187E+02 -0.25325445057E+03  0.25910089236E+03  0.41800000000E+01 0. -1.
        -11    1    4    4    0    0  0.50941094559E+02  0.13161438991E+02 -0.22687082065E+03  0.23289179431E+03  0.00000000000E+00 0. -1.
         11    1    4    4    0    0 -0.57557113282E+01  0.84224737539E+01  0.54385659394E+01  0.11560461777E+02  0.00000000000E+00 0.  1.
</event>
<event>
 8    1  0.3654190E-009  0.7956296E+02  0.7561462E-02  0.1330296E+00
         -3   -1    0    0    0  501 -0.00000000000E+00  0.00000000000E+00  0.69339421219E+02  0.69339421219E+02  0.00000000000E+00 0.  1.
          3   -1    0    0  501    0  0.00000000000E+00 -0.00000000000E+00 -0.18057657586E+03  0.18057657586E+03  0.00000000000E+00 0. -1.
         25    2    1    2    0    0 -0.30698101190E+02  0.64586003438E+01 -0.55742084052E+02  0.14049525986E+03  0.12509057188E+03 0.  0.
         23    2    1    2    0    0  0.30698101190E+02 -0.64586003438E+01 -0.55495070588E+02  0.10942073722E+03  0.88933165571E+02 0.  0.
          5    1    3    3  502    0 -0.71628299180E+02  0.19668778462E+01 -0.66375783366E+02  0.97763484335E+02  0.41800000000E+01 0.  1.
         -5    1    3    3    0  502  0.40930197990E+02  0.44917224976E+01  0.10633699314E+02  0.42731775525E+02  0.41800000000E+01 0.  1.
        -11    1    4    4    0    0  0.90766004123E+01 -0.18935160533E+02 -0.74909429303E+02  0.77796835270E+02  0.00000000000E+00 0. -1.
         11    1    4    4    0    0  0.21621500778E+02  0.12476560189E+02  0.19414358715E+02  0.31623901947E+02  0.00000000000E+00 0.  1.
</event>
<event>
 8    1  0.3654190E-009  0.1102726E+03  0.7561462E-02  0.1260066E+00
          1   -1    0    0  501    0  0.00000000000E+00  0.00000000000E+00  0.55134782634E+03  0.55134782634E+03  0.00000000000E+00 0.  1.
         -1   -1    0    0    0  501 -0.00000000000E+00 -0.00000000000E+00 -0.24605096348E+02  0.24605096348E+02  0.00000000000E+00 0. -1.
         25    2    1    2    0    0 -0.21861016527E+02  0.26991768217E+02  0.35898805940E+03  0.38174202935E+03  0.12509232824E+03 0.  0.
         23    2    1    2    0    0  0.21861016527E+02 -0.26991768217E+02  0.16775467059E+03  0.19421089333E+03  0.91486512617E+02 0.  0.
          5    1    3    3  502    0  0.46732610000E+02 -0.49473953398E+01  0.20178458732E+03  0.20722670108E+03  0.41800000000E+01 0. -1.
         -5    1    3    3    0  502 -0.68593626527E+02  0.31939163557E+02  0.15720347208E+03  0.17451532827E+03  0.41800000000E+01 0. -1.
        -11    1    4    4    0    0 -0.44636539032E+01  0.32355436091E+02  0.63141872810E+02  0.71089342048E+02  0.00000000000E+00 0.  1.
         11    1    4    4    0    0  0.26324670431E+02 -0.59347204308E+02  0.10461279778E+03  0.12312155129E+03  0.00000000000E+00 0. -1.
</event>
<event>
 8    1  0.3654190E-009  0.2416796E+03  0.7561462E-02  0.1118679E+00
         -2   -1    0    0    0  501 -0.00000000000E+00  0.00000000000E+00  0.82220879383E+02  0.82220879383E+02  0.00000000000E+00 0.  1.
          2   -1    0    0  501    0  0.00000000000E+00 -0.00000000000E+00 -0.85777960046E+03  0.85777960046E+03  0.00000000000E+00 0. -1.
         25    2    1    2    0    0  0.16060635524E+03  0.16338060741E+03 -0.26047943218E+03  0.36876082819E+03  0.12508952633E+03 0.  0.
         23    2    1    2    0    0 -0.16060635524E+03 -0.16338060741E+03 -0.51507928890E+03  0.57123965166E+03  0.92306237864E+02 0.  0.
          5    1    3    3  502    0  0.67836134893E+01 -0.12570404678E+02 -0.56820193179E+02  0.58737034643E+02  0.41800000000E+01 0. -1.
         -5    1    3    3    0  502  0.15382274175E+03  0.17595101209E+03 -0.20365923900E+03  0.31002379354E+03  0.41800000000E+01 0. -1.
        -11    1    4    4    0    0 -0.15168181559E+03 -0.12871906570E+03 -0.35245068778E+03  0.40471898692E+03  0.00000000000E+00 0.  1.
         11    1    4    4    0    0 -0.89245396448E+01 -0.34661541705E+02 -0.16262860112E+03  0.16652066473E+03  0.00000000000E+00 0. -1.
</event>
<event>
 8    1  0.3654190E-009  0.7051804E+02  0.7561462E-02  0.1358340E+00
         -2   -1    0    0    0  501 -0.00000000000E+00  0.00000000000E+00  0.14768074847E+03  0.14768074847E+03  0.00000000000E+00 0.  1.
          2   -1    0    0  501    0  0.00000000000E+00 -0.00000000000E+00 -0.87290169022E+02  0.87290169022E+02  0.00000000000E+00 0. -1.
         25    2    1    2    0    0  0.27892707907E+02  0.70578039356E+00  0.15701000161E+02  0.12910276993E+03  0.12506999048E+03 0.  0.
         23    2    1    2    0    0 -0.27892707907E+02 -0.70578039356E+00  0.44689579287E+02  0.10586814756E+03  0.91828126903E+02 0.  0.
          5    1    3    3  502    0  0.19537925451E+02  0.32243455826E+02  0.61775747849E+02  0.72491974706E+02  0.41800000000E+01 0.  1.
         -5    1    3    3    0  502  0.83547824561E+01 -0.31537675432E+02 -0.46074747688E+02  0.56610795225E+02  0.41800000000E+01 0.  1.
        -11    1    4    4    0    0 -0.43109494578E+02  0.17463251517E+02 -0.88236331852E+01  0.47341843848E+02  0.00000000000E+00 0. -1.
         11    1    4    4    0    0  0.15216786670E+02 -0.18169031911E+02  0.53513212472E+02  0.58526303713E+02  0.00000000000E+00 0.  1.
</event>
<event>
 8    1  0.3654190E-009  0.1664458E+03  0.7561462E-02  0.1181606E+00
          2   -1    0    0  501    0  0.00000000000E+00  0.00000000000E+00  0.13608114941E+03  0.13608114941E+03  0.00000000000E+00 0. -1.
         -2   -1    0    0    0  501 -0.00000000000E+00 -0.00000000000E+00 -0.21678299291E+03  0.21678299291E+03  0.00000000000E+00 0.  1.
         25    2    1    2    0    0  0.12686224517E+03  0.25848827383E+02 -0.73580799478E+02  0.19448397086E+03  0.12509072605E+03 0.  0.
         23    2    1    2    0    0 -0.12686224517E+03 -0.25848827383E+02 -0.71210440139E+01  0.15838017146E+03  0.90947118249E+02 0.  0.
          5    1    3    3  502    0  0.66455728553E+02 -0.48766379698E+02 -0.21973145750E+02  0.85409690202E+02  0.41800000000E+01 0. -1.
         -5    1    3    3    0  502  0.60406516617E+02  0.74615207081E+02 -0.51607653728E+02  0.10907428066E+03  0.41800000000E+01 0. -1.
        -11    1    4    4    0    0 -0.82199158043E+02  0.25637906131E+02  0.13530148662E+02  0.87161165301E+02  0.00000000000E+00 0. -1.
         11    1    4    4    0    0 -0.44663087127E+02 -0.51486733514E+02 -0.20651192676E+02  0.71219006161E+02  0.00000000000E+00 0.  1.
</event>
<event>
 8    1  0.3654190E-009  0.1191100E+03  0.7561462E-02  0.1244573E+00
         -3   -1    0    0    0  501 -0.00000000000E+00  0.00000000000E+00  0.89913799041E+02  0.89913799041E+02  0.00000000000E+00 0. -1.
          3   -1    0    0  501    0  0.00000000000E+00 -0.00000000000E+00 -0.27442609842E+03  0.27442609842E+03  0.00000000000E+00 0.  1.
         25    2    1    2    0    0 -0.97083757987E+02  0.24092495318E+02 -0.37046850609E+02  0.16439221200E+03  0.12508647341E+03 0.  0.
         23    2    1    2    0    0  0.97083757987E+02 -0.24092495318E+02 -0.14746544877E+03  0.19994768546E+03  0.90704542026E+02 0.  0.
          5    1    3    3  502    0 -0.11629765709E+03  0.19448757171E+02  0.46285876375E+01  0.11807749754E+03  0.41800000000E+01 0. -1.
         -5    1    3    3    0  502  0.19213899107E+02  0.46437381475E+01 -0.41675438247E+02  0.46314714465E+02  0.41800000000E+01 0. -1.
        -11    1    4    4    0    0  0.76216446200E+02 -0.18781815985E+02 -0.35887703808E+02  0.86311242418E+02  0.00000000000E+00 0. -1.
         11    1    4    4    0    0  0.20867311787E+02 -0.53106793328E+01 -0.11157774497E+03  0.11363644305E+03  0.00000000000E+00 0.  1.
</event>
<event>
 8    1  0.3654190E-009  0.1570849E+03  0.7561462E-02  0.1192028E+00
         -2   -1    0    0    0  501 -0.00000000000E+00  0.00000000000E+00  0.10416304501E+03  0.10416304501E+03  0.00000000000E+00 0.  1.
          2   -1    0    0  501    0  0.00000000000E+00 -0.00000000000E+00 -0.27038177100E+03  0.27038177100E+03  0.00000000000E+00 0. -1.
         25    2    1    2    0    0 -0.10708662412E+02  0.11763511883E+03 -0.31932973147E+02  0.17497742508E+03  0.12507872673E+03 0.  0.
         23    2    1    2    0    0  0.10708662412E+02 -0.11763511883E+03 -0.13428575284E+03  0.19956739093E+03  0.88553845038E+02 0.  0.
          5    1    3    3  502    0  0.23030346702E+02  0.13198443396E+03 -0.16795110333E+02  0.13509195315E+03  0.41800000000E+01 0.  1.
         -5    1    3    3    0  502 -0.33739009115E+02 -0.14349315122E+02 -0.15137862813E+02  0.39885471930E+02  0.41800000000E+01 0.  1.
        -11    1    4    4    0    0 -0.24059688505E+02 -0.40003355916E+01 -0.44064736145E+02  0.50364394837E+02  0.00000000000E+00 0. -1.
         11    1    4    4    0    0  0.34768350917E+02 -0.11363478324E+03 -0.90221016698E+02  0.14920299609E+03  0.00000000000E+00 0.  1.
</event>
<event>
 8    1  0.3654190E-009  0.1550744E+03  0.7561462E-02  0.1194373E+00
          2   -1    0    0  501    0  0.00000000000E+00  0.00000000000E+00  0.87118034576E+03  0.87118034576E+03  0.00000000000E+00 0. -1.
         -2   -1    0    0    0  501 -0.00000000000E+00 -0.00000000000E+00 -0.31708243481E+02  0.31708243481E+02  0.00000000000E+00 0.  1.
         25    2    1    2    0    0  0.96773921548E+02 -0.69441255458E+02  0.55606734532E+03  0.58227667375E+03  0.12509177594E+03 0.  0.
         23    2    1    2    0    0 -0.96773921548E+02  0.69441255458E+02  0.28340475695E+03  0.32061191548E+03  0.91030018331E+02 0.  0.
          5    1    3    3  502    0  0.29970354926E+01  0.32500034634E+02  0.13679079250E+03  0.14069267140E+03  0.41800000000E+01 0. -1.
         -5    1    3    3    0  502  0.93776886056E+02 -0.10194129009E+03  0.41927655283E+03  0.44158400235E+03  0.41800000000E+01 0. -1.
        -11    1    4    4    0    0 -0.74482029594E+01  0.45614162741E+02  0.43334756586E+02  0.63356362729E+02  0.00000000000E+00 0.  1.
         11    1    4    4    0    0 -0.89325718589E+02  0.23827092717E+02  0.24007000036E+03  0.25725555276E+03  0.00000000000E+00 0. -1.
</event>
<event>
 8    1  0.3654190E-009  0.1152328E+03  0.7561462E-02  0.1251175E+00
         -1   -1    0    0    0  501 -0.00000000000E+00  0.00000000000E+00  0.97681279978E+03  0.97681279978E+03  0.00000000000E+00 0.  1.
          1   -1    0    0  501    0  0.00000000000E+00 -0.00000000000E+00 -0.15768818063E+02  0.15768818063E+02  0.00000000000E+00 0. -1.
         25    2    1    2    0    0 -0.56443940072E+02  0.13710625250E+02  0.60865233570E+03  0.62408308744E+03  0.12509250444E+03 0.  0.
         23    2    1    2    0    0  0.56443940072E+02 -0.13710625250E+02  0.35239164602E+03  0.36849853040E+03  0.90760096451E+02 0.  0.
          5    1    3    3  502    0  0.14124109299E+02  0.45791483201E+02  0.37020534896E+03  0.37331732239E+03  0.41800000000E+01 0. -1.
         -5    1    3    3    0  502 -0.70568049370E+02 -0.32080857951E+02  0.23844698674E+03  0.25076576506E+03  0.41800000000E+01 0. -1.
        -11    1    4    4    0    0 -0.17179312277E+02 -0.24913201682E+02  0.14545723356E+03  0.14857187884E+03  0.00000000000E+00 0.  1.
         11    1    4    4    0    0  0.73623252348E+02  0.11202576432E+02  0.20693441246E+03  0.21992665156E+03  0.00000000000E+00 0. -1.
</event>
<event>
 8    1  0.3654190E-009  0.1135137E+03  0.7561462E-02  0.1254198E+00
         -2   -1    0    0    0  501 -0.00000000000E+00  0.00000000000E+00  0.21410514196E+02  0.21410514196E+02  0.00000000000E+00 0.  1.
          2   -1    0    0  501    0  0.00000000000E+00 -0.00000000000E+00 -0.78803379076E+03  0.78803379076E+03  0.00000000000E+00 0. -1.
         25    2    1    2    0    0  0.54716220271E+02 -0.63453151667E+01 -0.56587790044E+03  0.58215040678E+03  0.12508864905E+03 0.  0.
         23    2    1    2    0    0 -0.54716220271E+02  0.63453151667E+01 -0.20074537612E+03  0.22729389818E+03  0.91267093346E+02 0.  0.
          5    1    3    3  502    0 -0.32890176777E+02  0.59848495117E+01 -0.62138761473E+02  0.70684370475E+02  0.41800000000E+01 0. -1.
         -5    1    3    3    0  502  0.87606397048E+02 -0.12330164678E+02 -0.50373913897E+03  0.51146603630E+03  0.41800000000E+01 0. -1.
        -11    1    4    4    0    0 -0.40151365310E+02 -0.39706022771E+02 -0.87009842066E+02  0.10372759034E+03  0.00000000000E+00 0.  1.
         11    1    4    4    0    0 -0.14564854961E+02  0.46051337938E+02 -0.11373553406E+03  0.12356630784E+03  0.00000000000E+00 0. -1.
</event>
<event>
 8    1  0.3654190E-009  0.1148796E+03  0.7561462E-02  0.1251791E+00
          2   -1    0    0  501    0  0.00000000000E+00  0.00000000000E+00  0.51883264212E+03  0.51883264212E+03  0.00000000000E+00 0. -1.
         -2   -1    0    0    0  501 -0.00000000000E+00 -0.00000000000E+00 -0.27194121634E+02  0.27194121634E+02  0.00000000000E+00 0.  1.
         25    2    1    2    0    0 -0.38425055072E+02  0.89776203556E+01  0.21327659726E+03  0.25038288621E+03  0.12509036832E+03 0.  0.
         23    2    1    2    0    0  0.38425055072E+02 -0.89776203556E+01  0.27836192322E+03  0.29564387754E+03  0.91448671393E+02 0.  0.
          5    1    3    3  502    0  0.45354780616E+02  0.82555060732E+01  0.61591187045E+02  0.77046454993E+02  0.41800000000E+01 0. -1.
         -5    1    3    3    0  502 -0.83779835688E+02  0.72211428240E+00  0.15168541021E+03  0.17333643122E+03  0.41800000000E+01 0. -1.
        -11    1    4    4    0    0 -0.20884772185E+02  0.23924754371E+02  0.91259579451E+02  0.96627524145E+02  0.00000000000E+00 0. -1.
         11    1    4    4    0    0  0.59309827256E+02 -0.32902374727E+02  0.18710234377E+03  0.19901635339E+03  0.00000000000E+00 0.  1.
</event>
<event>
 8    1  0.3654190E-009  0.2234787E+03  0.7561462E-02  0.1131316E+00
          1   -1    0    0  501    0  0.00000000000E+00  0.00000000000E+00  0.42045608120E+03  0.42045608120E+03  0.00000000000E+00 0. -1.
         -1   -1    0    0    0  501 -0.00000000000E+00 -0.00000000000E+00 -0.14056412096E+03  0.14056412096E+03  0.00000000000E+00 0.  1.
         25    2    1    2    0    0  0.10363177444E+02 -0.20509822034E+03  0.22445207204E+03  0.32893593015E+03  0.12508972007E+03 0.  0.
         23    2    1    2    0    0 -0.10363177444E+02  0.20509822034E+03  0.55439888200E+02  0.23208427200E+03  0.92827004001E+02 0.  0.
          5    1    3    3  502    0  0.26812564904E+02 -0.21753350197E+03  0.20086091334E+03  0.29732527142E+03  0.41800000000E+01 0.  1.
         -5    1    3    3    0  502 -0.16449387460E+02  0.12435281626E+02  0.23591158700E+02  0.31610658736E+02  0.41800000000E+01 0.  1.
        -11    1    4    4    0    0 -0.17370293961E+02  0.11231398246E+03 -0.16005474552E+02  0.11477078454E+03  0.00000000000E+00 0.  1.
         11    1    4    4    0    0  0.70071165167E+01  0.92784237881E+02  0.71445362752E+02  0.11731348746E+03  0.00000000000E+00 0. -1.
</event>
<event>
 8    1  0.3654190E-009  0.1085188E+03  0.7561462E-02  0.1263338E+00
         -1   -1    0    0    0  501 -0.00000000000E+00  0.00000000000E+00  0.12353170632E+03  0.12353170632E+03  0.00000000000E+00 0.  1.
          1   -1    0    0  501    0  0.00000000000E+00 -0.00000000000E+00 -0.26137438971E+03  0.26137438971E+03  0.00000000000E+00 0. -1.
         25    2    1    2    0    0  0.90592524884E+02  0.38387918942E+01 -0.19080737032E+03  0.24551162913E+03  0.12508703204E+03 0.  0.
         23    2    1    2    0    0 -0.90592524884E+02 -0.38387918942E+01  0.52964686926E+02  0.13939446691E+03  0.91672337456E+02 0.  0.
          5    1    3    3  502    0  0.65461730791E+02 -0.36239330816E+02 -0.18251784216E+03  0.19730373135E+03  0.41800000000E+01 0. -1.
         -5    1    3    3    0  502  0.25130794093E+02  0.40078122711E+02 -0.82895281535E+01  0.48207897784E+02  0.41800000000E+01 0. -1.
        -11    1    4    4    0    0 -0.40472070110E+02 -0.15171381275E+02  0.72511919588E+02  0.84416454268E+02  0.00000000000E+00 0.  1.
         11    1    4    4    0    0 -0.50120454774E+02  0.11332589381E+02 -0.19547232662E+02  0.54978012637E+02  0.00000000000E+00 0. -1.
</event>
<event>
 8    1  0.3654190E-009  0.7884023E+02  0.7561462E-02  0.1332375E+00
         -2   -1    0    0    0  501 -0.00000000000E+00  0.00000000000E+00  0.37289006317E+02  0.37289006317E+02  0.00000000000E+00 0. -1.
          2   -1    0    0  501    0  0.00000000000E+00 -0.00000000000E+00 -0.46578524904E+03  0.46578524904E+03  0.00000000000E+00 0.  1.
         25    2    1    2    0    0  0.30361357920E+02  0.59276012102E+02 -0.28878571169E+03  0.32168255654E+03  0.12508805794E+03 0.  0.
         23    2    1    2    0    0 -0.30361357920E+02 -0.59276012102E+02 -0.13971053103E+03  0.18139169881E+03  0.94596290906E+02 0.  0.
          5    1    3    3  502    0  0.42395266157E+02  0.23589255293E+02 -0.24163948580E+02  0.54361570698E+02  0.41800000000E+01 0. -1.
         -5    1    3    3    0  502 -0.12033908237E+02  0.35686756808E+02 -0.26462176311E+03  0.26732098584E+03  0.41800000000E+01 0. -1.
        -11    1    4    4    0    0 -0.20061471761E+02 -0.13521705259E+02  0.87289583220E+01  0.25719523240E+02  0.00000000000E+00 0. -1.
         11    1    4    4    0    0 -0.10299886159E+02 -0.45754306842E+02 -0.14843948935E+03  0.15567217557E+03  0.00000000000E+00 0.  1.
</event>
<event>
 8    1  0.3654190E-009  0.1300614E+03  0.7561462E-02  0.1227365E+00
         -2   -1    0    0    0  501 -0.00000000000E+00  0.00000000000E+00  0.12871911066E+03  0.12871911066E+03  0.00000000000E+00 0.  1.
          2   -1    0    0  501    0  0.00000000000E+00 -0.00000000000E+00 -0.17238385301E+03  0.17238385301E+03  0.00000000000E+00 0. -1.
         25    2    1    2    0    0  0.60914652072E+02  0.54801925610E+02 -0.84102756105E+02  0.17156576471E+03  0.12509073566E+03 0.  0.
         23    2    1    2    0    0 -0.60914652072E+02 -0.54801925610E+02  0.40438013751E+02  0.12953719896E+03  0.91819426432E+02 0.  0.
          5    1    3    3  502    0  0.43865003905E+02 -0.36091536612E+02 -0.32822300059E+02  0.65738218441E+02  0.41800000000E+01 0. -1.
         -5    1    3    3    0  502  0.17049648167E+02  0.90893462222E+02 -0.51280456046E+02  0.10582754627E+03  0.41800000000E+01 0. -1.
        -11    1    4    4    0    0 -0.77210194020E+02 -0.54107067884E+02  0.97502444246E+01  0.94784260940E+02  0.00000000000E+00 0. -1.
         11    1    4    4    0    0  0.16295541949E+02 -0.69485772604E+00  0.30687769326E+02  0.34752938018E+02  0.00000000000E+00 0.  1.
</event>
<event>
 8    1  0.3654190E-009  0.1387093E+03  0.7561462E-02  0.1215076E+00
          2   -1    0    0  501    0  0.00000000000E+00  0.00000000000E+00  0.53047938638E+02  0.53047938638E+02  0.00000000000E+00 0. -1.
         -2   -1    0    0    0  501 -0.00000000000E+00 -0.00000000000E+00 -0.53313695874E+03  0.53313695874E+03  0.00000000000E+00 0.  1.
         25    2    1    2    0    0 -0.12429643536E+03 -0.34837992169E+01 -0.20154274000E+03  0.26781904836E+03  0.12508327593E+03 0.  0.
         23    2    1    2    0    0  0.12429643536E+03  0.34837992169E+01 -0.27854628011E+03  0.31836584902E+03  0.91142980868E+02 0.  0.
          5    1    3    3  502    0 -0.73428988503E+02  0.11369224198E+02 -0.20134904497E+03  0.21466249305E+03  0.41800000000E+01 0.  1.
         -5    1    3    3    0  502 -0.50867446858E+02 -0.14853023415E+02 -0.19369502582E+00  0.53156555308E+02  0.41800000000E+01 0.  1.
        -11    1    4    4    0    0  0.12402269990E+03 -0.20629004715E+02 -0.20031367959E+03  0.23650107010E+03  0.00000000000E+00 0. -1.
         11    1    4    4    0    0  0.27373545883E+00  0.24112803932E+02 -0.78232600519E+02  0.81864778926E+02  0.00000000000E+00 0.  1.
</event>
<event>
 8    1  0.3654190E-009  0.1022034E+03  0.7561462E-02  0.1275730E+00
         -3   -1    0    0    0  501 -0.00000000000E+00  0.00000000000E+00  0.30365184834E+03  0.30365184834E+03  0.00000000000E+00 0.  1.
          3   -1    0    0  501    0  0.00000000000E+00 -0.00000000000E+00 -0.98084839182E+02  0.98084839182E+02  0.00000000000E+00 0. -1.
         25    2    1    2    0    0  0.12013741089E+01 -0.35003126580E+02 -0.41003903605E+02  0.13621963467E+03  0.12509119308E+03 0.  0.
         23    2    1    2    0    0 -0.12013741089E+01  0.35003126580E+02  0.24657091276E+03  0.26551705285E+03  0.92062088648E+02 0.  0.
          5    1    3    3  502    0  0.32594764373E+02  0.22822208743E+02 -0.55788574350E+02  0.68652088857E+02  0.41800000000E+01 0. -1.
         -5    1    3    3    0  502 -0.31393390264E+02 -0.57825335323E+02  0.14784670745E+02  0.67567545808E+02  0.41800000000E+01 0. -1.
        -11    1    4    4    0    0  0.41290545816E+02 -0.30822450622E+01  0.10702986404E+03  0.11475975429E+03  0.00000000000E+00 0.  1.
         11    1    4    4    0    0 -0.42491919925E+02  0.38085371642E+02  0.13954104872E+03  0.15075729856E+03  0.00000000000E+00 0. -1.
</event>
<event>
 8    1  0.3654190E-009  0.1113864E+03  0.7561462E-02  0.1258024E+00
          2   -1    0    0  501    0  0.00000000000E+00  0.00000000000E+00  0.63500669842E+03  0.63500669842E+03  0.00000000000E+00 0. -1.
         -2   -1    0    0    0  501 -0.00000000000E+00 -0.00000000000E+00 -0.38146569936E+02  0.38146569936E+02  0.00000000000E+00 0.  1.
         25    2    1    2    0    0  0.43171051464E+02  0.24739456258E+02  0.53118192426E+03  0.54797653132E+03  0.12509301272E+03 0.  0.
         23    2    1    2    0    0 -0.43171051464E+02 -0.24739456258E+02  0.65678204219E+02  0.12517673704E+03  0.94232736377E+02 0.  0.
          5    1    3    3  502    0 -0.27508971173E+00  0.67622459006E+02  0.19930533411E+03  0.21050643990E+03  0.41800000000E+01 0.  1.
         -5    1    3    3    0  502  0.43446141176E+02 -0.42883002747E+02  0.33187659016E+03  0.33747009142E+03  0.41800000000E+01 0.  1.
        -11    1    4    4    0    0  0.22702848106E+02 -0.15078495751E+02 -0.54031408944E+01  0.27784425093E+02  0.00000000000E+00 0.  1.
         11    1    4    4    0    0 -0.65873899570E+02 -0.96609605072E+01  0.71081345113E+02  0.97392311943E+02  0.00000000000E+00 0. -1.
</event>
<event>
 8    1  0.3654190E-009  0.1249463E+03  0.7561462E-02  0.1235153E+00
         -4   -1    0    0    0  501 -0.00000000000E+00  0.00000000000E+00  0.78996046371E+02  0.78996046371E+02  0.00000000000E+00 0.  1.
          4   -1    0    0  501    0  0.00000000000E+00 -0.00000000000E+00 -0.31485031020E+03  0.31485031020E+03  0.00000000000E+00 0. -1.
         25    2    1    2    0    0 -0.75632656673E+02 -0.20983680764E+01 -0.20860127702E+02  0.14767479494E+03  0.12509195909E+03 0.  0.
         23    2    1    2    0    0  0.75632656673E+02  0.20983680764E+01 -0.21499413613E+03  0.24617156163E+03  0.93022885798E+02 0.  0.
          5    1    3    3  502    0 -0.56079480439E+02 -0.56850951552E+02 -0.35629349828E+02  0.87543485125E+02  0.41800000000E+01 0. -1.
         -5    1    3    3    0  502 -0.19553176234E+02  0.54752583476E+02  0.14769222126E+02  0.60131309817E+02  0.41800000000E+01 0. -1.
        -11    1    4    4    0    0  0.13595020960E+02 -0.36242737670E+02 -0.35883259449E+02  0.52782278630E+02  0.00000000000E+00 0.  1.
         11    1    4    4    0    0  0.62037635713E+02  0.38341105746E+02 -0.17911087668E+03  0.19338928300E+03  0.00000000000E+00 0. -1.
</event>
<event>
 8    1  0.3654190E-009  0.1260233E+03  0.7561462E-02  0.1233479E+00
         -1   -1    0    0    0  501 -0.00000000000E+00  0.00000000000E+00  0.29051966501E+02  0.29051966501E+02  0.00000000000E+00 0.  1.
          1   -1    0    0  501    0  0.00000000000E+00 -0.00000000000E+00 -0.60563265425E+03  0.60563265425E+03  0.00000000000E+00 0. -1.
         25    2    1    2    0    0  0.18325303787E+02 -0.61551953132E+02 -0.22206941290E+03  0.26284407173E+03  0.12509085580E+03 0.  0.
         23    2    1    2    0    0 -0.18325303787E+02  0.61551953132E+02 -0.35451127485E+03  0.37184054903E+03  0.91992881286E+02 0.  0.
          5    1    3    3  502    0  0.23334701681E+02  0.35471335622E+02 -0.80287854330E+02  0.90919392355E+02  0.41800000000E+01 0. -1.
         -5    1    3    3    0  502 -0.50093978936E+01 -0.97023288754E+02 -0.14178155857E+03  0.17192467937E+03  0.41800000000E+01 0. -1.
        -11    1    4    4    0    0 -0.26757219819E+02  0.84001222017E+02 -0.27396034463E+03  0.28779580355E+03  0.00000000000E+00 0.  1.
         11    1    4    4    0    0  0.84319160323E+01 -0.22449268886E+02 -0.80550930229E+02  0.84044745477E+02  0.00000000000E+00 0. -1.
</event>
<event>
 8    1  0.3654190E-009  0.1174397E+03  0.7561462E-02  0.1247381E+00
         -1   -1    0    0    0  501 -0.00000000000E+00  0.00000000000E+00  0.58412658870E+03  0.58412658870E+03  0.00000000000E+00 0.  1.
          1   -1    0    0  501    0  0.00000000000E+00 -0.00000000000E+00 -0.26152327927E+02  0.26152327927E+02  0.00000000000E+00 0. -1.
         25    2    1    2    0    0  0.36351330163E+02 -0.41460968934E+02  0.34142381890E+03  0.36777479168E+03  0.12509053575E+03 0.  0.
         23    2    1    2    0    0 -0.36351330163E+02  0.41460968934E+02  0.21655044187E+03  0.24250412495E+03  0.94200454308E+02 0.  0.
          5    1    3    3  502    0 -0.10397603258E+02 -0.73220782636E+02  0.13822889632E+03  0.15682504054E+03  0.41800000000E+01 0. -1.
         -5    1    3    3    0  502  0.46748933421E+02  0.31759813702E+02  0.20319492259E+03  0.21094975114E+03  0.41800000000E+01 0. -1.
        -11    1    4    4    0    0 -0.42609360013E+02  0.66138848760E+02  0.19036501908E+03  0.20598239091E+03  0.00000000000E+00 0.  1.
         11    1    4    4    0    0  0.62580298495E+01 -0.24677879825E+02  0.26185422795E+02  0.36521734039E+02  0.00000000000E+00 0. -1.
</event>
<event>
 8    1  0.3654190E-009  0.1024289E+03  0.7561462E-02  0.1275270E+00
         -4   -1    0    0    0  501 -0.00000000000E+00  0.00000000000E+00  0.52321523067E+03  0.52321523067E+03  0.00000000000E+00 0.  1.
          4   -1    0    0  501    0  0.00000000000E+00 -0.00000000000E+00 -0.43638996740E+02  0.43638996740E+02  0.00000000000E+00 0. -1.
         25    2    1    2    0    0 -0.37252921087E+02 -0.82577031802E+02  0.35703961804E+03  0.38901337520E+03  0.12508945170E+03 0.  0.
         23    2    1    2    0    0  0.37252921087E+02  0.82577031802E+02  0.12253661588E+03  0.17784085220E+03  0.91680969501E+02 0.  0.
          5    1    3    3  502    0 -0.15830033342E+02 -0.59351076676E+02  0.35126762436E+03  0.35662242860E+03  0.41800000000E+01 0. -1.
         -5    1    3    3    0  502 -0.21422887745E+02 -0.23225955126E+02  0.57719936844E+01  0.32390946605E+02  0.41800000000E+01 0. -1.
        -11    1    4    4    0    0  0.19602738580E+02 -0.64662260488E+01  0.69952880763E+02  0.72934799418E+02  0.00000000000E+00 0. -1.
         11    1    4    4    0    0  0.17650182507E+02  0.89043257851E+02  0.52583735121E+02  0.10490605278E+03  0.00000000000E+00 0.  1.
</event>
<event>
 8    1  0.3654190E-009  0.1151301E+03  0.7561462E-02  0.1251354E+00
          1   -1    0    0  501    0  0.00000000000E+00  0.00000000000E+00  0.52727969621E+02  0.52727969621E+02  0.00000000000E+00 0. -1.
         -1   -1    0    0    0  501 -0.00000000000E+00 -0.00000000000E+00 -0.40722291566E+03  0.40722291566E+03  0.00000000000E+00 0.  1.
         25    2    1    2    0    0  0.97299713422E+02  0.33387987617E+01 -0.20222612182E+03  0.25694613549E+03  0.12509008909E+03 0.  0.
         23    2    1    2    0    0 -0.97299713422E+02 -0.33387987617E+01 -0.15226882422E+03  0.20300474979E+03  0.92448644115E+02 0.  0.
          5    1    3    3  502    0  0.43444890927E+02  0.26860532431E+02 -0.18997994851E+03  0.19677093277E+03  0.41800000000E+01 0.  1.
         -5    1    3    3    0  502  0.53854822496E+02 -0.23521733670E+02 -0.12246173310E+02  0.60175202713E+02  0.41800000000E+01 0.  1.
        -11    1    4    4    0    0 -0.38187900959E+02  0.33200600578E+02 -0.11147541405E+03  0.12242288837E+03  0.00000000000E+00 0.  1.
         11    1    4    4    0    0 -0.59111812463E+02 -0.36539399340E+02 -0.40793410164E+02  0.80581861418E+02  0.00000000000E+00 0. -1.
</event>
<event>
 8    1  0.3654190E-009  0.1353730E+03  0.7561462E-02  0.1219694E+00
         -2   -1    0    0    0  501 -0.00000000000E+00  0.00000000000E+00  0.24975299176E+02  0.24975299176E+02  0.00000000000E+00 0.  1.
          2   -1    0    0  501    0  0.00000000000E+00 -0.00000000000E+00 -0.10897692379E+04  0.10897692379E+04  0.00000000000E+00 0. -1.
         25    2    1    2    0    0  0.15205587215E+02  0.12257721200E+03 -0.55090566371E+03  0.57827439033E+03  0.12509131632E+03 0.  0.
         23    2    1    2    0    0 -0.15205587215E+02 -0.12257721200E+03 -0.51388827501E+03  0.53647014674E+03  0.91992806067E+02 0.  0.
          5    1    3    3  502    0  0.39959533092E+02  0.79718954715E+02 -0.49708287189E+03  0.50503537496E+03  0.41800000000E+01 0.  1.
         -5    1    3    3    0  502 -0.24753945877E+02  0.42858257284E+02 -0.53822791811E+02  0.73239015369E+02  0.41800000000E+01 0.  1.
        -11    1    4    4    0    0  0.16360894661E+02 -0.51432838757E+02 -0.85801309867E+02  0.10136508547E+03  0.00000000000E+00 0.  1.
         11    1    4    4    0    0 -0.31566481876E+02 -0.71144373242E+02 -0.42808696514E+03  0.43510506127E+03  0.00000000000E+00 0. -1.
</event>
<event>
 8    1  0.3654190E-009  0.1047275E+03  0.7561462E-02  0.1270657E+00
          1   -1    0    0  501    0  0.00000000000E+00  0.00000000000E+00  0.25662613706E+03  0.25662613706E+03  0.00000000000E+00 0. -1.
         -1   -1    0    0    0  501 -0.00000000000E+00 -0.00000000000E+00 -0.83332948943E+02  0.83332948943E+02  0.00000000000E+00 0.  1.
         25    2    1    2    0    0  0.42986788046E+02  0.22419052947E+02  0.18735354075E+03  0.23043207951E+03  0.12508843333E+03 0.  0.
         23    2    1    2    0    0 -0.42986788046E+02 -0.22419052947E+02 -0.14060352635E+02  0.10952700649E+03  0.97200790908E+02 0.  0.
          5    1    3    3  502    0  0.75441707196E+02  0.22686059478E+02  0.60477250798E+02  0.99403615344E+02  0.41800000000E+01 0.  1.
         -5    1    3    3    0  502 -0.32454919150E+02 -0.26700653159E+00  0.12687628995E+03  0.13102846417E+03  0.41800000000E+01 0.  1.
        -11    1    4    4    0    0 -0.62989569368E+02 -0.37032439056E+02 -0.31150059811E+02  0.79431817415E+02  0.00000000000E+00 0.  1.
         11    1    4    4    0    0  0.20002781322E+02  0.14613386109E+02  0.17089707177E+02  0.30095189077E+02  0.00000000000E+00 0. -1.
</event>
<event>
 8    1  0.3654190E-009  0.1398862E+03  0.7561462E-02  0.1213482E+00
          2   -1    0    0  501    0  0.00000000000E+00  0.00000000000E+00  0.60383809578E+03  0.60383809578E+03  0.00000000000E+00 0. -1.
         -2   -1    0    0    0  501 -0.00000000000E+00 -0.00000000000E+00 -0.47268393911E+02  0.47268393911E+02  0.00000000000E+00 0.  1.
         25    2    1    2    0    0 -0.88296303092E+02 -0.73571039366E+02  0.40718591666E+03  0.44119842863E+03  0.12508696063E+03 0.  0.
         23    2    1    2    0    0  0.88296303092E+02  0.73571039366E+02  0.14938378520E+03  0.20990806106E+03  0.92395583469E+02 0.  0.
          5    1    3    3  502    0 -0.16111507865E+02 -0.88583931670E+02  0.27974579906E+03  0.29390794159E+03  0.41800000000E+01 0. -1.
         -5    1    3    3    0  502 -0.72184795228E+02  0.15012892304E+02  0.12744011760E+03  0.14729048704E+03  0.41800000000E+01 0. -1.
        -11    1    4    4    0    0  0.18111770819E+02  0.82142765347E+01 -0.11231269656E+02  0.22839702259E+02  0.00000000000E+00 0.  1.
         11    1    4    4    0    0  0.70184532273E+02  0.65356762831E+02  0.16061505486E+03  0.18706835880E+03  0.00000000000E+00 0. -1.
</event>
<event>
 8    1  0.3654190E-009  0.1235085E+03  0.7561462E-02  0.1237419E+00
         -2   -1    0    0    0  501 -0.00000000000E+00  0.00000000000E+00  0.80532501098E+02  0.80532501098E+02  0.00000000000E+00 0.  1.
          2   -1    0    0  501    0  0.00000000000E+00 -0.00000000000E+00 -0.26236253611E+03  0.26236253611E+03  0.00000000000E+00 0. -1.
         25    2    1    2    0    0 -0.60000779999E+02 -0.65724990317E+02 -0.55084565630E+02  0.16310329915E+03  0.12509400014E+03 0.  0.
         23    2    1    2    0    0  0.60000779999E+02  0.65724990317E+02 -0.12674546938E+03  0.17979173806E+03  0.91327909817E+02 0.  0.
          5    1    3    3  502    0 -0.58608061080E+02 -0.83056903460E+02 -0.82080625754E+02  0.13072128962E+03  0.41800000000E+01 0. -1.
         -5    1    3    3    0  502 -0.13927189189E+01  0.17331913143E+02  0.26996060124E+02  0.32382009533E+02  0.41800000000E+01 0. -1.
        -11    1    4    4    0    0 -0.10436394682E+02  0.55197264419E+02 -0.51991909278E+02  0.76542896233E+02  0.00000000000E+00 0.  1.
         11    1    4    4    0    0  0.70437174680E+02  0.10527725898E+02 -0.74753560104E+02  0.10324884182E+03  0.00000000000E+00 0. -1.
</event>
<event>
 8    1  0.3654190E-009  0.1614873E+03  0.7561462E-02  0.1187028E+00
         -2   -1    0    0    0  501 -0.00000000000E+00  0.00000000000E+00  0.39327501565E+02  0.39327501565E+02  0.00000000000E+00 0.  1.
          2   -1    0    0  501    0  0.00000000000E+00 -0.00000000000E+00 -0.77403590663E+03  0.77403590663E+03  0.00000000000E+00 0. -1.
         25    2    1    2    0    0  0.59155573281E+02 -0.11556049639E+03 -0.48414810075E+03  0.51662463643E+03  0.12509205139E+03 0.  0.
         23    2    1    2    0    0 -0.59155573281E+02  0.11556049639E+03 -0.25056030431E+03  0.29673877176E+03  0.91759590225E+02 0.  0.
          5    1    3    3  502    0 -0.22071631702E+01 -0.10185084941E+03 -0.39163183244E+03  0.40468683161E+03  0.41800000000E+01 0. -1.
         -5    1    3    3    0  502  0.61362736451E+02 -0.13709646981E+02 -0.92516268314E+02  0.11193780482E+03  0.41800000000E+01 0. -1.
        -11    1    4    4    0    0 -0.71840009213E+01  0.10464870560E+03 -0.18136610902E+03  0.20951521891E+03  0.00000000000E+00 0. -1.
         11    1    4    4    0    0 -0.51971572359E+02  0.10911790791E+02 -0.69194195287E+02  0.87223552858E+02  0.00000000000E+00 0.  1.
</event>
<event>
 8    1  0.3654190E-009  0.1132993E+03  0.7561462E-02  0.1254579E+00
          2   -1    0    0  501    0  0.00000000000E+00  0.00000000000E+00  0.73309364075E+02  0.73309364075E+02  0.00000000000E+00 0. -1.
         -2   -1    0    0    0  501 -0.00000000000E+00 -0.00000000000E+00 -0.25049059376E+03  0.25049059376E+03  0.00000000000E+00 0.  1.
         25    2    1    2    0    0 -0.79703377655E+02 -0.44842644471E+01 -0.11421813464E+03  0.18725895417E+03  0.12508955432E+03 0.  0.
         23    2    1    2    0    0  0.79703377655E+02  0.44842644471E+01 -0.62963095042E+02  0.13654100366E+03  0.91139219366E+02 0.  0.
          5    1    3    3  502    0 -0.51779538410E+02  0.47154145317E+02 -0.14761947466E+02  0.71693943340E+02  0.41800000000E+01 0.  1.
         -5    1    3    3    0  502 -0.27923839244E+02 -0.51638409764E+02 -0.99456187179E+02  0.11556501084E+03  0.41800000000E+01 0.  1.
        -11    1    4    4    0    0  0.25029223240E+02  0.28448619662E+02 -0.66718243721E+02  0.76727504989E+02  0.00000000000E+00 0.  1.
         11    1    4    4    0    0  0.54674154415E+02 -0.23964355215E+02  0.37551486789E+01  0.59813498673E+02  0.00000000000E+00 0. -1.
</event>
<event>
 8    1  0.3654190E-009  0.1451817E+03  0.7561462E-02  0.1206522E+00
         -2   -1    0    0    0  501 -0.00000000000E+00  0.00000000000E+00  0.57052498373E+02  0.57052498373E+02  0.00000000000E+00 0.  1.
          2   -1    0    0  501    0  0.00000000000E+00 -0.00000000000E+00 -0.48324805699E+03  0.48324805699E+03  0.00000000000E+00 0. -1.
         25    2    1    2    0    0 -0.47894627118E+02  0.11726260328E+03 -0.25331303632E+03  0.30961177163E+03  0.12509013282E+03 0.  0.
         23    2    1    2    0    0  0.47894627118E+02 -0.11726260328E+03 -0.17288252230E+03  0.23068878373E+03  0.85349487340E+02 0.  0.
          5    1    3    3  502    0 -0.21588087845E+02  0.10865058579E+03 -0.86884433245E+02  0.14084520748E+03  0.41800000000E+01 0.  1.
         -5    1    3    3    0  502 -0.26306539273E+02  0.86120174876E+01 -0.16642860307E+03  0.16876656415E+03  0.41800000000E+01 0.  1.
        -11    1    4    4    0    0 -0.94736632949E+00 -0.99560185834E+02 -0.12701020097E+03  0.16138376392E+03  0.00000000000E+00 0. -1.
         11    1    4    4    0    0  0.48841993447E+02 -0.17702417447E+02 -0.45872321326E+02  0.69305019813E+02  0.00000000000E+00 0.  1.
</event>
<event>
 8    1  0.3654190E-009  0.6877648E+02  0.7561462E-02  0.1364304E+00
          3   -1    0    0  501    0  0.00000000000E+00  0.00000000000E+00  0.38272431350E+03  0.38272431350E+03  0.00000000000E+00 0. -1.
         -3   -1    0    0    0  501 -0.00000000000E+00 -0.00000000000E+00 -0.73703357203E+02  0.73703357203E+02  0.00000000000E+00 0.  1.
         25    2    1    2    0    0  0.16697383563E+02  0.40165632995E+02  0.32710764380E+03  0.35290091212E+03  0.12509021724E+03 0.  0.
         23    2    1    2    0    0 -0.16697383563E+02 -0.40165632995E+02 -0.18086687501E+02  0.10352675859E+03  0.92187747492E+02 0.  0.
          5    1    3    3  502    0  0.68463563948E+01 -0.37980851442E+01  0.30004853302E+03  0.30017976716E+03  0.41800000000E+01 0. -1.
         -5    1    3    3    0  502  0.98510271685E+01  0.43963718139E+02  0.27059110780E+02  0.52721144952E+02  0.41800000000E+01 0. -1.
        -11    1    4    4    0    0  0.15889674924E+02  0.13363613395E+02 -0.33111678827E+02  0.39082620266E+02  0.00000000000E+00 0.  1.
         11    1    4    4    0    0 -0.32587058487E+02 -0.53529246390E+02  0.15024991326E+02  0.64444138323E+02  0.00000000000E+00 0. -1.
</event>
<event>
 8    1  0.3654190E-009  0.1339535E+03  0.7561462E-02  0.1221705E+00
          1   -1    0    0  501    0  0.00000000000E+00  0.00000000000E+00  0.10000930168E+04  0.10000930168E+04  0.00000000000E+00 0. -1.
         -1   -1    0    0    0  501 -0.00000000000E+00 -0.00000000000E+00 -0.19669776906E+02  0.19669776906E+02  0.00000000000E+00 0.  1.
         25    2    1    2    0    0  0.25508219474E+02 -0.79538918189E+02  0.64528301673E+03  0.66258053019E+03  0.12508268681E+03 0.  0.
         23    2    1    2    0    0 -0.25508219474E+02  0.79538918189E+02  0.33514022318E+03  0.35718226353E+03  0.91011490602E+02 0.  0.
          5    1    3    3  502    0  0.59732629888E+02  0.30912352901E+01  0.29536197148E+03  0.30138631258E+03  0.41800000000E+01 0.  1.
         -5    1    3    3    0  502 -0.34224410414E+02 -0.82630153479E+02  0.34992104524E+03  0.36119421761E+03  0.41800000000E+01 0.  1.
        -11    1    4    4    0    0  0.31093133939E+02  0.29655158928E+02  0.76252649346E+02  0.87525298980E+02  0.00000000000E+00 0.  1.
         11    1    4    4    0    0 -0.56601353413E+02  0.49883759261E+02  0.25888757384E+03  0.26965696455E+03  0.00000000000E+00 0. -1.
</event>
<event>
 8    1  0.3654190E-009  0.2345223E+03  0.7561462E-02  0.1123497E+00
         -2   -1    0    0    0  501 -0.00000000000E+00  0.00000000000E+00  0.93027695898E+02  0.93027695898E+02  0.00000000000E+00 0. -1.
          2   -1    0    0  501    0  0.00000000000E+00 -0.00000000000E+00 -0.67606336616E+03  0.67606336616E+03  0.00000000000E+00 0.  1.
         25    2    1    2    0    0  0.21810255077E+03  0.54519809131E+01 -0.21002201682E+03  0.32765142245E+03  0.12509100822E+03 0.  0.
         23    2    1    2    0    0 -0.21810255077E+03 -0.54519809131E+01 -0.37301365344E+03  0.44143963961E+03  0.90173848838E+02 0.  0.
          5    1    3    3  502    0  0.20968320148E+03 -0.32003488198E+02 -0.18622128583E+03  0.28228905033E+03  0.41800000000E+01 0. -1.
         -5    1    3    3    0  502  0.84193492888E+01  0.37455469111E+02 -0.23800730994E+02  0.45362372123E+02  0.41800000000E+01 0. -1.
        -11    1    4    4    0    0 -0.15710878056E+03 -0.69545502210E+01 -0.18004786387E+03  0.23905808496E+03  0.00000000000E+00 0.  1.
         11    1    4    4    0    0 -0.60993770211E+02  0.15025693079E+01 -0.19296578957E+03  0.20238155465E+03  0.00000000000E+00 0. -1.
</event>
<event>
 8    1  0.3654190E-009  0.8250900E+02  0.7561462E-02  0.1322078E+00
          2   -1    0    0  501    0  0.00000000000E+00  0.00000000000E+00  0.36959365093E+03  0.36959365093E+03  0.00000000000E+00 0. -1.
         -2   -1    0    0    0  501 -0.00000000000E+00 -0.00000000000E+00 -0.59045163338E+02  0.59045163338E+02  0.00000000000E+00 0.  1.
         25    2    1    2    0    0 -0.50014799791E+01  0.46732362239E+02  0.28740420250E+03  0.31695046438E+03  0.12508993874E+03 0.  0.
         23    2    1    2    0    0  0.50014799791E+01 -0.46732362239E+02  0.23144285097E+02  0.11168834989E+03  0.98639247194E+02 0.  0.
          5    1    3    3  502    0  0.35990333994E+02  0.31950644563E+02  0.26183598735E+03  0.26625496146E+03  0.41800000000E+01 0.  1.
         -5    1    3    3    0  502 -0.40991813974E+02  0.14781717676E+02  0.25568215144E+02  0.50695502916E+02  0.41800000000E+01 0.  1.
        -11    1    4    4    0    0  0.39629746572E+01  0.12796935926E+02  0.46002063720E+02  0.47913010798E+02  0.00000000000E+00 0. -1.
         11    1    4    4    0    0  0.10385053219E+01 -0.59529298165E+02 -0.22857778623E+02  0.63775339096E+02  0.00000000000E+00 0.  1.
</event>
<event>
 8    1  0.3654190E-009  0.2033844E+03  0.7561462E-02  0.1146915E+00
          2   -1    0    0  501    0  0.00000000000E+00  0.00000000000E+00  0.92052246657E+03  0.92052246657E+03  0.00000000000E+00 0. -1.
         -2   -1    0    0    0  501 -0.00000000000E+00 -0.00000000000E+00 -0.62340361096E+02  0.62340361096E+02  0.00000000000E+00 0.  1.
         25    2    1    2    0    0 -0.18645369412E+03  0.79752598090E+02  0.30946951054E+03  0.39056938846E+03  0.12509041646E+03 0.  0.
         23    2    1    2    0    0  0.18645369412E+03 -0.79752598090E+02  0.54871259493E+03  0.59229343920E+03  0.92739146756E+02 0.  0.
          5    1    3    3  502    0 -0.57667761562E+02  0.27652080100E+02  0.16314422116E+02  0.66135021179E+02  0.41800000000E+01 0.  1.
         -5    1    3    3    0  502 -0.12878593256E+03  0.52100517990E+02  0.29315508843E+03  0.32443436728E+03  0.41800000000E+01 0.  1.
        -11    1    4    4    0    0  0.52166202509E+02 -0.31811996475E+02  0.29497196573E+03  0.30123375702E+03  0.00000000000E+00 0.  1.
         11    1    4    4    0    0  0.13428749161E+03 -0.47940601615E+02  0.25374062920E+03  0.29105968218E+03  0.00000000000E+00 0. -1.
</event>
<event>
 8    1  0.3654190E-009  0.1336409E+03  0.7561462E-02  0.1222151E+00
         -2   -1    0    0    0  501 -0.00000000000E+00  0.00000000000E+00  0.79388981148E+02  0.79388981148E+02  0.00000000000E+00 0.  1.
          2   -1    0    0  501    0  0.00000000000E+00 -0.00000000000E+00 -0.28953779476E+03  0.28953779476E+03  0.00000000000E+00 0. -1.
         25    2    1    2    0    0 -0.61856625722E+02  0.85183767314E+02 -0.12442515077E+03  0.20545485224E+03  0.12509021468E+03 0.  0.
         23    2    1    2    0    0  0.61856625722E+02 -0.85183767314E+02 -0.85723662845E+02  0.16347192366E+03  0.91060458462E+02 0.  0.
          5    1    3    3  502    0 -0.49837037880E+02  0.11231722312E+03 -0.65408231279E+02  0.13926448964E+03  0.41800000000E+01 0. -1.
         -5    1    3    3    0  502 -0.12019587842E+02 -0.27133455810E+02 -0.59016919488E+02  0.66190362606E+02  0.41800000000E+01 0. -1.
        -11    1    4    4    0    0  0.65553377205E+02 -0.59861253278E+02 -0.17331641693E+02  0.90448884519E+02  0.00000000000E+00 0.  1.
         11    1    4    4    0    0 -0.36967514835E+01 -0.25322514036E+02 -0.68392021152E+02  0.73023039144E+02  0.00000000000E+00 0. -1.
</event>
<event>
 8    1  0.3654190E-009  0.1251533E+03  0.7561462E-02  0.1234830E+00
          4   -1    0    0  501    0  0.00000000000E+00  0.00000000000E+00  0.51667116795E+02  0.51667116795E+02  0.00000000000E+00 0. -1.
         -4   -1    0    0    0  501 -0.00000000000E+00 -0.00000000000E+00 -0.33844453586E+03  0.33844453586E+03  0.00000000000E+00 0.  1.
         25    2    1    2    0    0 -0.59665520396E+02 -0.39591129374E+02 -0.16708564872E+03  0.22066417349E+03  0.12509049367E+03 0.  0.
         23    2    1    2    0    0  0.59665520396E+02  0.39591129374E+02 -0.11969177035E+03  0.16944747916E+03  0.96223159667E+02 0.  0.
          5    1    3    3  502    0 -0.85669641981E+02 -0.56894993843E+02 -0.15670656554E+03  0.18748532733E+03  0.41800000000E+01 0.  1.
         -5    1    3    3    0  502  0.26004121586E+02  0.17303864469E+02 -0.10379083181E+02  0.33178846163E+02  0.41800000000E+01 0.  1.
        -11    1    4    4    0    0 -0.60450734468E+01 -0.23804562628E+02 -0.94786278465E+01  0.26325738370E+02  0.00000000000E+00 0. -1.
         11    1    4    4    0    0  0.65710593842E+02  0.63395692002E+02 -0.11021314250E+03  0.14312174079E+03  0.00000000000E+00 0.  1.
</event>
<event>
 8    1  0.3654190E-009  0.1495331E+03  0.7561462E-02  0.1201048E+00
          2   -1    0    0  501    0  0.00000000000E+00  0.00000000000E+00  0.40334736085E+02  0.40334736085E+02  0.00000000000E+00 0. -1.
         -2   -1    0    0    0  501 -0.00000000000E+00 -0.00000000000E+00 -0.86239271847E+03  0.86239271847E+03  0.00000000000E+00 0.  1.
         25    2    1    2    0    0  0.11456460611E+03 -0.16602518753E+02 -0.66560283858E+03  0.68707768542E+03  0.12509162433E+03 0.  0.
         23    2    1    2    0    0 -0.11456460611E+03  0.16602518753E+02 -0.15645514380E+03  0.21564976913E+03  0.92875821941E+02 0.  0.
          5    1    3    3  502    0  0.12449844369E+03 -0.49269173325E+02 -0.48140663754E+03  0.49969704521E+03  0.41800000000E+01 0.  1.
         -5    1    3    3    0  502 -0.99338375772E+01  0.32666654572E+02 -0.18419620104E+03  0.18738064021E+03  0.41800000000E+01 0.  1.
        -11    1    4    4    0    0  0.16028454768E+01  0.14432939569E+02  0.61745086695E+01  0.15779842063E+02  0.00000000000E+00 0. -1.
         11    1    4    4    0    0 -0.11616745159E+03  0.21695791837E+01 -0.16262965247E+03  0.19986992707E+03  0.00000000000E+00 0.  1.
</event>
<event>
 8    1  0.3654190E-009  0.1019524E+03  0.7561462E-02  0.1276243E+00
         -1   -1    0    0    0  501 -0.00000000000E+00  0.00000000000E+00  0.17936235276E+02  0.17936235276E+02  0.00000000000E+00 0.  1.
          1   -1    0    0  501    0  0.00000000000E+00 -0.00000000000E+00 -0.71396682576E+03  0.71396682576E+03  0.00000000000E+00 0. -1.
         25    2    1    2    0    0 -0.13332852889E+01  0.25844925905E+02 -0.44269370664E+03  0.46075470012E+03  0.12508971954E+03 0.  0.
         23    2    1    2    0    0  0.13332852889E+01 -0.25844925905E+02 -0.25333688384E+03  0.27114836092E+03  0.93124213123E+02 0.  0.
          5    1    3    3  502    0 -0.47160934587E+02 -0.28404478522E+02 -0.16044802986E+03  0.16968208755E+03  0.41800000000E+01 0.  1.
         -5    1    3    3    0  502  0.45827649298E+02  0.54249404427E+02 -0.28224567679E+03  0.29107261256E+03  0.41800000000E+01 0.  1.
        -11    1    4    4    0    0  0.15192340236E+02  0.22563058326E+02 -0.23768025930E+02  0.36122262657E+02  0.00000000000E+00 0.  1.
         11    1    4    4    0    0 -0.13859054947E+02 -0.48407984231E+02 -0.22956885791E+03  0.23502609826E+03  0.00000000000E+00 0. -1.
</event>
<event>
 8    1  0.3654190E-009  0.1126448E+03  0.7561462E-02  0.1255749E+00
         -2   -1    0    0    0  501 -0.00000000000E+00  0.00000000000E+00  0.16702599035E+02  0.16702599035E+02  0.00000000000E+00 0.  1.
          2   -1    0    0  501    0  0.00000000000E+00 -0.00000000000E+00 -0.96625764862E+03  0.96625764862E+03  0.00000000000E+00 0. -1.
         25    2    1    2    0    0 -0.47068383325E+02  0.33350068597E+02 -0.66672514160E+03  0.68080624902E+03  0.12508826672E+03 0.  0.
         23    2    1    2    0    0  0.47068383325E+02 -0.33350068597E+02 -0.28282990798E+03  0.30215399864E+03  0.89311937950E+02 0.  0.
          5    1    3    3  502    0  0.39395576621E+02  0.63962812165E+01 -0.11788982981E+03  0.12453275972E+03  0.41800000000E+01 0.  1.
         -5    1    3    3    0  502 -0.86463959946E+02  0.26953787380E+02 -0.54883531180E+03  0.55627348930E+03  0.41800000000E+01 0.  1.
        -11    1    4    4    0    0 -0.18075924985E+02  0.51880486586E+01 -0.15668764055E+02  0.24477848761E+02  0.00000000000E+00 0.  1.
         11    1    4    4    0    0  0.65144308310E+02 -0.38538117255E+02 -0.26716114393E+03  0.27767614988E+03  0.00000000000E+00 0. -1.
</event>
<event>
 8    1  0.3654190E-009  0.1092758E+03  0.7561462E-02  0.1261917E+00
          2   -1    0    0  501    0  0.00000000000E+00  0.00000000000E+00  0.16304885842E+04  0.16304885842E+04  0.00000000000E+00 0. -1.
         -2   -1    0    0    0  501 -0.00000000000E+00 -0.00000000000E+00 -0.73058136172E+02  0.73058136172E+02  0.00000000000E+00 0.  1.
         25    2    1    2    0    0  0.79408503517E+02 -0.49900327601E+02  0.15580144653E+04  0.15658391980E+04  0.12509023354E+03 0.  0.
         23    2    1    2    0    0 -0.79408503517E+02  0.49900327601E+02 -0.58401727388E+00  0.13770752245E+03  0.10083286933E+03 0.  0.
          5    1    3    3  502    0  0.21592734631E+02 -0.21276953775E+02  0.69704981757E+02  0.76126288709E+02  0.41800000000E+01 0. -1.
         -5    1    3    3    0  502  0.57815768886E+02 -0.28623373826E+02  0.14883094836E+04  0.14897129092E+04  0.41800000000E+01 0. -1.
        -11    1    4    4    0    0 -0.58894683570E+02  0.72085958240E+02 -0.27687930312E+02  0.97116376647E+02  0.00000000000E+00 0.  1.
         11    1    4    4    0    0 -0.20513819948E+02 -0.22185630639E+02  0.27103913038E+02  0.40591145804E+02  0.00000000000E+00 0. -1.
</event>
<event>
 8    1  0.3654190E-009  0.1095369E+03  0.7561462E-02  0.1261430E+00
          3   -1    0    0  501    0  0.00000000000E+00  0.00000000000E+00  0.15741328585E+03  0.15741328585E+03  0.00000000000E+00 0. -1.
         -3   -1    0    0    0  501 -0.00000000000E+00 -0.00000000000E+00 -0.11107887263E+03  0.11107887263E+03  0.00000000000E+00 0.  1.
         25    2    1    2    0    0 -0.65714148948E+02  0.99040510823E+01  0.65882497108E+02  0.15622092844E+03  0.12509210789E+03 0.  0.
         23    2    1    2    0    0  0.65714148948E+02 -0.99040510823E+01 -0.19548083885E+02  0.11227123005E+03  0.88353052657E+02 0.  0.
          5    1    3    3  502    0  0.12565655183E+02 -0.20846926696E+02  0.67627194927E+02  0.71995832772E+02  0.41800000000E+01 0.  1.
         -5    1    3    3    0  502 -0.78279804131E+02  0.30750977778E+02 -0.17446978183E+01  0.84225095664E+02  0.41800000000E+01 0.  1.
        -11    1    4    4    0    0  0.76648761233E+02  0.19252650460E+02 -0.18222440615E+02  0.81103356837E+02  0.00000000000E+00 0.  1.
         11    1    4    4    0    0 -0.10934612285E+02 -0.29156701542E+02 -0.13256432709E+01  0.31167873214E+02  0.00000000000E+00 0. -1.
</event>
<event>
 8    1  0.3654190E-009  0.1278105E+03  0.7561462E-02  0.1230741E+00
          2   -1    0    0  501    0  0.00000000000E+00  0.00000000000E+00  0.52405286878E+03  0.52405286878E+03  0.00000000000E+00 0. -1.
         -2   -1    0    0    0  501 -0.00000000000E+00 -0.00000000000E+00 -0.36946364383E+02  0.36946364383E+02  0.00000000000E+00 0.  1.
         25    2    1    2    0    0  0.11715568760E+02 -0.68699221342E+02  0.37812495478E+03  0.40433032247E+03  0.12509072978E+03 0.  0.
         23    2    1    2    0    0 -0.11715568760E+02  0.68699221342E+02  0.10898154961E+03  0.15666891069E+03  0.88381739378E+02 0.  0.
          5    1    3    3  502    0 -0.52231872031E+02 -0.46939456140E+01  0.14152652360E+03  0.15098818121E+03  0.41800000000E+01 0. -1.
         -5    1    3    3    0  502  0.63947440791E+02 -0.64005275728E+02  0.23659843118E+03  0.25334214127E+03  0.41800000000E+01 0. -1.
        -11    1    4    4    0    0  0.34706600087E+02  0.72996415966E+01  0.37684652280E+02  0.51749066412E+02  0.00000000000E+00 0.  1.
         11    1    4    4    0    0 -0.46422168848E+02  0.61399579746E+02  0.71296897333E+02  0.10491984428E+03  0.00000000000E+00 0. -1.
</event>
<event>
 8    1  0.3654190E-009  0.2659524E+03  0.7561462E-02  0.1103619E+00
          1   -1    0    0  501    0  0.00000000000E+00  0.00000000000E+00  0.97271550559E+02  0.97271550559E+02  0.00000000000E+00 0. -1.
         -1   -1    0    0    0  501 -0.00000000000E+00 -0.00000000000E+00 -0.98633162282E+03  0.98633162282E+03  0.00000000000E+00 0.  1.
         25    2    1    2    0    0  0.25984407304E+03  0.35948241917E+02 -0.23715452053E+03  0.37510091582E+03  0.12508881665E+03 0.  0.
         23    2    1    2    0    0 -0.25984407304E+03 -0.35948241917E+02 -0.65190555172E+03  0.70850225755E+03  0.90462048394E+02 0.  0.
          5    1    3    3  502    0  0.18902563163E+03  0.27664982637E+02 -0.23601018446E+03  0.30366810871E+03  0.41800000000E+01 0.  1.
         -5    1    3    3    0  502  0.70818441405E+02  0.82832592799E+01 -0.11443360767E+01  0.71432807116E+02  0.41800000000E+01 0.  1.
        -11    1    4    4    0    0 -0.10199161519E+03 -0.44577757151E+02 -0.18893559234E+03  0.21928548528E+03  0.00000000000E+00 0.  1.
         11    1    4    4    0    0 -0.15785245785E+03  0.86295152341E+01 -0.46296995938E+03  0.48921677227E+03  0.00000000000E+00 0. -1.
</event>
<event>
 8    1  0.3654190E-009  0.1694112E+03  0.7561462E-02  0.1178463E+00
          2   -1    0    0  501    0  0.00000000000E+00  0.00000000000E+00  0.84849119304E+03  0.84849119304E+03  0.00000000000E+00 0. -1.
         -2   -1    0    0    0  501 -0.00000000000E+00 -0.00000000000E+00 -0.37976700208E+02  0.37976700208E+02  0.00000000000E+00 0.  1.
         25    2    1    2    0    0  0.10466006859E+03 -0.86249729983E+02  0.30926732729E+03  0.36011575930E+03  0.12507731404E+03 0.  0.
         23    2    1    2    0    0 -0.10466006859E+03  0.86249729983E+02  0.50124716555E+03  0.52635213395E+03  0.86052902732E+02 0.  0.
          5    1    3    3  502    0  0.11202752990E+03 -0.15472730575E+02  0.19343482658E+03  0.22410728989E+03  0.41800000000E+01 0.  1.
         -5    1    3    3    0  502 -0.73674613056E+01 -0.70776999408E+02  0.11583250070E+03  0.13600846941E+03  0.41800000000E+01 0.  1.
        -11    1    4    4    0    0  0.61065671775E+01  0.29095038504E+02  0.49653749864E+02  0.57873191582E+02  0.00000000000E+00 0.  1.
         11    1    4    4    0    0 -0.11076663577E+03  0.57154691478E+02  0.45159341568E+03  0.46847894237E+03  0.00000000000E+00 0. -1.
</event>
<event>
 8    1  0.3654190E-009  0.1203681E+03  0.7561462E-02  0.1242491E+00
          2   -1    0    0  501    0  0.00000000000E+00  0.00000000000E+00  0.49403159379E+03  0.49403159379E+03  0.00000000000E+00 0. -1.
         -2   -1    0    0    0  501 -0.00000000000E+00 -0.00000000000E+00 -0.37276267129E+02  0.37276267129E+02  0.00000000000E+00 0.  1.
         25    2    1    2    0    0  0.55165617268E+02  0.53318246459E+02  0.19975461299E+03  0.24786329200E+03  0.12509286700E+03 0.  0.
         23    2    1    2    0    0 -0.55165617268E+02 -0.53318246459E+02  0.25700071367E+03  0.28344456893E+03  0.91680838186E+02 0.  0.
          5    1    3    3  502    0 -0.23960987045E+02  0.60641956710E+02  0.10974398590E+03  0.12772153559E+03  0.41800000000E+01 0. -1.
         -5    1    3    3    0  502  0.79126604313E+02 -0.73237102506E+01  0.90010627094E+02  0.12014175640E+03  0.41800000000E+01 0. -1.
        -11    1    4    4    0    0 -0.36662223924E+02  0.27653492878E+01  0.26042421288E+02  0.45055227514E+02  0.00000000000E+00 0.  1.
         11    1    4    4    0    0 -0.18503393344E+02 -0.56083595747E+02  0.23095829239E+03  0.23838934141E+03  0.00000000000E+00 0. -1.
</event>
<event>
 8    1  0.3654190E-009  0.1392566E+03  0.7561462E-02  0.1214333E+00
          1   -1    0    0  501    0  0.00000000000E+00  0.00000000000E+00  0.13964382804E+03  0.13964382804E+03  0.00000000000E+00 0. -1.
         -1   -1    0    0    0  501 -0.00000000000E+00 -0.00000000000E+00 -0.39020027548E+03  0.39020027548E+03  0.00000000000E+00 0.  1.
         25    2    1    2    0    0 -0.10853798420E+03 -0.16371668443E+02  0.68806330938E+02  0.18008435231E+03  0.12509011643E+03 0.  0.
         23    2    1    2    0    0  0.10853798420E+03  0.16371668443E+02 -0.31936277838E+03  0.34975975121E+03  0.91053686422E+02 0.  0.
          5    1    3    3  502    0 -0.11272896177E+03  0.12263279135E+02  0.93852561573E+01  0.11385851865E+03  0.41800000000E+01 0. -1.
         -5    1    3    3    0  502  0.41909775687E+01 -0.28634947577E+02  0.59421074781E+02  0.66225833659E+02  0.41800000000E+01 0. -1.
        -11    1    4    4    0    0  0.10307668158E+03 -0.14819089941E+02 -0.28294809115E+03  0.30150295189E+03  0.00000000000E+00 0. -1.
         11    1    4    4    0    0  0.54613026237E+01  0.31190758384E+02 -0.36414687228E+02  0.48256799322E+02  0.00000000000E+00 0.  1.
</event>
<event>
 8    1  0.3654190E-009  0.1495902E+03  0.7561462E-02  0.1200977E+00
          1   -1    0    0  501    0  0.00000000000E+00  0.00000000000E+00  0.48437168373E+03  0.48437168373E+03  0.00000000000E+00 0. -1.
         -1   -1    0    0    0  501 -0.00000000000E+00 -0.00000000000E+00 -0.49694504889E+02  0.49694504889E+02  0.00000000000E+00 0.  1.
         25    2    1    2    0    0 -0.16740080034E+02 -0.10839360024E+03  0.26214732551E+03  0.31047999977E+03  0.12508879699E+03 0.  0.
         23    2    1    2    0    0  0.16740080034E+02  0.10839360024E+03  0.17252985333E+03  0.22358618885E+03  0.90525304203E+02 0.  0.
          5    1    3    3  502    0 -0.17300835902E+02 -0.13380621612E+03  0.18405046807E+03  0.22824431996E+03  0.41800000000E+01 0.  1.
         -5    1    3    3    0  502  0.56075586862E+00  0.25412615876E+02  0.78096857434E+02  0.82235679811E+02  0.41800000000E+01 0.  1.
        -11    1    4    4    0    0 -0.34300335890E+02  0.34690745200E+02  0.37621768406E+02  0.61606479389E+02  0.00000000000E+00 0.  1.
         11    1    4    4    0    0  0.51040415924E+02  0.73702855040E+02  0.13490808493E+03  0.16197970946E+03  0.00000000000E+00 0. -1.
</event>
<event>
 8    1  0.3654190E-009  0.8610281E+02  0.7561462E-02  0.1312574E+00
          2   -1    0    0  501    0  0.00000000000E+00  0.00000000000E+00  0.28908705116E+03  0.28908705116E+03  0.00000000000E+00 0. -1.
         -2   -1    0    0    0  501 -0.00000000000E+00 -0.00000000000E+00 -0.57263044694E+02  0.57263044694E+02  0.00000000000E+00 0.  1.
         25    2    1    2    0    0  0.13417985571E+02 -0.65988649005E+02  0.10537346199E+03  0.17687449152E+03  0.12508587100E+03 0.  0.
         23    2    1    2    0    0 -0.13417985571E+02  0.65988649005E+02  0.12645054447E+03  0.16947560433E+03  0.90541129506E+02 0.  0.
          5    1    3    3  502    0  0.40417537901E+02 -0.36563688155E+02  0.12179046716E+03  0.13349483493E+03  0.41800000000E+01 0.  1.
         -5    1    3    3    0  502 -0.26999552330E+02 -0.29424960850E+02 -0.16417005170E+02  0.43379656589E+02  0.41800000000E+01 0.  1.
        -11    1    4    4    0    0 -0.16624077855E+02  0.65542536786E+01 -0.10093145057E+02  0.20522908735E+02  0.00000000000E+00 0.  1.
         11    1    4    4    0    0  0.32060922835E+01  0.59434395327E+02  0.13654368953E+03  0.14895269560E+03  0.00000000000E+00 0. -1.
</event>
<event>
 8    1  0.3654190E-009  0.1088720E+03  0.7561462E-02  0.1262673E+00
         -1   -1    0    0    0  501 -0.00000000000E+00  0.00000000000E+00  0.40558422043E+02  0.40558422043E+02  0.00000000000E+00 0.  1.
          1   -1    0    0  501    0  0.00000000000E+00 -0.00000000000E+00 -0.40612389189E+03  0.40612389189E+03  0.00000000000E+00 0. -1.
         25    2    1    2    0    0  0.62370341689E+02  0.30377495799E+02 -0.18900687461E+03  0.23703636300E+03  0.12509910856E+03 0.  0.
         23    2    1    2    0    0 -0.62370341689E+02 -0.30377495799E+02 -0.17655859524E+03  0.20964595093E+03  0.89250408486E+02 0.  0.
          5    1    3    3  502    0  0.11459739948E+02  0.48874972810E+02 -0.17331562087E+03  0.18048785401E+03  0.41800000000E+01 0. -1.
         -5    1    3    3    0  502  0.50910601741E+02 -0.18497477011E+02 -0.15691253734E+02  0.56548508991E+02  0.41800000000E+01 0. -1.
        -11    1    4    4    0    0  0.21727126296E+02 -0.17637547229E+02 -0.43561477128E+02  0.51775992303E+02  0.00000000000E+00 0. -1.
         11    1    4    4    0    0 -0.84097467985E+02 -0.12739948570E+02 -0.13299711811E+03  0.15786995863E+03  0.00000000000E+00 0.  1.
</event>
<event>
 8    1  0.3654190E-009  0.1389057E+03  0.7561462E-02  0.1214809E+00
          2   -1    0    0  501    0  0.00000000000E+00  0.00000000000E+00  0.79359357470E+03  0.79359357470E+03  0.00000000000E+00 0. -1.
         -2   -1    0    0    0  501 -0.00000000000E+00 -0.00000000000E+00 -0.31113096201E+02  0.31113096201E+02  0.00000000000E+00 0.  1.
         25    2    1    2    0    0 -0.74948678187E+02 -0.79487242438E+02  0.48762811172E+03  0.51513499836E+03  0.12508942850E+03 0.  0.
         23    2    1    2    0    0  0.74948678187E+02  0.79487242438E+02  0.27485236678E+03  0.30957167254E+03  0.91407170637E+02 0.  0.
          5    1    3    3  502    0 -0.46275513963E+01  0.32859418851E+02  0.94390768414E+02  0.10014112642E+03  0.41800000000E+01 0.  1.
         -5    1    3    3    0  502 -0.70321126791E+02 -0.11234666129E+03  0.39323734330E+03  0.41499387193E+03  0.41800000000E+01 0.  1.
        -11    1    4    4    0    0  0.62715112763E+01  0.19801782910E+02  0.77488846811E+00  0.20785641974E+02  0.00000000000E+00 0.  1.
         11    1    4    4    0    0  0.68677166911E+02  0.59685459527E+02  0.27407747831E+03  0.28878603057E+03  0.00000000000E+00 0. -1.
</event>
<event>
 8    1  0.3654190E-009  0.1118015E+03  0.7561462E-02  0.1257270E+00
          2   -1    0    0  501    0  0.00000000000E+00  0.00000000000E+00  0.11441197421E+04  0.11441197421E+04  0.00000000000E+00 0. -1.
         -2   -1    0    0    0  501 -0.00000000000E+00 -0.00000000000E+00 -0.23015410851E+02  0.23015410851E+02  0.00000000000E+00 0.  1.
         25    2    1    2    0    0 -0.96287836853E+02  0.16783687554E+02  0.85332849962E+03  0.86796863369E+03  0.12508789353E+03 0.  0.
         23    2    1    2    0    0  0.96287836853E+02 -0.16783687554E+02  0.26777583160E+03  0.29916651924E+03  0.90794661455E+02 0.  0.
          5    1    3    3  502    0 -0.79815503712E+02 -0.22491658671E+02  0.76834788043E+03  0.77282101880E+03  0.41800000000E+01 0. -1.
         -5    1    3    3    0  502 -0.16472333141E+02  0.39275346225E+02  0.84980619192E+02  0.95147614886E+02  0.41800000000E+01 0. -1.
        -11    1    4    4    0    0  0.62433814987E+02 -0.12228435361E+02  0.25480558334E+03  0.26262787587E+03  0.00000000000E+00 0. -1.
         11    1    4    4    0    0  0.33854021866E+02 -0.45552521931E+01  0.12970248268E+02  0.36538643368E+02  0.00000000000E+00 0.  1.
</event>
<event>
 8    1  0.3654190E-009  0.1146307E+03  0.7561462E-02  0.1252227E+00
          2   -1    0    0  501    0  0.00000000000E+00  0.00000000000E+00  0.25683083873E+03  0.25683083873E+03  0.00000000000E+00 0. -1.
         -2   -1    0    0    0  501 -0.00000000000E+00 -0.00000000000E+00 -0.61034386192E+02  0.61034386192E+02  0.00000000000E+00 0.  1.
         25    2    1    2    0    0  0.48075027511E+02 -0.19590883392E+02  0.67079261728E+02  0.15113511535E+03  0.12508870754E+03 0.  0.
         23    2    1    2    0    0 -0.48075027511E+02  0.19590883392E+02  0.12871719081E+03  0.16673010958E+03  0.92389410905E+02 0.  0.
          5    1    3    3  502    0  0.22125731931E+02  0.46779971275E+02 -0.17843863217E+01  0.51947763769E+02  0.41800000000E+01 0.  1.
         -5    1    3    3    0  502  0.25949295579E+02 -0.66370854667E+02  0.68863648050E+02  0.99187351578E+02  0.41800000000E+01 0.  1.
        -11    1    4    4    0    0 -0.74123784927E+02  0.26981109911E+02  0.94508908716E+02  0.12310259790E+03  0.00000000000E+00 0. -1.
         11    1    4    4    0    0  0.26048757417E+02 -0.73902265195E+01  0.34208282098E+02  0.43627511676E+02  0.00000000000E+00 0.  1.
</event>
<event>
 8    1  0.3654190E-009  0.2355866E+03  0.7561462E-02  0.1122768E+00
          1   -1    0    0  501    0  0.00000000000E+00  0.00000000000E+00  0.10627358457E+04  0.10627358457E+04  0.00000000000E+00 0. -1.
         -1   -1    0    0    0  501 -0.00000000000E+00 -0.00000000000E+00 -0.54398342484E+02  0.54398342484E+02  0.00000000000E+00 0.  1.
         25    2    1    2    0    0  0.16665364913E+03 -0.13429638528E+03  0.49053138829E+03  0.54961655825E+03  0.12509340647E+03 0.  0.
         23    2    1    2    0    0 -0.16665364913E+03  0.13429638528E+03  0.51780611491E+03  0.56751762992E+03  0.90244832322E+02 0.  0.
          5    1    3    3  502    0 -0.19674589902E+02 -0.43569524227E+01  0.36119558470E+02  0.41571233159E+02  0.41800000000E+01 0. -1.
         -5    1    3    3    0  502  0.18632823903E+03 -0.12993943285E+03  0.45441182982E+03  0.50804532509E+03  0.41800000000E+01 0. -1.
        -11    1    4    4    0    0 -0.10151713513E+03  0.40722639448E+02  0.33165495155E+03  0.34922638642E+03  0.00000000000E+00 0. -1.
         11    1    4    4    0    0 -0.65136513995E+02  0.93573745828E+02  0.18615116337E+03  0.21829124349E+03  0.00000000000E+00 0.  1.
</event>
<event>
 8    1  0.3654190E-009  0.6865204E+02  0.7561462E-02  0.1364738E+00
          2   -1    0    0  501    0  0.00000000000E+00  0.00000000000E+00  0.38206461755E+03  0.38206461755E+03  0.00000000000E+00 0. -1.
         -2   -1    0    0    0  501 -0.00000000000E+00 -0.00000000000E+00 -0.45344852514E+02  0.45344852514E+02  0.00000000000E+00 0.  1.
         25    2    1    2    0    0 -0.26840525573E+02  0.24983716410E+02  0.28952905443E+03  0.31752008476E+03  0.12508929199E+03 0.  0.
         23    2    1    2    0    0  0.26840525573E+02 -0.24983716410E+02  0.47190710606E+02  0.10988938530E+03  0.92217752821E+02 0.  0.
          5    1    3    3  502    0 -0.53166878265E+02  0.39021447248E+01  0.42885675696E+02  0.68546314691E+02  0.41800000000E+01 0.  1.
         -5    1    3    3    0  502  0.26326352691E+02  0.21081571685E+02  0.24664337873E+03  0.24897377007E+03  0.41800000000E+01 0.  1.
        -11    1    4    4    0    0  0.34374093901E+02 -0.15428799450E+02  0.72556532332E+02  0.81756202016E+02  0.00000000000E+00 0. -1.
         11    1    4    4    0    0 -0.75335683276E+01 -0.95549169596E+01 -0.25365821726E+02  0.28133183284E+02  0.00000000000E+00 0.  1.
</event>
<event>
 8    1  0.3654190E-009  0.1218986E+03  0.7561462E-02  0.1239997E+00
          2   -1    0    0  501    0  0.00000000000E+00  0.00000000000E+00  0.12565604525E+03  0.12565604525E+03  0.00000000000E+00 0. -1.
         -2   -1    0    0    0  501 -0.00000000000E+00 -0.00000000000E+00 -0.14327706897E+03  0.14327706897E+03  0.00000000000E+00 0.  1.
         25    2    1    2    0    0  0.21679881134E+02 -0.73613122555E+02 -0.12455263908E+00  0.14675584869E+03  0.12509338333E+03 0.  0.
         23    2    1    2    0    0 -0.21679881134E+02  0.73613122555E+02 -0.17496471077E+02  0.12217726553E+03  0.93446501560E+02 0.  0.
          5    1    3    3  502    0 -0.14395096305E+02  0.22007169312E+02  0.30014624781E+02  0.40123364757E+02  0.41800000000E+01 0.  1.
         -5    1    3    3    0  502  0.36074977438E+02 -0.95620291867E+02 -0.30139177420E+02  0.10663248393E+03  0.41800000000E+01 0.  1.
        -11    1    4    4    0    0 -0.20588762064E+02  0.93109475696E+02 -0.28802429648E+02  0.99613510837E+02  0.00000000000E+00 0.  1.
         11    1    4    4    0    0 -0.10911190692E+01 -0.19496353141E+02  0.11305958571E+02  0.22563754692E+02  0.00000000000E+00 0. -1.
</event>
<event>
 8    1  0.3654190E-009  0.1716809E+03  0.7561462E-02  0.1176106E+00
         -1   -1    0    0    0  501 -0.00000000000E+00  0.00000000000E+00  0.20068303780E+03  0.20068303780E+03  0.00000000000E+00 0.  1.
          1   -1    0    0  501    0  0.00000000000E+00 -0.00000000000E+00 -0.16587774494E+03  0.16587774494E+03  0.00000000000E+00 0. -1.
         25    2    1    2    0    0 -0.22322738048E+02  0.14392236655E+03  0.34745479108E+02  0.19510705510E+03  0.12509021706E+03 0.  0.
         23    2    1    2    0    0  0.22322738048E+02 -0.14392236655E+03  0.59813748209E-01  0.17145372763E+03  0.90467811486E+02 0.  0.
          5    1    3    3  502    0 -0.48339253275E+02  0.29877457552E+01  0.87912616549E+01  0.49400088191E+02  0.41800000000E+01 0. -1.
         -5    1    3    3    0  502  0.26016515227E+02  0.14093462079E+03  0.25954217453E+02  0.14570696691E+03  0.41800000000E+01 0. -1.
        -11    1    4    4    0    0  0.30422722383E+02 -0.62105830876E+02 -0.40112041288E+02  0.79947808740E+02  0.00000000000E+00 0. -1.
         11    1    4    4    0    0 -0.80999843358E+01 -0.81816535672E+02  0.40171855036E+02  0.91505918894E+02  0.00000000000E+00 0.  1.
</event>
<event>
 8    1  0.3654190E-009  0.8001117E+02  0.7561462E-02  0.1329020E+00
         -3   -1    0    0    0  501 -0.00000000000E+00  0.00000000000E+00  0.12241637252E+03  0.12241637252E+03  0.00000000000E+00 0.  1.
          3   -1    0    0  501    0  0.00000000000E+00 -0.00000000000E+00 -0.17443696756E+03  0.17443696756E+03  0.00000000000E+00 0. -1.
         25    2    1    2    0    0 -0.29256450693E+02  0.38602979527E+02  0.58010256141E+02  0.14614488612E+03  0.12508800097E+03 0.  0.
         23    2    1    2    0    0  0.29256450693E+02 -0.38602979527E+02 -0.11003085118E+03  0.15070845396E+03  0.90885202023E+02 0.  0.
          5    1    3    3  502    0  0.94100218722E+01  0.92056482096E+01  0.87887416018E+02  0.88966076484E+02  0.41800000000E+01 0. -1.
         -5    1    3    3    0  502 -0.38666472565E+02  0.29397331317E+02 -0.29877159876E+02  0.57178809637E+02  0.41800000000E+01 0. -1.
        -11    1    4    4    0    0  0.82009723644E+01  0.27178769268E+02 -0.12074675798E+02  0.30850271348E+02  0.00000000000E+00 0.  1.
         11    1    4    4    0    0  0.21055478328E+02 -0.65781748795E+02 -0.97956175386E+02  0.11985818261E+03  0.00000000000E+00 0. -1.
</event>
<event>
 8    1  0.3654190E-009  0.1536909E+03  0.7561462E-02  0.1196010E+00
          2   -1    0    0  501    0  0.00000000000E+00  0.00000000000E+00  0.98259019916E+02  0.98259019916E+02  0.00000000000E+00 0. -1.
         -2   -1    0    0    0  501 -0.00000000000E+00 -0.00000000000E+00 -0.27811264213E+03  0.27811264213E+03  0.00000000000E+00 0.  1.
         25    2    1    2    0    0 -0.31241809127E+02 -0.11070255362E+03 -0.14845411300E+03  0.22564645333E+03  0.12508633905E+03 0.  0.
         23    2    1    2    0    0  0.31241809127E+02  0.11070255362E+03 -0.31399509209E+02  0.15072520872E+03  0.92201156982E+02 0.  0.
          5    1    3    3  502    0 -0.27705579651E+02  0.18185691847E+02 -0.61770374932E+02  0.70223715018E+02  0.41800000000E+01 0.  1.
         -5    1    3    3    0  502 -0.35362294762E+01 -0.12888824546E+03 -0.86683738072E+02  0.15542273831E+03  0.41800000000E+01 0.  1.
        -11    1    4    4    0    0  0.57461570803E+02  0.10248798146E+03 -0.35951083329E+02  0.12287432139E+03  0.00000000000E+00 0.  1.
         11    1    4    4    0    0 -0.26219761676E+02  0.82145721539E+01  0.45515741202E+01  0.27850887329E+02  0.00000000000E+00 0. -1.
</event>
<event>
 8    1  0.3654190E-009  0.9727902E+02  0.7561462E-02  0.1286124E+00
          2   -1    0    0  501    0  0.00000000000E+00  0.00000000000E+00  0.20900308661E+03  0.20900308661E+03  0.00000000000E+00 0. -1.
         -2   -1    0    0    0  501 -0.00000000000E+00 -0.00000000000E+00 -0.86563408361E+02  0.86563408361E+02  0.00000000000E+00 0.  1.
         25    2    1    2    0    0 -0.22971720543E+02  0.77436480252E+02  0.52023313703E+02  0.15772714634E+03  0.12508924457E+03 0.  0.
         23    2    1    2    0    0  0.22971720543E+02 -0.77436480252E+02  0.70416364551E+02  0.13783934863E+03  0.86701287281E+02 0.  0.
          5    1    3    3  502    0 -0.52234545177E+00  0.69583166613E+02 -0.27257683934E+02  0.74850141309E+02  0.41800000000E+01 0. -1.
         -5    1    3    3    0  502 -0.22449375091E+02  0.78533136395E+01  0.79280997636E+02  0.82877005033E+02  0.41800000000E+01 0. -1.
        -11    1    4    4    0    0 -0.12506619381E+02  0.29344716166E+01  0.44390777360E+02  0.46212203655E+02  0.00000000000E+00 0. -1.
         11    1    4    4    0    0  0.35478339924E+02 -0.80370951869E+02  0.26025587191E+02  0.91627144977E+02  0.00000000000E+00 0.  1.
</event>
<event>
 8    1  0.3654190E-009  0.9042524E+02  0.7561462E-02  0.1301825E+00
          2   -1    0    0  501    0  0.00000000000E+00  0.00000000000E+00  0.15521995773E+04  0.15521995773E+04  0.00000000000E+00 0. -1.
         -2   -1    0    0    0  501 -0.00000000000E+00 -0.00000000000E+00 -0.15196537484E+02  0.15196537484E+02  0.00000000000E+00 0.  1.
         25    2    1    2    0    0 -0.36364718759E+02 -0.32532300715E+02  0.13243926762E+04  0.13311815552E+04  0.12509048305E+03 0.  0.
         23    2    1    2    0    0  0.36364718759E+02  0.32532300715E+02  0.21261036366E+03  0.23621455956E+03  0.90627854731E+02 0.  0.
          5    1    3    3  502    0  0.15609775588E+02  0.11453325474E+02  0.97448104070E+03  0.97468231483E+03  0.41800000000E+01 0.  1.
         -5    1    3    3    0  502 -0.51974494347E+02 -0.43985626189E+02  0.34991163548E+03  0.35649924041E+03  0.41800000000E+01 0.  1.
        -11    1    4    4    0    0  0.54174987773E+02 -0.17398129519E+01  0.17125440847E+03  0.17962747193E+03  0.00000000000E+00 0. -1.
         11    1    4    4    0    0 -0.17810269014E+02  0.34272113667E+02  0.41355955186E+02  0.56587087634E+02  0.00000000000E+00 0.  1.
</event>
<event>
 8    1  0.3654190E-009  0.1165855E+03  0.7561462E-02  0.1248839E+00
          2   -1    0    0  501    0  0.00000000000E+00  0.00000000000E+00  0.29509783450E+03  0.29509783450E+03  0.00000000000E+00 0. -1.
         -2   -1    0    0    0  501 -0.00000000000E+00 -0.00000000000E+00 -0.64735957145E+02  0.64735957145E+02  0.00000000000E+00 0.  1.
         25    2    1    2    0    0  0.47838638190E+02 -0.66264727436E+02  0.89254921417E+02  0.17405211112E+03  0.12509255367E+03 0.  0.
         23    2    1    2    0    0 -0.47838638190E+02  0.66264727436E+02  0.14110695593E+03  0.18578168052E+03  0.89017472430E+02 0.  0.
          5    1    3    3  502    0 -0.18790317083E+02  0.10746688752E+02  0.65900989504E+02  0.69490863808E+02  0.41800000000E+01 0. -1.
         -5    1    3    3    0  502  0.66628955273E+02 -0.77011416188E+02  0.23353931913E+02  0.10456124731E+03  0.41800000000E+01 0. -1.
        -11    1    4    4    0    0 -0.22459470030E+01  0.63488100931E+02  0.11931290031E+03  0.13517156291E+03  0.00000000000E+00 0.  1.
         11    1    4    4    0    0 -0.45592691187E+02  0.27766265043E+01  0.21794055624E+02  0.50610117615E+02  0.00000000000E+00 0. -1.
</event>
<event>
 8    1  0.3654190E-009  0.1128455E+03  0.7561462E-02  0.1255389E+00
          1   -1    0    0  501    0  0.00000000000E+00  0.00000000000E+00  0.21314690722E+04  0.21314690722E+04  0.00000000000E+00 0. -1.
         -1   -1    0    0    0  501 -0.00000000000E+00 -0.00000000000E+00 -0.95293921116E+01  0.95293921116E+01  0.00000000000E+00 0.  1.
         25    2    1    2    0    0  0.46242668340E+02  0.33215252085E+02  0.16960299215E+04  0.17015895985E+04  0.12509208499E+03 0.  0.
         23    2    1    2    0    0 -0.46242668340E+02 -0.33215252085E+02  0.42590975858E+03  0.43940886581E+03  0.91866161089E+02 0.  0.
          5    1    3    3  502    0 -0.40142465858E+02  0.50236565594E+01  0.77845961810E+03  0.77952133011E+03  0.41800000000E+01 0. -1.
         -5    1    3    3    0  502  0.86385134198E+02  0.28191595525E+02  0.91757030345E+03  0.92206826843E+03  0.41800000000E+01 0. -1.
        -11    1    4    4    0    0 -0.29025318534E+02 -0.57427129917E+02  0.37486794373E+03  0.38035025911E+03  0.00000000000E+00 0. -1.
         11    1    4    4    0    0 -0.17217349806E+02  0.24211877833E+02  0.51041814844E+02  0.59058606698E+02  0.00000000000E+00 0.  1.
</event>
<event>
 8    1  0.3654190E-009  0.1090451E+03  0.7561462E-02  0.1262349E+00
         -1   -1    0    0    0  501 -0.00000000000E+00  0.00000000000E+00  0.18887381648E+02  0.18887381648E+02  0.00000000000E+00 0.  1.
          1   -1    0    0  501    0  0.00000000000E+00 -0.00000000000E+00 -0.74573783413E+03  0.74573783413E+03  0.00000000000E+00 0. -1.
         25    2    1    2    0    0  0.22549242262E+02 -0.27561000509E+02 -0.51186975952E+03  0.52813457130E+03  0.12508955838E+03 0.  0.
         23    2    1    2    0    0 -0.22549242262E+02  0.27561000509E+02 -0.21498069296E+03  0.23649064448E+03  0.91886068055E+02 0.  0.
          5    1    3    3  502    0 -0.25698378785E+02  0.38935542907E+02 -0.15594978669E+03  0.16283178910E+03  0.41800000000E+01 0.  1.
         -5    1    3    3    0  502  0.48247621047E+02 -0.66496543415E+02 -0.35591997284E+03  0.36530278221E+03  0.41800000000E+01 0.  1.
        -11    1    4    4    0    0  0.15967508076E+01 -0.28189336068E+02 -0.27508104779E+02  0.39419336748E+02  0.00000000000E+00 0.  1.
         11    1    4    4    0    0 -0.24145993070E+02  0.55750336577E+02 -0.18747258818E+03  0.19707130773E+03  0.00000000000E+00 0. -1.
</event>
<event>
 8    1  0.3654190E-009  0.1267829E+03  0.7561462E-02  0.1232309E+00
          1   -1    0    0  501    0  0.00000000000E+00  0.00000000000E+00  0.25936806481E+03  0.25936806481E+03  0.00000000000E+00 0. -1.
         -1   -1    0    0    0  501 -0.00000000000E+00 -0.00000000000E+00 -0.66250776068E+02  0.66250776068E+02  0.00000000000E+00 0.  1.
         25    2    1    2    0    0 -0.69182109644E+02 -0.25343316121E+02  0.10177201725E+03  0.17729550257E+03  0.12509078211E+03 0.  0.
         23    2    1    2    0    0  0.69182109644E+02  0.25343316121E+02  0.91345271491E+02  0.14832333831E+03  0.90705050006E+02 0.  0.
          5    1    3    3  502    0  0.15202899107E+02 -0.50666859868E+02  0.58731102043E+02  0.79152217766E+02  0.41800000000E+01 0.  1.
         -5    1    3    3    0  502 -0.84385008751E+02  0.25323543747E+02  0.43040915207E+02  0.98143284801E+02  0.41800000000E+01 0.  1.
        -11    1    4    4    0    0  0.68616384682E+02  0.51715127527E+02  0.50389155177E+02  0.99607879314E+02  0.00000000000E+00 0.  1.
         11    1    4    4    0    0  0.56572496228E+00 -0.26371811406E+02  0.40956116315E+02  0.48715458996E+02  0.00000000000E+00 0. -1.
</event>
<event>
 8    1  0.3654190E-009  0.2614319E+03  0.7561462E-02  0.1106286E+00
         -1   -1    0    0    0  501 -0.00000000000E+00  0.00000000000E+00  0.46410820119E+03  0.46410820119E+03  0.00000000000E+00 0.  1.
          1   -1    0    0  501    0  0.00000000000E+00 -0.00000000000E+00 -0.15913836606E+03  0.15913836606E+03  0.00000000000E+00 0. -1.
         25    2    1    2    0    0 -0.19272604333E+03  0.14017225012E+03  0.23722458244E+03  0.35876807535E+03  0.12508973536E+03 0.  0.
         23    2    1    2    0    0  0.19272604333E+03 -0.14017225012E+03  0.67745252688E+02  0.26447849191E+03  0.92562767573E+02 0.  0.
          5    1    3    3  502    0 -0.59002791068E+02  0.11995688603E+03  0.12256514813E+03  0.18141298685E+03  0.41800000000E+01 0.  1.
         -5    1    3    3    0  502 -0.13372325226E+03  0.20215364088E+02  0.11465943431E+03  0.17735508850E+03  0.41800000000E+01 0.  1.
        -11    1    4    4    0    0  0.82704518922E+02 -0.11378642691E+03  0.21722707758E+02  0.14233504288E+03  0.00000000000E+00 0. -1.
         11    1    4    4    0    0  0.11002152441E+03 -0.26385823207E+02  0.46022544930E+02  0.12214344903E+03  0.00000000000E+00 0.  1.
</event>
<event>
 8    1  0.3654190E-009  0.1130145E+03  0.7561462E-02  0.1255087E+00
         -1   -1    0    0    0  501 -0.00000000000E+00  0.00000000000E+00  0.29661603241E+02  0.29661603241E+02  0.00000000000E+00 0.  1.
          1   -1    0    0  501    0  0.00000000000E+00 -0.00000000000E+00 -0.89547987685E+03  0.89547987685E+03  0.00000000000E+00 0. -1.
         25    2    1    2    0    0 -0.59285070026E+02  0.25525189572E+01 -0.76825114321E+03  0.78062682704E+03  0.12508872520E+03 0.  0.
         23    2    1    2    0    0  0.59285070026E+02 -0.25525189572E+01 -0.97567130401E+02  0.14451465305E+03  0.88565823720E+02 0.  0.
          5    1    3    3  502    0 -0.90630557592E+02 -0.23277743878E+02 -0.44093116334E+03  0.45076991308E+03  0.41800000000E+01 0. -1.
         -5    1    3    3    0  502  0.31345487566E+02  0.25830262835E+02 -0.32731997987E+03  0.32985691396E+03  0.41800000000E+01 0. -1.
        -11    1    4    4    0    0  0.49149679664E+02  0.29902388680E+02 -0.21898322178E+02  0.61557943225E+02  0.00000000000E+00 0.  1.
         11    1    4    4    0    0  0.10135390361E+02 -0.32454907637E+02 -0.75668808222E+02  0.82956709827E+02  0.00000000000E+00 0. -1.
</event>
<event>
 8    1  0.3654190E-009  0.1041664E+03  0.7561462E-02  0.1271771E+00
          2   -1    0    0  501    0  0.00000000000E+00  0.00000000000E+00  0.96772570187E+02  0.96772570187E+02  0.00000000000E+00 0. -1.
         -2   -1    0    0    0  501 -0.00000000000E+00 -0.00000000000E+00 -0.17937520069E+03  0.17937520069E+03  0.00000000000E+00 0.  1.
         25    2    1    2    0    0  0.43616757587E+02 -0.44012074826E+02 -0.87622672870E+02  0.16481450659E+03  0.12508638818E+03 0.  0.
         23    2    1    2    0    0 -0.43616757587E+02  0.44012074826E+02  0.50200423714E+01  0.11133326428E+03  0.92360222158E+02 0.  0.
          5    1    3    3  502    0 -0.93316462299E+00 -0.61666507275E+02 -0.97752044839E+02  0.11565709484E+03  0.41800000000E+01 0.  1.
         -5    1    3    3    0  502  0.44549922210E+02  0.17654432449E+02  0.10129371969E+02  0.49157411756E+02  0.41800000000E+01 0.  1.
        -11    1    4    4    0    0 -0.64814823156E+02  0.23572859110E+02 -0.20939923251E+02  0.72077190381E+02  0.00000000000E+00 0.  1.
         11    1    4    4    0    0  0.21198065569E+02  0.20439215715E+02  0.25959965622E+02  0.39256073900E+02  0.00000000000E+00 0. -1.
</event>
<event>
 8    1  0.3654190E-009  0.1116931E+03  0.7561462E-02  0.1257466E+00
         -2   -1    0    0    0  501 -0.00000000000E+00  0.00000000000E+00  0.20296610297E+02  0.20296610297E+02  0.00000000000E+00 0.  1.
          2   -1    0    0  501    0  0.00000000000E+00 -0.00000000000E+00 -0.65785087789E+03  0.65785087789E+03  0.00000000000E+00 0. -1.
         25    2    1    2    0    0 -0.35081684482E+02 -0.11718529832E+02 -0.32843316785E+03  0.35338962805E+03  0.12509130642E+03 0.  0.
         23    2    1    2    0    0  0.35081684482E+02  0.11718529832E+02 -0.30912109975E+03  0.32475786015E+03  0.92432488267E+02 0.  0.
          5    1    3    3  502    0 -0.77830916962E+02 -0.19800613798E+02 -0.15606097257E+03  0.17556256862E+03  0.41800000000E+01 0.  1.
         -5    1    3    3    0  502  0.42749232480E+02  0.80820839660E+01 -0.17237219527E+03  0.17782705942E+03  0.41800000000E+01 0.  1.
        -11    1    4    4    0    0 -0.23101371473E+02 -0.22094082239E+02 -0.88149413205E+02  0.93766416601E+02  0.00000000000E+00 0.  1.
         11    1    4    4    0    0  0.58183055955E+02  0.33812612071E+02 -0.22097168655E+03  0.23099144354E+03  0.00000000000E+00 0. -1.
</event>
<event>
 8    1  0.3654190E-009  0.7339393E+02  0.7561462E-02  0.1348918E+00
          1   -1    0    0  501    0  0.00000000000E+00  0.00000000000E+00  0.26493214111E+03  0.26493214111E+03  0.00000000000E+00 0. -1.
         -1   -1    0    0    0  501 -0.00000000000E+00 -0.00000000000E+00 -0.56889109196E+02  0.56889109196E+02  0.00000000000E+00 0.  1.
         25    2    1    2    0    0 -0.90813784247E+01 -0.41711854261E+02  0.16860466479E+03  0.21423639255E+03  0.12508936280E+03 0.  0.
         23    2    1    2    0    0  0.90813784247E+01  0.41711854261E+02  0.39438367126E+02  0.10758485776E+03  0.90535996139E+02 0.  0.
          5    1    3    3  502    0 -0.14851539061E+02 -0.63079337882E+02  0.26140492029E+02  0.70002634262E+02  0.41800000000E+01 0.  1.
         -5    1    3    3    0  502  0.57701606361E+01  0.21367483622E+02  0.14246417276E+03  0.14423375829E+03  0.41800000000E+01 0.  1.
        -11    1    4    4    0    0 -0.11175267742E+02 -0.18090902588E+01 -0.24875873643E+02  0.27330724582E+02  0.00000000000E+00 0.  1.
         11    1    4    4    0    0  0.20256646167E+02  0.43520944519E+02  0.64314240769E+02  0.80254133174E+02  0.00000000000E+00 0. -1.
</event>
<event>
 8    1  0.3654190E-009  0.1125691E+03  0.7561462E-02  0.1255885E+00
          1   -1    0    0  501    0  0.00000000000E+00  0.00000000000E+00  0.11195546884E+03  0.11195546884E+03  0.00000000000E+00 0. -1.
         -1   -1    0    0    0  501 -0.00000000000E+00 -0.00000000000E+00 -0.13722836241E+03  0.13722836241E+03  0.00000000000E+00 0.  1.
         25    2    1    2    0    0 -0.29791286030E+02 -0.40795445966E+02  0.21516146726E+02  0.13660851556E+03  0.12508857989E+03 0.  0.
         23    2    1    2    0    0  0.29791286030E+02  0.40795445966E+02 -0.46789040288E+02  0.11257531569E+03  0.89062889447E+02 0.  0.
          5    1    3    3  502    0 -0.69425856428E+02 -0.58878425537E+02  0.15379791854E+02  0.92415523220E+02  0.41800000000E+01 0. -1.
         -5    1    3    3    0  502  0.39634570399E+02  0.18082979571E+02  0.61363548721E+01  0.44192992340E+02  0.41800000000E+01 0. -1.
        -11    1    4    4    0    0 -0.20931110295E+02  0.32782840726E+02 -0.47278533070E+02  0.61221611491E+02  0.00000000000E+00 0.  1.
         11    1    4    4    0    0  0.50722396325E+02  0.80126052403E+01  0.48949278225E+00  0.51353704198E+02  0.00000000000E+00 0. -1.
</event>
<event>
 8    1  0.3654190E-009  0.1002409E+03  0.7561462E-02  0.1279790E+00
          2   -1    0    0  501    0  0.00000000000E+00  0.00000000000E+00  0.66551415031E+02  0.66551415031E+02  0.00000000000E+00 0. -1.
         -2   -1    0    0    0  501 -0.00000000000E+00 -0.00000000000E+00 -0.22080380292E+03  0.22080380292E+03  0.00000000000E+00 0.  1.
         25    2    1    2    0    0  0.58779122939E+01 -0.52557924916E+02 -0.92674856838E+02  0.16441832242E+03  0.12509144788E+03 0.  0.
         23    2    1    2    0    0 -0.58779122939E+01  0.52557924916E+02 -0.61577531050E+02  0.12293689553E+03  0.92329857731E+02 0.  0.
          5    1    3    3  502    0  0.31794266889E+02  0.97445001675E+01  0.15443340120E+02  0.36902572330E+02  0.41800000000E+01 0. -1.
         -5    1    3    3    0  502 -0.25916354595E+02 -0.62302425084E+02 -0.10811819696E+03  0.12751575009E+03  0.41800000000E+01 0. -1.
        -11    1    4    4    0    0  0.91517683279E+01 -0.21723319026E+02 -0.35844258796E+02  0.42900679967E+02  0.00000000000E+00 0.  1.
         11    1    4    4    0    0 -0.15029680622E+02  0.74281243942E+02 -0.25733272255E+02  0.80036215566E+02  0.00000000000E+00 0. -1.
</event>
<event>
 8    1  0.3654190E-009  0.9619973E+02  0.7561462E-02  0.1288497E+00
          2   -1    0    0  501    0  0.00000000000E+00  0.00000000000E+00  0.30604568618E+03  0.30604568618E+03  0.00000000000E+00 0. -1.
         -2   -1    0    0    0  501 -0.00000000000E+00 -0.00000000000E+00 -0.45603749367E+02  0.45603749367E+02  0.00000000000E+00 0.  1.
         25    2    1    2    0    0 -0.11984557934E+02  0.37965809912E+02  0.10642750182E+03  0.16899318215E+03  0.12508736994E+03 0.  0.
         23    2    1    2    0    0  0.11984557934E+02 -0.37965809912E+02  0.15401443499E+03  0.18265625339E+03  0.89765407408E+02 0.  0.
          5    1    3    3  502    0  0.12268311014E+01  0.83501719815E+02  0.65405879233E+02  0.10615763639E+03  0.41800000000E+01 0.  1.
         -5    1    3    3    0  502 -0.13211389036E+02 -0.45535909902E+02  0.41021622587E+02  0.62835545757E+02  0.41800000000E+01 0.  1.
        -11    1    4    4    0    0 -0.17805562334E+02 -0.10522244974E+02 -0.26400831720E+01  0.20850077421E+02  0.00000000000E+00 0.  1.
         11    1    4    4    0    0  0.29790120268E+02 -0.27443564938E+02  0.15665451816E+03  0.16180617597E+03  0.00000000000E+00 0. -1.
</event>
<event>
 8    1  0.3654190E-009  0.1259789E+03  0.7561462E-02  0.1233547E+00
         -1   -1    0    0    0  501 -0.00000000000E+00  0.00000000000E+00  0.49720965566E+02  0.49720965566E+02  0.00000000000E+00 0.  1.
          1   -1    0    0  501    0  0.00000000000E+00 -0.00000000000E+00 -0.40026663048E+03  0.40026663048E+03  0.00000000000E+00 0. -1.
         25    2    1    2    0    0 -0.57251470004E+02  0.60016309206E+02 -0.25035011250E+03  0.29189479406E+03  0.12509078218E+03 0.  0.
         23    2    1    2    0    0  0.57251470004E+02 -0.60016309206E+02 -0.10019555242E+03  0.15809280198E+03  0.89858205671E+02 0.  0.
          5    1    3    3  502    0  0.39802794742E+02  0.13267355397E+02 -0.75725375642E+02  0.86672314522E+02  0.41800000000E+01 0. -1.
         -5    1    3    3    0  502 -0.97054264746E+02  0.46748953809E+02 -0.17462473685E+03  0.20522247954E+03  0.41800000000E+01 0. -1.
        -11    1    4    4    0    0  0.57489277985E+02 -0.18388929296E+02 -0.13396171086E+02  0.61827398487E+02  0.00000000000E+00 0.  1.
         11    1    4    4    0    0 -0.23780798122E+00 -0.41627379910E+02 -0.86799381331E+02  0.96265403496E+02  0.00000000000E+00 0. -1.
</event>
<event>
 8    1  0.3654190E-009  0.1644860E+03  0.7561462E-02  0.1183723E+00
          2   -1    0    0  501    0  0.00000000000E+00  0.00000000000E+00  0.13232102595E+04  0.13232102595E+04  0.00000000000E+00 0. -1.
         -2   -1    0    0    0  501 -0.00000000000E+00 -0.00000000000E+00 -0.27913516284E+02  0.27913516284E+02  0.00000000000E+00 0.  1.
         25    2    1    2    0    0  0.66872749347E+02  0.10996998521E+03  0.10028803732E+04  0.10188142139E+04  0.12509195566E+03 0.  0.
         23    2    1    2    0    0 -0.66872749347E+02 -0.10996998521E+03  0.29241637005E+03  0.33230956185E+03  0.91416350689E+02 0.  0.
          5    1    3    3  502    0 -0.30338604050E+02  0.13778001892E+01  0.11378838226E+03  0.11784565145E+03  0.41800000000E+01 0. -1.
         -5    1    3    3    0  502  0.97211353398E+02  0.10859218502E+03  0.88909199090E+03  0.90096856247E+03  0.41800000000E+01 0. -1.
        -11    1    4    4    0    0 -0.24344694249E+02 -0.10715694973E+03  0.16755702612E+03  0.20037622866E+03  0.00000000000E+00 0.  1.
         11    1    4    4    0    0 -0.42528055098E+02 -0.28130354859E+01  0.12485934393E+03  0.13193333318E+03  0.00000000000E+00 0. -1.
</event>
<event>
 8    1  0.3654190E-009  0.1767842E+03  0.7561462E-02  0.1170952E+00
         -2   -1    0    0    0  501 -0.00000000000E+00  0.00000000000E+00  0.56737490721E+02  0.56737490721E+02  0.00000000000E+00 0.  1.
          2   -1    0    0  501    0  0.00000000000E+00 -0.00000000000E+00 -0.61411008841E+03  0.61411008841E+03  0.00000000000E+00 0. -1.
         25    2    1    2    0    0 -0.13759241482E+03 -0.60699562275E+02 -0.27772099305E+03  0.33969702871E+03  0.12509601055E+03 0.  0.
         23    2    1    2    0    0  0.13759241482E+03  0.60699562275E+02 -0.27965160463E+03  0.33115055042E+03  0.94018921467E+02 0.  0.
          5    1    3    3  502    0 -0.70436407107E+02 -0.86529190937E+02 -0.10814148248E+03  0.15543693565E+03  0.41800000000E+01 0. -1.
         -5    1    3    3    0  502 -0.67156007712E+02  0.25829628661E+02 -0.16957951057E+03  0.18426009306E+03  0.41800000000E+01 0. -1.
        -11    1    4    4    0    0  0.99501860153E+02  0.79504354891E+02 -0.24578003561E+03  0.27682013750E+03  0.00000000000E+00 0. -1.
         11    1    4    4    0    0  0.38090554665E+02 -0.18804792616E+02 -0.33871569021E+02  0.54330412919E+02  0.00000000000E+00 0.  1.
</event>
<event>
 8    1  0.3654190E-009  0.1212692E+03  0.7561462E-02  0.1241018E+00
          2   -1    0    0  501    0  0.00000000000E+00  0.00000000000E+00  0.10298846721E+03  0.10298846721E+03  0.00000000000E+00 0. -1.
         -2   -1    0    0    0  501 -0.00000000000E+00 -0.00000000000E+00 -0.24052873490E+03  0.24052873490E+03  0.00000000000E+00 0.  1.
         25    2    1    2    0    0 -0.90462735897E+02  0.59000298758E+02 -0.38019252199E+02  0.16957877021E+03  0.12508778489E+03 0.  0.
         23    2    1    2    0    0  0.90462735897E+02 -0.59000298758E+02 -0.99521015485E+02  0.17393843190E+03  0.93196586465E+02 0.  0.
          5    1    3    3  502    0 -0.57132498523E+02  0.28483485174E+02  0.42741570288E+02  0.76939882674E+02  0.41800000000E+01 0.  1.
         -5    1    3    3    0  502 -0.33330237374E+02  0.30516813584E+02 -0.80760822488E+02  0.92638887534E+02  0.41800000000E+01 0.  1.
        -11    1    4    4    0    0 -0.13464899116E+02 -0.15454268456E+02 -0.43525456596E+02  0.48110324189E+02  0.00000000000E+00 0.  1.
         11    1    4    4    0    0  0.10392763501E+03 -0.43546030302E+02 -0.55995558889E+02  0.12582810771E+03  0.00000000000E+00 0. -1.
</event>
<event>
 8    1  0.3654190E-009  0.1587174E+03  0.7561462E-02  0.1190152E+00
         -2   -1    0    0    0  501 -0.00000000000E+00  0.00000000000E+00  0.25525231834E+02  0.25525231834E+02  0.00000000000E+00 0. -1.
          2   -1    0    0  501    0  0.00000000000E+00 -0.00000000000E+00 -0.12410333499E+04  0.12410333499E+04  0.00000000000E+00 0.  1.
         25    2    1    2    0    0 -0.13585231180E+03  0.27214802175E+02 -0.75449534511E+03  0.77724323555E+03  0.12508926949E+03 0.  0.
         23    2    1    2    0    0  0.13585231180E+03 -0.27214802175E+02 -0.46101277294E+03  0.48931534617E+03  0.87750983473E+02 0.  0.
          5    1    3    3  502    0 -0.14972079397E+03  0.19256138720E+02 -0.50235588887E+03  0.52456270026E+03  0.41800000000E+01 0.  1.
         -5    1    3    3    0  502  0.13868482170E+02  0.79586634556E+01 -0.25213945624E+03  0.25268053529E+03  0.41800000000E+01 0.  1.
        -11    1    4    4    0    0  0.71931431035E+02 -0.43331059761E+02 -0.35236335969E+03  0.36223148505E+03  0.00000000000E+00 0.  1.
         11    1    4    4    0    0  0.63920880761E+02  0.16116257586E+02 -0.10864941325E+03  0.12708386112E+03  0.00000000000E+00 0. -1.
</event>
<event>
 8    1  0.3654190E-009  0.1636382E+03  0.7561462E-02  0.1184649E+00
          2   -1    0    0  501    0  0.00000000000E+00  0.00000000000E+00  0.12297243106E+04  0.12297243106E+04  0.00000000000E+00 0. -1.
         -2   -1    0    0    0  501 -0.00000000000E+00 -0.00000000000E+00 -0.38945777586E+02  0.38945777586E+02  0.00000000000E+00 0.  1.
         25    2    1    2    0    0  0.31491724883E+02  0.14391136458E+03  0.96539671698E+03  0.98455046381E+03  0.12508631038E+03 0.  0.
         23    2    1    2    0    0 -0.31491724883E+02 -0.14391136458E+03  0.22538181608E+03  0.28411962442E+03  0.90690618970E+02 0.  0.
          5    1    3    3  502    0  0.39246045966E+02  0.69842684547E+02  0.78850326962E+03  0.79257373872E+03  0.41800000000E+01 0. -1.
         -5    1    3    3    0  502 -0.77543210829E+01  0.74068680036E+02  0.17689344736E+03  0.19197672509E+03  0.41800000000E+01 0. -1.
        -11    1    4    4    0    0 -0.35875357499E+02 -0.83549200053E+01  0.39399630372E+02  0.53936785568E+02  0.00000000000E+00 0. -1.
         11    1    4    4    0    0  0.43836326159E+01 -0.13555644458E+03  0.18598218571E+03  0.23018283885E+03  0.00000000000E+00 0.  1.
</event>
<event>
 8    1  0.3654190E-009  0.8605191E+02  0.7561462E-02  0.1312704E+00
         -1   -1    0    0    0  501 -0.00000000000E+00  0.00000000000E+00  0.78617987925E+02  0.78617987925E+02  0.00000000000E+00 0.  1.
          1   -1    0    0  501    0  0.00000000000E+00 -0.00000000000E+00 -0.16132269093E+03  0.16132269093E+03  0.00000000000E+00 0. -1.
         25    2    1    2    0    0  0.15655567208E+02 -0.10399229340E+02 -0.23078568962E+02  0.12858252463E+03  0.12509038548E+03 0.  0.
         23    2    1    2    0    0 -0.15655567208E+02  0.10399229340E+02 -0.59626134039E+02  0.11135815422E+03  0.92152709653E+02 0.  0.
          5    1    3    3  502    0 -0.32705333545E+02  0.16205808192E+02 -0.53897041941E+02  0.65227529399E+02  0.41800000000E+01 0.  1.
         -5    1    3    3    0  502  0.48360900753E+02 -0.26605037533E+02  0.30818472979E+02  0.63354995229E+02  0.41800000000E+01 0.  1.
        -11    1    4    4    0    0 -0.30050558721E+02 -0.26711431157E+02 -0.65644252427E+00  0.40211535045E+02  0.00000000000E+00 0.  1.
         11    1    4    4    0    0  0.14394991513E+02  0.37110660498E+02 -0.58969691515E+02  0.71146619179E+02  0.00000000000E+00 0. -1.
</event>
<event>
 8    1  0.3654190E-009  0.8889671E+02  0.7561462E-02  0.1305546E+00
         -1   -1    0    0    0  501 -0.00000000000E+00  0.00000000000E+00  0.21851702436E+03  0.21851702436E+03  0.00000000000E+00 0.  1.
          1   -1    0    0  501    0  0.00000000000E+00 -0.00000000000E+00 -0.77094612847E+02  0.77094612847E+02  0.00000000000E+00 0. -1.
         25    2    1    2    0    0 -0.31674586412E+02  0.69201903701E+02  0.73085513534E+02  0.16364747853E+03  0.12508725771E+03 0.  0.
         23    2    1    2    0    0  0.31674586412E+02 -0.69201903701E+02  0.68336897979E+02  0.13196415868E+03  0.83381200818E+02 0.  0.
          5    1    3    3  502    0 -0.20130175904E+02  0.45933904662E+02 -0.29097770742E+02  0.58131748998E+02  0.41800000000E+01 0.  1.
         -5    1    3    3    0  502 -0.11544410509E+02  0.23267999039E+02  0.10218328428E+03  0.10551572953E+03  0.41800000000E+01 0.  1.
        -11    1    4    4    0    0  0.26663025598E+02 -0.82630795804E+02  0.76282287955E+02  0.11557574488E+03  0.00000000000E+00 0.  1.
         11    1    4    4    0    0  0.50115608141E+01  0.13428892102E+02 -0.79453899760E+01  0.16388413796E+02  0.00000000000E+00 0. -1.
</event>
<event>
 8    1  0.3654190E-009  0.1638321E+03  0.7561462E-02  0.1184437E+00
         -1   -1    0    0    0  501 -0.00000000000E+00  0.00000000000E+00  0.49977302971E+02  0.49977302971E+02  0.00000000000E+00 0.  1.
          1   -1    0    0  501    0  0.00000000000E+00 -0.00000000000E+00 -0.68747675146E+03  0.68747675146E+03  0.00000000000E+00 0. -1.
         25    2    1    2    0    0  0.41459071644E+02 -0.13315150407E+03 -0.22577054200E+03  0.29337485790E+03  0.12509313312E+03 0.  0.
         23    2    1    2    0    0 -0.41459071644E+02  0.13315150407E+03 -0.41172890649E+03  0.44407919653E+03  0.90760468787E+02 0.  0.
          5    1    3    3  502    0 -0.41677561093E+02 -0.64813112413E+02 -0.71306220063E+02  0.10507049091E+03  0.41800000000E+01 0. -1.
         -5    1    3    3    0  502  0.83136632737E+02 -0.68338391660E+02 -0.15446432193E+03  0.18830436699E+03  0.41800000000E+01 0. -1.
        -11    1    4    4    0    0  0.21258044717E+00  0.47923002773E+02 -0.26536623348E+03  0.26965885348E+03  0.00000000000E+00 0.  1.
         11    1    4    4    0    0 -0.41671652091E+02  0.85228501301E+02 -0.14636267301E+03  0.17442034306E+03  0.00000000000E+00 0. -1.
</event>
<event>
 8    1  0.3654190E-009  0.1491086E+03  0.7561462E-02  0.1201573E+00
         -1   -1    0    0    0  501 -0.00000000000E+00  0.00000000000E+00  0.40213724173E+03  0.40213724173E+03  0.00000000000E+00 0.  1.
          1   -1    0    0  501    0  0.00000000000E+00 -0.00000000000E+00 -0.74239474271E+02  0.74239474271E+02  0.00000000000E+00 0. -1.
         25    2    1    2    0    0  0.11093544664E+03 -0.75599886598E+02  0.16500534336E+03  0.24676820965E+03  0.12508305153E+03 0.  0.
         23    2    1    2    0    0 -0.11093544664E+03  0.75599886598E+02  0.16289242410E+03  0.22960850635E+03  0.90355454651E+02 0.  0.
          5    1    3    3  502    0  0.10079510822E+02 -0.15517642995E+02 -0.20034156853E+02  0.27590462543E+02  0.41800000000E+01 0.  1.
         -5    1    3    3    0  502  0.10085593582E+03 -0.60082243602E+02  0.18503950021E+03  0.21917774710E+03  0.41800000000E+01 0.  1.
        -11    1    4    4    0    0 -0.46164179290E+02  0.84607340310E+02  0.99679645111E+02  0.13865628415E+03  0.00000000000E+00 0.  1.
         11    1    4    4    0    0 -0.64771267353E+02 -0.90074537118E+01  0.63212778989E+02  0.90952222207E+02  0.00000000000E+00 0. -1.
</event>
<event>
 8    1  0.3654190E-009  0.1568569E+03  0.7561462E-02  0.1192292E+00
         -1   -1    0    0    0  501 -0.00000000000E+00  0.00000000000E+00  0.19852415817E+03  0.19852415817E+03  0.00000000000E+00 0.  1.
          1   -1    0    0  501    0  0.00000000000E+00 -0.00000000000E+00 -0.21519050910E+03  0.21519050910E+03  0.00000000000E+00 0. -1.
         25    2    1    2    0    0  0.13149905049E+03  0.85466946937E+01 -0.12420551173E+03  0.22008936828E+03  0.12508906673E+03 0.  0.
         23    2    1    2    0    0 -0.13149905049E+03 -0.85466946937E+01  0.10753916080E+03  0.19362529899E+03  0.92525883049E+02 0.  0.
          5    1    3    3  502    0  0.12405274351E+03  0.54001223854E+02 -0.89668065726E+02  0.16236702178E+03  0.41800000000E+01 0. -1.
         -5    1    3    3    0  502  0.74463069791E+01 -0.45454529160E+02 -0.34537446009E+02  0.57722346501E+02  0.41800000000E+01 0. -1.
        -11    1    4    4    0    0 -0.61140222704E+02  0.66229138266E+00  0.10632940509E+03  0.12265605508E+03  0.00000000000E+00 0.  1.
         11    1    4    4    0    0 -0.70358827787E+02 -0.92089860763E+01  0.12097557121E+01  0.70969243909E+02  0.00000000000E+00 0. -1.
</event>
<event>
 8    1  0.3654190E-009  0.1379019E+03  0.7561462E-02  0.1216180E+00
          1   -1    0    0  501    0  0.00000000000E+00  0.00000000000E+00  0.89216033783E+03  0.89216033783E+03  0.00000000000E+00 0. -1.
         -1   -1    0    0    0  501 -0.00000000000E+00 -0.00000000000E+00 -0.25740973805E+02  0.25740973805E+02  0.00000000000E+00 0.  1.
         25    2    1    2    0    0  0.88160499823E+02  0.44410262254E+02  0.35215119486E+03  0.38652673806E+03  0.12509160671E+03 0.  0.
         23    2    1    2    0    0 -0.88160499823E+02 -0.44410262254E+02  0.51426816917E+03  0.53137457358E+03  0.90236591840E+02 0.  0.
          5    1    3    3  502    0  0.30164841071E+02 -0.38545669785E+02  0.18188930824E+03  0.18840615475E+03  0.41800000000E+01 0. -1.
         -5    1    3    3    0  502  0.57995658752E+02  0.82955932039E+02  0.17026188662E+03  0.19812058331E+03  0.41800000000E+01 0. -1.
        -11    1    4    4    0    0 -0.41863569777E+01 -0.41124277003E+02  0.92511637542E+02  0.10132687119E+03  0.00000000000E+00 0.  1.
         11    1    4    4    0    0 -0.83974142846E+02 -0.32859852506E+01  0.42175653163E+03  0.43004770239E+03  0.00000000000E+00 0. -1.
</event>
<event>
 8    1  0.3654190E-009  0.9595076E+02  0.7561462E-02  0.1289049E+00
          4   -1    0    0  501    0  0.00000000000E+00  0.00000000000E+00  0.15708448486E+02  0.15708448486E+02  0.00000000000E+00 0. -1.
         -4   -1    0    0    0  501 -0.00000000000E+00 -0.00000000000E+00 -0.81464925850E+03  0.81464925850E+03  0.00000000000E+00 0.  1.
         25    2    1    2    0    0 -0.15010745219E+02 -0.17518390999E+02 -0.54320725044E+03  0.55790089280E+03  0.12508825987E+03 0.  0.
         23    2    1    2    0    0  0.15010745219E+02  0.17518390999E+02 -0.25573355957E+03  0.27245681418E+03  0.91108976563E+02 0.  0.
          5    1    3    3  502    0  0.79595217371E+01 -0.56778324073E+02 -0.12957665722E+03  0.14175582728E+03  0.41800000000E+01 0. -1.
         -5    1    3    3    0  502 -0.22970266957E+02  0.39259933073E+02 -0.41363059322E+03  0.41614506552E+03  0.41800000000E+01 0. -1.
        -11    1    4    4    0    0 -0.48374022314E+01  0.50237320367E+02 -0.18803794441E+03  0.19469323912E+03  0.00000000000E+00 0.  1.
         11    1    4    4    0    0  0.19848147451E+02 -0.32718929367E+02 -0.67695615153E+02  0.77763575067E+02  0.00000000000E+00 0. -1.
</event>
<event>
 8    1  0.3654190E-009  0.2562682E+03  0.7561462E-02  0.1109406E+00
          1   -1    0    0  501    0  0.00000000000E+00  0.00000000000E+00  0.12927827709E+03  0.12927827709E+03  0.00000000000E+00 0. -1.
         -1   -1    0    0    0  501 -0.00000000000E+00 -0.00000000000E+00 -0.55961633738E+03  0.55961633738E+03  0.00000000000E+00 0.  1.
         25    2    1    2    0    0  0.71233467321E+02  0.22300684310E+03 -0.12388381955E+03  0.29291727907E+03  0.12508825962E+03 0.  0.
         23    2    1    2    0    0 -0.71233467321E+02 -0.22300684310E+03 -0.30645424075E+03  0.39597733540E+03  0.89875411233E+02 0.  0.
          5    1    3    3  502    0  0.35520403016E+01 -0.14209995291E+02 -0.20195385017E+02  0.25295591166E+02  0.41800000000E+01 0.  1.
         -5    1    3    3    0  502  0.67681427019E+02  0.23721683839E+03 -0.10368843453E+03  0.26762168790E+03  0.41800000000E+01 0.  1.
        -11    1    4    4    0    0 -0.90926954091E+02 -0.15416026439E+03 -0.21199475121E+03  0.27744345845E+03  0.00000000000E+00 0.  1.
         11    1    4    4    0    0  0.19693486770E+02 -0.68846578716E+02 -0.94459489541E+02  0.11853387696E+03  0.00000000000E+00 0. -1.
</event>
<event>
 8    1  0.3654190E-009  0.1006472E+03  0.7561462E-02  0.1278941E+00
         -1   -1    0    0    0  501 -0.00000000000E+00  0.00000000000E+00  0.27837302670E+02  0.27837302670E+02  0.00000000000E+00 0.  1.
          1   -1    0    0  501    0  0.00000000000E+00 -0.00000000000E+00 -0.53699320476E+03  0.53699320476E+03  0.00000000000E+00 0. -1.
         25    2    1    2    0    0 -0.40053746287E+01  0.25451430525E+02 -0.40014221241E+03  0.42002979796E+03  0.12508965855E+03 0.  0.
         23    2    1    2    0    0  0.40053746287E+01 -0.25451430525E+02 -0.10901368968E+03  0.14480070948E+03  0.91757520595E+02 0.  0.
          5    1    3    3  502    0 -0.10908981684E+02 -0.46209157769E+02 -0.23569064876E+03  0.24046173595E+03  0.41800000000E+01 0.  1.
         -5    1    3    3    0  502  0.69036070549E+01  0.71660588294E+02 -0.16445156365E+03  0.17956806201E+03  0.41800000000E+01 0.  1.
        -11    1    4    4    0    0  0.38888377007E+02 -0.25736764376E+02 -0.23030376731E+02  0.52010433176E+02  0.00000000000E+00 0.  1.
         11    1    4    4    0    0 -0.34883002378E+02  0.28533385088E+00 -0.85983312950E+02  0.92790276302E+02  0.00000000000E+00 0. -1.
</event>
<event>
 8    1  0.3654190E-009  0.1058162E+03  0.7561462E-02  0.1268520E+00
         -1   -1    0    0    0  501 -0.00000000000E+00  0.00000000000E+00  0.54954485266E+02  0.54954485266E+02  0.00000000000E+00 0.  1.
          1   -1    0    0  501    0  0.00000000000E+00 -0.00000000000E+00 -0.38013491607E+03  0.38013491607E+03  0.00000000000E+00 0. -1.
         25    2    1    2    0    0 -0.91843630604E+02  0.23377862246E+02 -0.15541642743E+03  0.22087105638E+03  0.12509188905E+03 0.  0.
         23    2    1    2    0    0  0.91843630604E+02 -0.23377862246E+02 -0.16976400337E+03  0.21421834496E+03  0.89932783505E+02 0.  0.
          5    1    3    3  502    0 -0.78409916225E+02  0.45349180757E+02 -0.34251961636E+02  0.96929523024E+02  0.41800000000E+01 0.  1.
         -5    1    3    3    0  502 -0.13433714379E+02 -0.21971318511E+02 -0.12116446580E+03  0.12394153336E+03  0.41800000000E+01 0.  1.
        -11    1    4    4    0    0  0.22372204501E+02 -0.75820933056E+01 -0.13099615804E+03  0.13310896700E+03  0.00000000000E+00 0. -1.
         11    1    4    4    0    0  0.69471426103E+02 -0.15795768940E+02 -0.38767845328E+02  0.81109377958E+02  0.00000000000E+00 0.  1.
</event>
<event>
 8    1  0.3654190E-009  0.1263699E+03  0.7561462E-02  0.1232944E+00
          2   -1    0    0  501    0  0.00000000000E+00  0.00000000000E+00  0.18387479457E+04  0.18387479457E+04  0.00000000000E+00 0. -1.
         -2   -1    0    0    0  501 -0.00000000000E+00 -0.00000000000E+00 -0.16873276539E+02  0.16873276539E+02  0.00000000000E+00 0.  1.
         25    2    1    2    0    0 -0.88917838553E+02  0.63412220063E+01  0.15363983588E+04  0.15440575988E+04  0.12508940261E+03 0.  0.
         23    2    1    2    0    0  0.88917838553E+02 -0.63412220063E+01  0.28547631043E+03  0.31156362342E+03  0.87341711190E+02 0.  0.
          5    1    3    3  502    0 -0.77572352679E+02 -0.52093391630E+02  0.99118543832E+03  0.99558888949E+03  0.41800000000E+01 0.  1.
         -5    1    3    3    0  502 -0.11345485874E+02  0.58434613637E+02  0.54521292043E+03  0.54846870934E+03  0.41800000000E+01 0.  1.
        -11    1    4    4    0    0  0.59195041562E+02  0.17170684684E+02  0.25665332415E+03  0.26395040094E+03  0.00000000000E+00 0. -1.
         11    1    4    4    0    0  0.29722796990E+02 -0.23511906691E+02  0.28822986279E+02  0.47613222483E+02  0.00000000000E+00 0.  1.
</event>
<event>
 8    1  0.3654190E-009  0.1317954E+03  0.7561462E-02  0.1224816E+00
          2   -1    0    0  501    0  0.00000000000E+00  0.00000000000E+00  0.94837404331E+02  0.94837404331E+02  0.00000000000E+00 0.  1.
         -2   -1    0    0    0  501 -0.00000000000E+00 -0.00000000000E+00 -0.26024071842E+03  0.26024071842E+03  0.00000000000E+00 0. -1.
         25    2    1    2    0    0 -0.10239611342E+03  0.29181356310E+02 -0.14790094413E+03  0.22104019185E+03  0.12509021359E+03 0.  0.
         23    2    1    2    0    0  0.10239611342E+03 -0.29181356310E+02 -0.17502369953E+02  0.13403793090E+03  0.79519295557E+02 0.  0.
          5    1    3    3  502    0 -0.67313004667E+02  0.62663952546E+02 -0.14565791222E+03  0.17231224953E+03  0.41800000000E+01 0.  1.
         -5    1    3    3    0  502 -0.35083108754E+02 -0.33482596236E+02 -0.22430319156E+01  0.48727942320E+02  0.41800000000E+01 0.  1.
        -11    1    4    4    0    0  0.10560738085E+03 -0.38956980611E+02  0.13372300141E+01  0.11257154797E+03  0.00000000000E+00 0.  1.
         11    1    4    4    0    0 -0.32112674324E+01  0.97756243008E+01 -0.18839599967E+02  0.21466382925E+02  0.00000000000E+00 0. -1.
</event>
<event>
 8    1  0.3654190E-009  0.8684678E+02  0.7561462E-02  0.1310672E+00
          1   -1    0    0  501    0  0.00000000000E+00  0.00000000000E+00  0.10741398316E+03  0.10741398316E+03  0.00000000000E+00 0. -1.
         -1   -1    0    0    0  501 -0.00000000000E+00 -0.00000000000E+00 -0.15968755226E+03  0.15968755226E+03  0.00000000000E+00 0.  1.
         25    2    1    2    0    0  0.64648066177E+02 -0.33447801957E+02 -0.30469238041E+02  0.14790833237E+03  0.12510144844E+03 0.  0.
         23    2    1    2    0    0 -0.64648066177E+02  0.33447801957E+02 -0.21804331057E+02  0.11919320305E+03  0.91833887447E+02 0.  0.
          5    1    3    3  502    0  0.79308974352E+02 -0.25178674340E+02  0.27235652319E+02  0.87653478034E+02  0.41800000000E+01 0.  1.
         -5    1    3    3    0  502 -0.14660908175E+02 -0.82691276164E+01 -0.57704890360E+02  0.60254854339E+02  0.41800000000E+01 0.  1.
        -11    1    4    4    0    0 -0.29867644290E+02  0.18830889910E+02  0.35833319689E+02  0.50306116827E+02  0.00000000000E+00 0. -1.
         11    1    4    4    0    0 -0.34780421888E+02  0.14616912047E+02 -0.57637650746E+02  0.68887086220E+02  0.00000000000E+00 0.  1.
</event>
<event>
 8    1  0.3654190E-009  0.2577038E+03  0.7561462E-02  0.1108531E+00
         -2   -1    0    0    0  501 -0.00000000000E+00  0.00000000000E+00  0.11076263103E+03  0.11076263103E+03  0.00000000000E+00 0.  1.
          2   -1    0    0  501    0  0.00000000000E+00 -0.00000000000E+00 -0.11733826884E+04  0.11733826884E+04  0.00000000000E+00 0. -1.
         25    2    1    2    0    0  0.46377396687E+02  0.24735141389E+03 -0.95523685864E+03  0.99572052711E+03  0.12509327365E+03 0.  0.
         23    2    1    2    0    0 -0.46377396687E+02 -0.24735141389E+03 -0.10738319874E+03  0.28842479235E+03  0.91236640619E+02 0.  0.
          5    1    3    3  502    0  0.22952518326E+02  0.79018473845E+02 -0.13584025523E+03  0.15887348629E+03  0.41800000000E+01 0. -1.
         -5    1    3    3    0  502  0.23424878360E+02  0.16833294004E+03 -0.81939660341E+03  0.83684704081E+03  0.41800000000E+01 0. -1.
        -11    1    4    4    0    0 -0.12897695366E+02 -0.21830882223E+03 -0.67685117937E+02  0.22892437091E+03  0.00000000000E+00 0.  1.
         11    1    4    4    0    0 -0.33479701321E+02 -0.29042591661E+02 -0.39698080807E+02  0.59500421433E+02  0.00000000000E+00 0. -1.
</event>
<event>
 8    1  0.3654190E-009  0.1274713E+03  0.7561462E-02  0.1231257E+00
         -1   -1    0    0    0  501 -0.00000000000E+00  0.00000000000E+00  0.22463241563E+03  0.22463241563E+03  0.00000000000E+00 0.  1.
          1   -1    0    0  501    0  0.00000000000E+00 -0.00000000000E+00 -0.77116670754E+02  0.77116670754E+02  0.00000000000E+00 0. -1.
         25    2    1    2    0    0  0.23556718236E+02 -0.74003674491E+02  0.61872432386E+02  0.15970911993E+03  0.12508933723E+03 0.  0.
         23    2    1    2    0    0 -0.23556718236E+02  0.74003674491E+02  0.85643312489E+02  0.14203996645E+03  0.82517345343E+02 0.  0.
          5    1    3    3  502    0  0.18438655425E+02  0.31133385446E+02 -0.20594730719E+01  0.36482674416E+02  0.41800000000E+01 0.  1.
         -5    1    3    3    0  502  0.51180628110E+01 -0.10513705994E+03  0.63931905458E+02  0.12322644552E+03  0.41800000000E+01 0.  1.
        -11    1    4    4    0    0 -0.41944021535E+02  0.55693402657E+01  0.28599482915E+02  0.51071018362E+02  0.00000000000E+00 0.  1.
         11    1    4    4    0    0  0.18387303299E+02  0.68434334226E+02  0.57043829575E+02  0.90968948087E+02  0.00000000000E+00 0. -1.
</event>
<event>
 8    1  0.3654190E-009  0.1168770E+03  0.7561462E-02  0.1248340E+00
         -1   -1    0    0    0  501 -0.00000000000E+00  0.00000000000E+00  0.12582547946E+03  0.12582547946E+03  0.00000000000E+00 0.  1.
          1   -1    0    0  501    0  0.00000000000E+00 -0.00000000000E+00 -0.13798026947E+03  0.13798026947E+03  0.00000000000E+00 0. -1.
         25    2    1    2    0    0 -0.25583685657E+02 -0.69495854691E+02 -0.61207286221E+01  0.14549707512E+03  0.12509091397E+03 0.  0.
         23    2    1    2    0    0  0.25583685657E+02  0.69495854691E+02 -0.60340613877E+01  0.11830867381E+03  0.92067006089E+02 0.  0.
          5    1    3    3  502    0  0.36696650560E+02  0.10223381863E+02 -0.20121596224E+02  0.43284093310E+02  0.41800000000E+01 0.  1.
         -5    1    3    3    0  502 -0.62280336217E+02 -0.79719236554E+02  0.14000867602E+02  0.10221298181E+03  0.41800000000E+01 0.  1.
        -11    1    4    4    0    0  0.42825915832E+02  0.33863069777E+02  0.32107838661E+02  0.63337823337E+02  0.00000000000E+00 0.  1.
         11    1    4    4    0    0 -0.17242230175E+02  0.35632784914E+02 -0.38141900049E+02  0.54970850471E+02  0.00000000000E+00 0. -1.
</event>
<event>
 8    1  0.3654190E-009  0.1293003E+03  0.7561462E-02  0.1228498E+00
          2   -1    0    0  501    0  0.00000000000E+00  0.00000000000E+00  0.51073506732E+02  0.51073506732E+02  0.00000000000E+00 0. -1.
         -2   -1    0    0    0  501 -0.00000000000E+00 -0.00000000000E+00 -0.38071945728E+03  0.38071945728E+03  0.00000000000E+00 0.  1.
         25    2    1    2    0    0  0.41588154040E+02  0.79758142634E+02 -0.14908742565E+03  0.21439353150E+03  0.12508633015E+03 0.  0.
         23    2    1    2    0    0 -0.41588154040E+02 -0.79758142634E+02 -0.18055852489E+03  0.21739943250E+03  0.81056748448E+02 0.  0.
          5    1    3    3  502    0  0.13050552942E+02  0.10395459646E+03 -0.67946769952E+02  0.12494443167E+03  0.41800000000E+01 0. -1.
         -5    1    3    3    0  502  0.28537601098E+02 -0.24196453826E+02 -0.81140655702E+02  0.89449099839E+02  0.41800000000E+01 0. -1.
        -11    1    4    4    0    0 -0.29991837294E+02  0.51259307816E+01 -0.78249016256E+02  0.83956500735E+02  0.00000000000E+00 0. -1.
         11    1    4    4    0    0 -0.11596316746E+02 -0.84884073416E+02 -0.10230950863E+03  0.13344293177E+03  0.00000000000E+00 0.  1.
</event>
<event>
 8    1  0.3654190E-009  0.7178657E+02  0.7561462E-02  0.1354121E+00
         -2   -1    0    0    0  501 -0.00000000000E+00  0.00000000000E+00  0.21771317128E+03  0.21771317128E+03  0.00000000000E+00 0.  1.
          2   -1    0    0  501    0  0.00000000000E+00 -0.00000000000E+00 -0.82781498036E+02  0.82781498036E+02  0.00000000000E+00 0. -1.
         25    2    1    2    0    0  0.38948088415E+02  0.44164105655E+02  0.13258003009E+03  0.19155246043E+03  0.12508980334E+03 0.  0.
         23    2    1    2    0    0 -0.38948088415E+02 -0.44164105655E+02  0.23516431566E+01  0.10894220889E+03  0.91626703709E+02 0.  0.
          5    1    3    3  502    0  0.30615614585E+01 -0.94464404065E+01 -0.21726162165E+02  0.24250915804E+02  0.41800000000E+01 0. -1.
         -5    1    3    3    0  502  0.35886526956E+02  0.53610546062E+02  0.15430619226E+03  0.16730154463E+03  0.41800000000E+01 0. -1.
        -11    1    4    4    0    0 -0.76082925002E+01 -0.34537746549E+02  0.43671669255E+02  0.56195700432E+02  0.00000000000E+00 0.  1.
         11    1    4    4    0    0 -0.31339795915E+02 -0.96263591061E+01 -0.41320026099E+02  0.52746508457E+02  0.00000000000E+00 0. -1.
</event>
<event>
 8    1  0.3654190E-009  0.9958823E+02  0.7561462E-02  0.1281164E+00
         -1   -1    0    0    0  501 -0.00000000000E+00  0.00000000000E+00  0.30816868835E+02  0.30816868835E+02  0.00000000000E+00 0.  1.
          1   -1    0    0  501    0  0.00000000000E+00 -0.00000000000E+00 -0.43803945714E+03  0.43803945714E+03  0.00000000000E+00 0. -1.
         25    2    1    2    0    0  0.62950072380E+01  0.37896999179E+02 -0.19954659941E+03  0.23862541317E+03  0.12508969906E+03 0.  0.
         23    2    1    2    0    0 -0.62950072380E+01 -0.37896999179E+02 -0.20767598890E+03  0.23023091281E+03  0.91657772098E+02 0.  0.
          5    1    3    3  502    0 -0.21111046206E+02  0.77922138373E+02 -0.14047292639E+03  0.16207298161E+03  0.41800000000E+01 0. -1.
         -5    1    3    3    0  502  0.27406053444E+02 -0.40025139193E+02 -0.59073673017E+02  0.76552431552E+02  0.41800000000E+01 0. -1.
        -11    1    4    4    0    0 -0.10367538002E+01 -0.53332168673E+02 -0.20715902704E+03  0.21391647332E+03  0.00000000000E+00 0. -1.
         11    1    4    4    0    0 -0.52582534378E+01  0.15435169493E+02 -0.51696186470E+00  0.16314439496E+02  0.00000000000E+00 0.  1.
</event>
<event>
 8    1  0.3654190E-009  0.1106965E+03  0.7561462E-02  0.1259285E+00
          2   -1    0    0  501    0  0.00000000000E+00  0.00000000000E+00  0.11787976994E+03  0.11787976994E+03  0.00000000000E+00 0. -1.
         -2   -1    0    0    0  501 -0.00000000000E+00 -0.00000000000E+00 -0.16588798180E+03  0.16588798180E+03  0.00000000000E+00 0.  1.
         25    2    1    2    0    0 -0.67846876502E+02  0.56186424051E+02 -0.28181696264E+02  0.15556632332E+03  0.12508621046E+03 0.  0.
         23    2    1    2    0    0  0.67846876502E+02 -0.56186424051E+02 -0.19826515604E+02  0.12820142842E+03  0.91007706433E+02 0.  0.
          5    1    3    3  502    0 -0.48042030651E+02 -0.16345893983E+02 -0.55631233034E+02  0.75415724143E+02  0.41800000000E+01 0.  1.
         -5    1    3    3    0  502 -0.19804845852E+02  0.72532318035E+02  0.27449536770E+02  0.80150599172E+02  0.41800000000E+01 0.  1.
        -11    1    4    4    0    0  0.31075346751E+02 -0.48504947765E+02  0.30672454570E+02  0.65262597272E+02  0.00000000000E+00 0. -1.
         11    1    4    4    0    0  0.36771529751E+02 -0.76814762861E+01 -0.50498970174E+02  0.62938831152E+02  0.00000000000E+00 0.  1.
</event>
<event>
 8    1  0.3654190E-009  0.1042590E+03  0.7561462E-02  0.1271587E+00
          2   -1    0    0  501    0  0.00000000000E+00  0.00000000000E+00  0.87957550265E+02  0.87957550265E+02  0.00000000000E+00 0. -1.
         -2   -1    0    0    0  501 -0.00000000000E+00 -0.00000000000E+00 -0.16465117825E+03  0.16465117825E+03  0.00000000000E+00 0.  1.
         25    2    1    2    0    0  0.19137162671E+02 -0.48285496263E+02 -0.57547944847E+02  0.14716157444E+03  0.12508814049E+03 0.  0.
         23    2    1    2    0    0 -0.19137162671E+02  0.48285496263E+02 -0.19145683134E+02  0.10544715407E+03  0.89748676728E+02 0.  0.
          5    1    3    3  502    0  0.57756528582E+02 -0.39880430331E+02  0.77312480718E+01  0.70735492604E+02  0.41800000000E+01 0.  1.
         -5    1    3    3    0  502 -0.38619365910E+02 -0.84050659316E+01 -0.65279192919E+02  0.76426081836E+02  0.41800000000E+01 0.  1.
        -11    1    4    4    0    0 -0.51539628494E+02  0.19450904103E+02 -0.27029764441E+02  0.61361870420E+02  0.00000000000E+00 0.  1.
         11    1    4    4    0    0  0.32402465823E+02  0.28834592160E+02  0.78840813071E+01  0.44085283650E+02  0.00000000000E+00 0. -1.
</event>
<event>
 8    1  0.3654190E-009  0.1567932E+03  0.7561462E-02  0.1192366E+00
          1   -1    0    0  501    0  0.00000000000E+00  0.00000000000E+00  0.78863613309E+02  0.78863613309E+02  0.00000000000E+00 0. -1.
         -1   -1    0    0    0  501 -0.00000000000E+00 -0.00000000000E+00 -0.33596535983E+03  0.33596535983E+03  0.00000000000E+00 0.  1.
         25    2    1    2    0    0 -0.87249765806E+02 -0.75504485057E+02 -0.93596338735E+02  0.19422025813E+03  0.12509110738E+03 0.  0.
         23    2    1    2    0    0  0.87249765806E+02  0.75504485057E+02 -0.16350540779E+03  0.22060871502E+03  0.92847928723E+02 0.  0.
          5    1    3    3  502    0 -0.11188193601E+03 -0.84196486739E+02 -0.92251059713E+02  0.16773296159E+03  0.41800000000E+01 0.  1.
         -5    1    3    3    0  502  0.24632170204E+02  0.86920016826E+01 -0.13452790222E+01  0.26487296538E+02  0.41800000000E+01 0.  1.
        -11    1    4    4    0    0  0.77151389984E+02  0.96618537663E+02 -0.12701674974E+03  0.17725894480E+03  0.00000000000E+00 0. -1.
         11    1    4    4    0    0  0.10098375822E+02 -0.21114052606E+02 -0.36488658054E+02  0.43349770222E+02  0.00000000000E+00 0.  1.
</event>
<event>
 8    1  0.3654190E-009  0.8357525E+02  0.7561462E-02  0.1319201E+00
          1   -1    0    0  501    0  0.00000000000E+00  0.00000000000E+00  0.15181053423E+03  0.15181053423E+03  0.00000000000E+00 0. -1.
         -1   -1    0    0    0  501 -0.00000000000E+00 -0.00000000000E+00 -0.88846645123E+02  0.88846645123E+02  0.00000000000E+00 0.  1.
         25    2    1    2    0    0 -0.29285437419E+02 -0.26928449168E+02  0.49164614232E+02  0.14016707754E+03  0.12508745786E+03 0.  0.
         23    2    1    2    0    0  0.29285437419E+02  0.26928449168E+02  0.13799274874E+02  0.10049010182E+03  0.91241779665E+02 0.  0.
          5    1    3    3  502    0 -0.47590144027E+02 -0.18752630223E+02  0.84768278026E+02  0.99093977154E+02  0.41800000000E+01 0. -1.
         -5    1    3    3    0  502  0.18304706608E+02 -0.81758189448E+01 -0.35603663795E+02  0.41073100382E+02  0.41800000000E+01 0. -1.
        -11    1    4    4    0    0  0.34780442969E+02 -0.25188762058E+02  0.20627908552E+02  0.47640986119E+02  0.00000000000E+00 0. -1.
         11    1    4    4    0    0 -0.54950055502E+01  0.52117211226E+02 -0.68286336782E+01  0.52849115696E+02  0.00000000000E+00 0.  1.
</event>
<event>
 8    1  0.3654190E-009  0.7451731E+02  0.7561462E-02  0.1345372E+00
          2   -1    0    0  501    0  0.00000000000E+00  0.00000000000E+00  0.92498686054E+02  0.92498686054E+02  0.00000000000E+00 0. -1.
         -2   -1    0    0    0  501 -0.00000000000E+00 -0.00000000000E+00 -0.14768874878E+03  0.14768874878E+03  0.00000000000E+00 0.  1.
         25    2    1    2    0    0  0.33105585387E+02 -0.27978998688E+02 -0.30807529174E+02  0.13592197895E+03  0.12508747482E+03 0.  0.
         23    2    1    2    0    0 -0.33105585387E+02  0.27978998688E+02 -0.24382533552E+02  0.10426545588E+03  0.91640456114E+02 0.  0.
          5    1    3    3  502    0 -0.91980672423E+01  0.26764621091E+01 -0.69812400774E+02  0.70590449725E+02  0.41800000000E+01 0. -1.
         -5    1    3    3    0  502  0.42303652629E+02 -0.30655460797E+02  0.39004871600E+02  0.65331529226E+02  0.41800000000E+01 0. -1.
        -11    1    4    4    0    0 -0.41665208871E+02  0.48499189359E+02 -0.41482318436E+02  0.76216426980E+02  0.00000000000E+00 0.  1.
         11    1    4    4    0    0  0.85596234843E+01 -0.20520190671E+02  0.17099784884E+02  0.28049028904E+02  0.00000000000E+00 0. -1.
</event>
<event>
 8    1  0.3654190E-009  0.8686145E+02  0.7561462E-02  0.1310635E+00
         -2   -1    0    0    0  501 -0.00000000000E+00  0.00000000000E+00  0.28684375483E+03  0.28684375483E+03  0.00000000000E+00 0.  1.
          2   -1    0    0  501    0  0.00000000000E+00 -0.00000000000E+00 -0.45360452293E+02  0.45360452293E+02  0.00000000000E+00 0. -1.
         25    2    1    2    0    0  0.29662529723E+02 -0.22772523241E+01  0.15255965059E+03  0.19951625336E+03  0.12508891566E+03 0.  0.
         23    2    1    2    0    0 -0.29662529723E+02  0.22772523241E+01  0.88923651947E+02  0.13268795376E+03  0.93880912064E+02 0.  0.
          5    1    3    3  502    0  0.56645297304E+02 -0.27075133655E+02  0.14985896113E+03  0.16253286806E+03  0.41800000000E+01 0. -1.
         -5    1    3    3    0  502 -0.26982767582E+02  0.24797881331E+02  0.27006894605E+01  0.36983385302E+02  0.41800000000E+01 0. -1.
        -11    1    4    4    0    0 -0.50600170169E+02  0.10037983770E+02  0.96237051134E+02  0.10919115509E+03  0.00000000000E+00 0.  1.
         11    1    4    4    0    0  0.20937640446E+02 -0.77607314456E+01 -0.73133991868E+01  0.23496798669E+02  0.00000000000E+00 0. -1.
</event>
<event>
 8    1  0.3654190E-009  0.1182122E+03  0.7561462E-02  0.1246076E+00
         -2   -1    0    0    0  501 -0.00000000000E+00  0.00000000000E+00  0.33199781012E+02  0.33199781012E+02  0.00000000000E+00 0. -1.
          2   -1    0    0  501    0  0.00000000000E+00 -0.00000000000E+00 -0.60345363208E+03  0.60345363208E+03  0.00000000000E+00 0.  1.
         25    2    1    2    0    0 -0.83886575295E+02 -0.34974393446E+02 -0.30229392467E+03  0.33954382610E+03  0.12509287445E+03 0.  0.
         23    2    1    2    0    0  0.83886575295E+02  0.34974393446E+02 -0.26795992640E+03  0.29710958700E+03  0.90616879311E+02 0.  0.
          5    1    3    3  502    0 -0.95797000597E+01 -0.53776007944E+02 -0.44545097372E+02  0.70607136916E+02  0.41800000000E+01 0. -1.
         -5    1    3    3    0  502 -0.74306875235E+02  0.18801614499E+02 -0.25774882730E+03  0.26893668918E+03  0.41800000000E+01 0. -1.
        -11    1    4    4    0    0  0.45884270578E+02  0.46340841860E+02 -0.23968345303E+03  0.24839685499E+03  0.00000000000E+00 0.  1.
         11    1    4    4    0    0  0.38002304717E+02 -0.11366448414E+02 -0.28276473368E+02  0.48712732006E+02  0.00000000000E+00 0. -1.
</event>
<event>
 8    1  0.3654190E-009  0.8502606E+02  0.7561462E-02  0.1315364E+00
          1   -1    0    0  501    0  0.00000000000E+00  0.00000000000E+00  0.72970893528E+02  0.72970893528E+02  0.00000000000E+00 0. -1.
         -1   -1    0    0    0  501 -0.00000000000E+00 -0.00000000000E+00 -0.22409019178E+03  0.22409019178E+03  0.00000000000E+00 0.  1.
         25    2    1    2    0    0 -0.42012478099E+02 -0.27425624318E+02 -0.32342267972E+02  0.13860522959E+03  0.12509266240E+03 0.  0.
         23    2    1    2    0    0  0.42012478099E+02  0.27425624318E+02 -0.11877703028E+03  0.15845585572E+03  0.92103540130E+02 0.  0.
          5    1    3    3  502    0 -0.50019093511E+02 -0.52525403694E+02  0.23797543949E+02  0.76450135689E+02  0.41800000000E+01 0.  1.
         -5    1    3    3    0  502  0.80066154121E+01  0.25099779376E+02 -0.56139811922E+02  0.62155093900E+02  0.41800000000E+01 0.  1.
        -11    1    4    4    0    0  0.24750791254E+02 -0.12132537390E+02 -0.11128769061E+03  0.11465055697E+03  0.00000000000E+00 0.  1.
         11    1    4    4    0    0  0.17261686845E+02  0.39558161708E+02 -0.74893396741E+01  0.43805298757E+02  0.00000000000E+00 0. -1.
</event>
<event>
 8    1  0.3654190E-009  0.1352433E+03  0.7561462E-02  0.1219877E+00
         -2   -1    0    0    0  501 -0.00000000000E+00  0.00000000000E+00  0.85412937398E+03  0.85412937398E+03  0.00000000000E+00 0.  1.
          2   -1    0    0  501    0  0.00000000000E+00 -0.00000000000E+00 -0.31225087799E+02  0.31225087799E+02  0.00000000000E+00 0. -1.
         25    2    1    2    0    0 -0.66517509935E+02 -0.72766786280E+02  0.63222522484E+03  0.65197843579E+03  0.12509021344E+03 0.  0.
         23    2    1    2    0    0  0.66517509935E+02  0.72766786280E+02  0.19067906134E+03  0.23337602599E+03  0.91576638719E+02 0.  0.
          5    1    3    3  502    0 -0.94889425647E+02 -0.45348138847E+02  0.31133922783E+03  0.32864881558E+03  0.41800000000E+01 0. -1.
         -5    1    3    3    0  502  0.28371915712E+02 -0.27418647434E+02  0.32088599701E+03  0.32332962021E+03  0.41800000000E+01 0. -1.
        -11    1    4    4    0    0  0.46935128592E+02  0.88673915019E+02  0.17980680230E+03  0.20590399621E+03  0.00000000000E+00 0.  1.
         11    1    4    4    0    0  0.19582381343E+02 -0.15907128738E+02  0.10872259044E+02  0.27472029785E+02  0.00000000000E+00 0. -1.
</event>
<event>
 8    1  0.3654190E-009  0.8118300E+02  0.7561462E-02  0.1325727E+00
         -2   -1    0    0    0  501 -0.00000000000E+00  0.00000000000E+00  0.19491303922E+02  0.19491303922E+02  0.00000000000E+00 0.  1.
          2   -1    0    0  501    0  0.00000000000E+00 -0.00000000000E+00 -0.81640973988E+03  0.81640973988E+03  0.00000000000E+00 0. -1.
         25    2    1    2    0    0  0.15172563546E+02  0.59445480956E+02 -0.37601552041E+03  0.40099711582E+03  0.12508814258E+03 0.  0.
         23    2    1    2    0    0 -0.15172563546E+02 -0.59445480956E+02 -0.42090291554E+03  0.43490392798E+03  0.90654235247E+02 0.  0.
          5    1    3    3  502    0  0.13223554115E+02  0.35079579328E+02 -0.37423872102E+03  0.37613499170E+03  0.41800000000E+01 0. -1.
         -5    1    3    3    0  502  0.19490094302E+01  0.24365901628E+02 -0.17767993942E+01  0.24862124124E+02  0.41800000000E+01 0. -1.
        -11    1    4    4    0    0  0.30710140742E+02 -0.97789963754E+01 -0.64052761502E+02  0.71704238163E+02  0.00000000000E+00 0.  1.
         11    1    4    4    0    0 -0.45882704288E+02 -0.49666484580E+02 -0.35685015404E+03  0.36319968981E+03  0.00000000000E+00 0. -1.
</event>
<event>
 8    1  0.3654190E-009  0.9010371E+02  0.7561462E-02  0.1302601E+00
          1   -1    0    0  501    0  0.00000000000E+00  0.00000000000E+00  0.28943146233E+03  0.28943146233E+03  0.00000000000E+00 0. -1.
         -1   -1    0    0    0  501 -0.00000000000E+00 -0.00000000000E+00 -0.85761807661E+02  0.85761807661E+02  0.00000000000E+00 0.  1.
         25    2    1    2    0    0  0.48682598838E+02 -0.15853451930E+02  0.23057776439E+03  0.26727322350E+03  0.12509014031E+03 0.  0.
         23    2    1    2    0    0 -0.48682598838E+02  0.15853451930E+02 -0.26908109721E+02  0.10792004649E+03  0.91111814258E+02 0.  0.
          5    1    3    3  502    0  0.61424706739E+02  0.15597545282E+02  0.43223167055E+02  0.76824427020E+02  0.41800000000E+01 0.  1.
         -5    1    3    3    0  502 -0.12742107900E+02 -0.31450997212E+02  0.18735459733E+03  0.19044879648E+03  0.41800000000E+01 0.  1.
        -11    1    4    4    0    0 -0.12694592589E+02 -0.25013787965E+02 -0.42818940932E+02  0.51188904773E+02  0.00000000000E+00 0.  1.
         11    1    4    4    0    0 -0.35988006249E+02  0.40867239895E+02  0.15910831210E+02  0.56731141714E+02  0.00000000000E+00 0. -1.
</event>
<event>
 8    1  0.3654190E-009  0.8176966E+02  0.7561462E-02  0.1324103E+00
         -1   -1    0    0    0  501 -0.00000000000E+00  0.00000000000E+00  0.36474603026E+03  0.36474603026E+03  0.00000000000E+00 0.  1.
          1   -1    0    0  501    0  0.00000000000E+00 -0.00000000000E+00 -0.33614513750E+02  0.33614513750E+02  0.00000000000E+00 0. -1.
         25    2    1    2    0    0 -0.11644827966E+02 -0.64424336700E+01  0.16253326182E+03  0.20553243512E+03  0.12509761676E+03 0.  0.
         23    2    1    2    0    0  0.11644827966E+02  0.64424336700E+01  0.16859825469E+03  0.19282810889E+03  0.92629375060E+02 0.  0.
          5    1    3    3  502    0 -0.38521037271E+02 -0.37280401669E+02  0.20298803913E+02  0.57473580899E+02  0.41800000000E+01 0. -1.
         -5    1    3    3    0  502  0.26876209305E+02  0.30837967999E+02  0.14223445790E+03  0.14805885422E+03  0.41800000000E+01 0. -1.
        -11    1    4    4    0    0  0.67445730544E+01 -0.30575079267E+02  0.14569915930E+03  0.14902539970E+03  0.00000000000E+00 0.  1.
         11    1    4    4    0    0  0.49002549112E+01  0.37017512937E+02  0.22899095399E+02  0.43802709190E+02  0.00000000000E+00 0. -1.
</event>
<event>
 8    1  0.3654190E-009  0.9406100E+02  0.7561462E-02  0.1293305E+00
          2   -1    0    0  501    0  0.00000000000E+00  0.00000000000E+00  0.22651544184E+03  0.22651544184E+03  0.00000000000E+00 0. -1.
         -2   -1    0    0    0  501 -0.00000000000E+00 -0.00000000000E+00 -0.61553839488E+02  0.61553839488E+02  0.00000000000E+00 0.  1.
         25    2    1    2    0    0 -0.35326393055E+02 -0.80832806407E+01  0.12747445754E+03  0.18223904967E+03  0.12509212776E+03 0.  0.
         23    2    1    2    0    0  0.35326393055E+02  0.80832806407E+01  0.37487144805E+02  0.10583023165E+03  0.92094833914E+02 0.  0.
          5    1    3    3  502    0 -0.31152888738E+02  0.54866005571E+02  0.85528539915E+02  0.10636439528E+03  0.41800000000E+01 0.  1.
         -5    1    3    3    0  502 -0.41735043171E+01 -0.62949286212E+02  0.41945917629E+02  0.75874654388E+02  0.41800000000E+01 0.  1.
        -11    1    4    4    0    0  0.86847116200E+01 -0.20697457450E+02 -0.24025306769E+02  0.32878934382E+02  0.00000000000E+00 0.  1.
         11    1    4    4    0    0  0.26641681435E+02  0.28780738090E+02  0.61512451574E+02  0.72951297270E+02  0.00000000000E+00 0. -1.
</event>
<event>
 8    1  0.3654190E-009  0.9629787E+02  0.7561462E-02  0.1288279E+00
          2   -1    0    0  501    0  0.00000000000E+00  0.00000000000E+00  0.44895737661E+02  0.44895737661E+02  0.00000000000E+00 0. -1.
         -2   -1    0    0    0  501 -0.00000000000E+00 -0.00000000000E+00 -0.30967836157E+03  0.30967836157E+03  0.00000000000E+00 0.  1.
         25    2    1    2    0    0 -0.85513442556E+01  0.14153940027E+02 -0.85327955107E+02  0.15232266904E+03  0.12509147083E+03 0.  0.
         23    2    1    2    0    0  0.85513442556E+01 -0.14153940027E+02 -0.17945466880E+03  0.20225143019E+03  0.91805246865E+02 0.  0.
          5    1    3    3  502    0 -0.49562949786E+02  0.28635330418E+02 -0.91687106292E+02  0.10816869233E+03  0.41800000000E+01 0. -1.
         -5    1    3    3    0  502  0.41011605530E+02 -0.14481390390E+02  0.63591511854E+01  0.44153976713E+02  0.41800000000E+01 0. -1.
        -11    1    4    4    0    0 -0.45269306091E+01  0.37730899030E+02 -0.94447818147E+02  0.10180620902E+03  0.00000000000E+00 0.  1.
         11    1    4    4    0    0  0.13078274865E+02 -0.51884839057E+02 -0.85006850651E+02  0.10044522117E+03  0.00000000000E+00 0. -1.
</event>
<event>
 8    1  0.3654190E-009  0.1367607E+03  0.7561462E-02  0.1217755E+00
         -3   -1    0    0    0  501 -0.00000000000E+00  0.00000000000E+00  0.33778462679E+02  0.33778462679E+02  0.00000000000E+00 0.  1.
          3   -1    0    0  501    0  0.00000000000E+00 -0.00000000000E+00 -0.64517877948E+03  0.64517877948E+03  0.00000000000E+00 0. -1.
         25    2    1    2    0    0 -0.57818085970E+02  0.79139237417E+02 -0.28244413187E+03  0.32408253742E+03  0.12509537749E+03 0.  0.
         23    2    1    2    0    0  0.57818085970E+02 -0.79139237417E+02 -0.32895618493E+03  0.35487470473E+03  0.90099580988E+02 0.  0.
          5    1    3    3  502    0 -0.77955459190E+02  0.95330379508E+02 -0.26604801640E+03  0.29319610213E+03  0.41800000000E+01 0.  1.
         -5    1    3    3    0  502  0.20137373220E+02 -0.16191142091E+02 -0.16396115470E+02  0.30886435290E+02  0.41800000000E+01 0.  1.
        -11    1    4    4    0    0  0.75685298867E+01 -0.73131295451E+02 -0.12769298181E+03  0.14734641707E+03  0.00000000000E+00 0.  1.
         11    1    4    4    0    0  0.50249556083E+02 -0.60079419662E+01 -0.20126320311E+03  0.20752828767E+03  0.00000000000E+00 0. -1.
</event>
<event>
 8    1  0.3654190E-009  0.1054200E+03  0.7561462E-02  0.1269294E+00
          4   -1    0    0  501    0  0.00000000000E+00  0.00000000000E+00  0.19035779384E+03  0.19035779384E+03  0.00000000000E+00 0. -1.
         -4   -1    0    0    0  501 -0.00000000000E+00 -0.00000000000E+00 -0.76847796762E+02  0.76847796762E+02  0.00000000000E+00 0.  1.
         25    2    1    2    0    0  0.84464587899E+01  0.54671289587E+02  0.42623065847E+02  0.14327987642E+03  0.12510837171E+03 0.  0.
         23    2    1    2    0    0 -0.84464587899E+01 -0.54671289587E+02  0.70886931230E+02  0.12392571418E+03  0.85277975149E+02 0.  0.
          5    1    3    3  502    0  0.53720488171E+02  0.70352276129E+02  0.29996329757E+02  0.93555255356E+02  0.41800000000E+01 0.  1.
         -5    1    3    3    0  502 -0.45274029381E+02 -0.15680986542E+02  0.12626736090E+02  0.49724621060E+02  0.41800000000E+01 0.  1.
        -11    1    4    4    0    0 -0.29178114548E+02 -0.34779277808E+02 -0.21419009887E+01  0.45448303305E+02  0.00000000000E+00 0.  1.
         11    1    4    4    0    0  0.20731655758E+02 -0.19892011779E+02  0.73028832218E+02  0.78477410879E+02  0.00000000000E+00 0. -1.
</event>
<event>
 8    1  0.3654190E-009  0.1170170E+03  0.7561462E-02  0.1248101E+00
         -3   -1    0    0    0  501 -0.00000000000E+00  0.00000000000E+00  0.31524773380E+03  0.31524773380E+03  0.00000000000E+00 0.  1.
          3   -1    0    0  501    0  0.00000000000E+00 -0.00000000000E+00 -0.47549087050E+02  0.47549087050E+02  0.00000000000E+00 0. -1.
         25    2    1    2    0    0  0.14210683966E+02  0.52659698548E+02  0.12042714658E+03  0.18199778120E+03  0.12508200245E+03 0.  0.
         23    2    1    2    0    0 -0.14210683966E+02 -0.52659698548E+02  0.14727150017E+03  0.18079903965E+03  0.89579074494E+02 0.  0.
          5    1    3    3  502    0 -0.49752716885E+02  0.41177357324E+02  0.32047103158E+02  0.72217704301E+02  0.41800000000E+01 0. -1.
         -5    1    3    3    0  502  0.63963400851E+02  0.11482341224E+02  0.88380043426E+02  0.10978007690E+03  0.41800000000E+01 0. -1.
        -11    1    4    4    0    0  0.76630313183E+01 -0.73550748460E+02  0.94763688527E+02  0.12020229329E+03  0.00000000000E+00 0. -1.
         11    1    4    4    0    0 -0.21873715284E+02  0.20891049912E+02  0.52507811641E+02  0.60596746366E+02  0.00000000000E+00 0.  1.
</event>
<event>
 8    1  0.3654190E-009  0.8443112E+02  0.7561462E-02  0.1316927E+00
          3   -1    0    0  501    0  0.00000000000E+00  0.00000000000E+00  0.18618183381E+03  0.18618183381E+03  0.00000000000E+00 0.  1.
         -3   -1    0    0    0  501 -0.00000000000E+00 -0.00000000000E+00 -0.95034132652E+02  0.95034132652E+02  0.00000000000E+00 0. -1.
         25    2    1    2    0    0 -0.28013707853E+02 -0.19604190539E+02  0.12566515505E+03  0.18057269865E+03  0.12508267742E+03 0.  0.
         23    2    1    2    0    0  0.28013707853E+02  0.19604190539E+02 -0.34517453886E+02  0.10064326782E+03  0.88139211593E+02 0.  0.
          5    1    3    3  502    0 -0.47808170131E+02  0.31481930482E+02  0.18776578761E+02  0.60388454096E+02  0.41800000000E+01 0. -1.
         -5    1    3    3    0  502  0.19794462278E+02 -0.51086121021E+02  0.10688857629E+03  0.12018424455E+03  0.41800000000E+01 0. -1.
        -11    1    4    4    0    0  0.22247340939E+02  0.34215816767E+02 -0.58888420408E+02  0.71648533510E+02  0.00000000000E+00 0. -1.
         11    1    4    4    0    0  0.57663669136E+01 -0.14611626228E+02  0.24370966523E+02  0.28994734309E+02  0.00000000000E+00 0.  1.
</event>
<event>
 8    1  0.3654190E-009  0.1062649E+03  0.7561462E-02  0.1267647E+00
         -1   -1    0    0    0  501 -0.00000000000E+00  0.00000000000E+00  0.67096083074E+02  0.67096083074E+02  0.00000000000E+00 0.  1.
          1   -1    0    0  501    0  0.00000000000E+00 -0.00000000000E+00 -0.23246899111E+03  0.23246899111E+03  0.00000000000E+00 0. -1.
         25    2    1    2    0    0  0.52742919466E+02 -0.86772823281E+01 -0.54255736003E+02  0.14645594521E+03  0.12509415740E+03 0.  0.
         23    2    1    2    0    0 -0.52742919466E+02  0.86772823281E+01 -0.11111717203E+03  0.15310912897E+03  0.90764908817E+02 0.  0.
          5    1    3    3  502    0 -0.22284217892E+02  0.16430401832E+02  0.22670137764E+02  0.36027101156E+02  0.41800000000E+01 0.  1.
         -5    1    3    3    0  502  0.75027137358E+02 -0.25107684160E+02 -0.76925873767E+02  0.11042884405E+03  0.41800000000E+01 0.  1.
        -11    1    4    4    0    0  0.81136091369E+01 -0.31402202709E+02 -0.35985591489E+02  0.48444729156E+02  0.00000000000E+00 0. -1.
         11    1    4    4    0    0 -0.60856528603E+02  0.40079485037E+02 -0.75131580539E+02  0.10466439982E+03  0.00000000000E+00 0.  1.
</event>
<event>
 8    1  0.3654190E-009  0.2191764E+03  0.7561462E-02  0.1134499E+00
         -1   -1    0    0    0  501 -0.00000000000E+00  0.00000000000E+00  0.10417806183E+03  0.10417806183E+03  0.00000000000E+00 0.  1.
          1   -1    0    0  501    0  0.00000000000E+00 -0.00000000000E+00 -0.63829079027E+03  0.63829079027E+03  0.00000000000E+00 0. -1.
         25    2    1    2    0    0  0.19237356022E+03 -0.19594596993E+02 -0.85722410801E+02  0.24573873109E+03  0.12509059654E+03 0.  0.
         23    2    1    2    0    0 -0.19237356022E+03  0.19594596993E+02 -0.44839031764E+03  0.49673012101E+03  0.91079093457E+02 0.  0.
          5    1    3    3  502    0  0.29995843433E+00 -0.37011258122E+02 -0.10667558336E+02  0.38745224270E+02  0.41800000000E+01 0. -1.
         -5    1    3    3    0  502  0.19207360178E+03  0.17416661129E+02 -0.75054852465E+02  0.20699350682E+03  0.41800000000E+01 0. -1.
        -11    1    4    4    0    0 -0.10870258261E+03 -0.27576983441E+02 -0.29669284982E+03  0.31718037237E+03  0.00000000000E+00 0.  1.
         11    1    4    4    0    0 -0.83670977609E+02  0.47171580434E+02 -0.15169746781E+03  0.17954974864E+03  0.00000000000E+00 0. -1.
</event>
<event>
 8    1  0.3654190E-009  0.2261829E+03  0.7561462E-02  0.1129356E+00
         -1   -1    0    0    0  501 -0.00000000000E+00  0.00000000000E+00  0.15125810204E+03  0.15125810204E+03  0.00000000000E+00 0.  1.
          1   -1    0    0  501    0  0.00000000000E+00 -0.00000000000E+00 -0.35925855254E+03  0.35925855254E+03  0.00000000000E+00 0. -1.
         25    2    1    2    0    0  0.60117052940E+02  0.19218019209E+03 -0.15491119342E+03  0.28318581902E+03  0.12509773762E+03 0.  0.
         23    2    1    2    0    0 -0.60117052940E+02 -0.19218019209E+03 -0.53089257082E+02  0.22733083556E+03  0.91178688807E+02 0.  0.
          5    1    3    3  502    0 -0.12156515196E+02  0.15279338656E+03 -0.11468381891E+03  0.19147702357E+03  0.41800000000E+01 0.  1.
         -5    1    3    3    0  502  0.72273568136E+02  0.39386805534E+02 -0.40227374513E+02  0.91708795442E+02  0.41800000000E+01 0.  1.
        -11    1    4    4    0    0 -0.33225670813E+02 -0.13399881923E+02  0.76032592229E+01  0.36623920972E+02  0.00000000000E+00 0.  1.
         11    1    4    4    0    0 -0.26891382127E+02 -0.17878031017E+03 -0.60692516305E+02  0.19070691459E+03  0.00000000000E+00 0. -1.
</event>
<event>
 8    1  0.3654190E-009  0.1254393E+03  0.7561462E-02  0.1234384E+00
         -1   -1    0    0    0  501 -0.00000000000E+00  0.00000000000E+00  0.10929763972E+03  0.10929763972E+03  0.00000000000E+00 0.  1.
          1   -1    0    0  501    0  0.00000000000E+00 -0.00000000000E+00 -0.16137835487E+03  0.16137835487E+03  0.00000000000E+00 0. -1.
         25    2    1    2    0    0  0.68657539010E+02  0.88711048056E+00  0.60966173543E+01  0.14282602866E+03  0.12508981210E+03 0.  0.
         23    2    1    2    0    0 -0.68657539010E+02 -0.88711048056E+00 -0.58177332496E+02  0.12784996594E+03  0.90809510215E+02 0.  0.
          5    1    3    3  502    0  0.82405509451E+02 -0.41443572815E+02  0.22793463829E+02  0.95106530317E+02  0.41800000000E+01 0.  1.
         -5    1    3    3    0  502 -0.13747970442E+02  0.42330683295E+02 -0.16696846474E+02  0.47719498339E+02  0.41800000000E+01 0.  1.
        -11    1    4    4    0    0 -0.13250907205E+02 -0.42519149327E+02 -0.22131800689E+02  0.49732094295E+02  0.00000000000E+00 0. -1.
         11    1    4    4    0    0 -0.55406631805E+02  0.41632038846E+02 -0.36045531806E+02  0.78117871640E+02  0.00000000000E+00 0.  1.
</event>
<event>
 8    1  0.3654190E-009  0.1603151E+03  0.7561462E-02  0.1188341E+00
         -2   -1    0    0    0  501 -0.00000000000E+00  0.00000000000E+00  0.22935487514E+02  0.22935487514E+02  0.00000000000E+00 0.  1.
          2   -1    0    0  501    0  0.00000000000E+00 -0.00000000000E+00 -0.20232836251E+04  0.20232836251E+04  0.00000000000E+00 0. -1.
         25    2    1    2    0    0  0.28624551921E+02 -0.12626112646E+03 -0.16699793186E+04  0.16796543876E+04  0.12508677002E+03 0.  0.
         23    2    1    2    0    0 -0.28624551921E+02  0.12626112646E+03 -0.33036881897E+03  0.36656472505E+03  0.92004913311E+02 0.  0.
          5    1    3    3  502    0  0.73288382949E+02 -0.10265744310E+03 -0.10376265075E+04  0.10452731600E+04  0.41800000000E+01 0.  1.
         -5    1    3    3    0  502 -0.44663831028E+02 -0.23603683366E+02 -0.63235281113E+03  0.63438122750E+03  0.41800000000E+01 0.  1.
        -11    1    4    4    0    0  0.15430511254E+02  0.73019948169E+02 -0.92460350216E+02  0.11882310327E+03  0.00000000000E+00 0.  1.
         11    1    4    4    0    0 -0.44055063175E+02  0.53241178296E+02 -0.23790846875E+03  0.24774162178E+03  0.00000000000E+00 0. -1.
</event>
<event>
 8    1  0.3654190E-009  0.2654789E+03  0.7561462E-02  0.1103895E+00
          3   -1    0    0  501    0  0.00000000000E+00  0.00000000000E+00  0.10916540544E+03  0.10916540544E+03  0.00000000000E+00 0. -1.
         -3   -1    0    0    0  501 -0.00000000000E+00 -0.00000000000E+00 -0.10044982818E+04  0.10044982818E+04  0.00000000000E+00 0.  1.
         25    2    1    2    0    0  0.69238542393E+02  0.23323735508E+03 -0.78577086024E+03  0.83203179475E+03  0.12508966030E+03 0.  0.
         23    2    1    2    0    0 -0.69238542393E+02 -0.23323735508E+03 -0.10956201607E+03  0.28163189245E+03  0.90105759656E+02 0.  0.
          5    1    3    3  502    0 -0.18926608681E+02  0.15223882438E+03 -0.46071414505E+03  0.48560258649E+03  0.41800000000E+01 0. -1.
         -5    1    3    3    0  502  0.88165151074E+02  0.80998530694E+02 -0.32505671519E+03  0.34642920825E+03  0.41800000000E+01 0. -1.
        -11    1    4    4    0    0 -0.30407273482E+01 -0.15574751011E+03 -0.82066597783E+02  0.17607231299E+03  0.00000000000E+00 0. -1.
         11    1    4    4    0    0 -0.66197815045E+02 -0.77489844965E+02 -0.27495418283E+02  0.10555957946E+03  0.00000000000E+00 0.  1.
</event>
<event>
 8    1  0.3654190E-009  0.9918626E+02  0.7561462E-02  0.1282016E+00
          4   -1    0    0  501    0  0.00000000000E+00  0.00000000000E+00  0.10086051928E+03  0.10086051928E+03  0.00000000000E+00 0. -1.
         -4   -1    0    0    0  501 -0.00000000000E+00 -0.00000000000E+00 -0.18873460532E+03  0.18873460532E+03  0.00000000000E+00 0.  1.
         25    2    1    2    0    0 -0.27938546751E+02 -0.57588598412E+02 -0.10761889356E+03  0.17699165871E+03  0.12508881620E+03 0.  0.
         23    2    1    2    0    0  0.27938546751E+02  0.57588598412E+02  0.19744807511E+02  0.11260346589E+03  0.90513391527E+02 0.  0.
          5    1    3    3  502    0 -0.66951806084E+02 -0.89124728782E+01 -0.88905429731E+02  0.11173014072E+03  0.41800000000E+01 0. -1.
         -5    1    3    3    0  502  0.39013259333E+02 -0.48676125534E+02 -0.18713463825E+02  0.65261517981E+02  0.41800000000E+01 0. -1.
        -11    1    4    4    0    0  0.17609241769E+02  0.11696791938E+02 -0.34712283557E+02  0.40642871048E+02  0.00000000000E+00 0.  1.
         11    1    4    4    0    0  0.10329304982E+02  0.45891806475E+02  0.54457091067E+02  0.71960594845E+02  0.00000000000E+00 0. -1.
</event>
<event>
 8    1  0.3654190E-009  0.1747559E+03  0.7561462E-02  0.1172977E+00
          2   -1    0    0  501    0  0.00000000000E+00  0.00000000000E+00  0.92821208218E+02  0.92821208218E+02  0.00000000000E+00 0.  1.
         -2   -1    0    0    0  501 -0.00000000000E+00 -0.00000000000E+00 -0.35212866415E+03  0.35212866415E+03  0.00000000000E+00 0. -1.
         25    2    1    2    0    0 -0.47976899265E+02 -0.13446339464E+03 -0.12034980660E+03  0.22475284677E+03  0.12509028268E+03 0.  0.
         23    2    1    2    0    0  0.47976899265E+02  0.13446339464E+03 -0.13895764933E+03  0.22019702560E+03  0.93783337617E+02 0.  0.
          5    1    3    3  502    0  0.14553408720E+02 -0.11392051117E+03 -0.42037513122E+02  0.12236956108E+03  0.41800000000E+01 0. -1.
         -5    1    3    3    0  502 -0.62530307985E+02 -0.20542883473E+02 -0.78312293477E+02  0.10238328569E+03  0.41800000000E+01 0. -1.
        -11    1    4    4    0    0 -0.23962902326E+02  0.62266037976E+02 -0.72483338745E+02  0.98514539885E+02  0.00000000000E+00 0. -1.
         11    1    4    4    0    0  0.71939801590E+02  0.72197356662E+02 -0.66474310585E+02  0.12168248571E+03  0.00000000000E+00 0.  1.
</event>
<event>
 8    1  0.3654190E-009  0.1844261E+03  0.7561462E-02  0.1163587E+00
          1   -1    0    0  501    0  0.00000000000E+00  0.00000000000E+00  0.12034676515E+04  0.12034676515E+04  0.00000000000E+00 0. -1.
         -1   -1    0    0    0  501 -0.00000000000E+00 -0.00000000000E+00 -0.36440695882E+02  0.36440695882E+02  0.00000000000E+00 0.  1.
         25    2    1    2    0    0 -0.10860709904E+02 -0.17833006937E+03  0.61369101930E+03  0.65129198795E+03  0.12508004530E+03 0.  0.
         23    2    1    2    0    0  0.10860709904E+02  0.17833006937E+03  0.55333593634E+03  0.58861635946E+03  0.91482192358E+02 0.  0.
          5    1    3    3  502    0 -0.71885219873E+01 -0.72685428436E+02  0.85126758228E+02  0.11224474919E+03  0.41800000000E+01 0.  1.
         -5    1    3    3    0  502 -0.36721879163E+01 -0.10564464093E+03  0.52856426108E+03  0.53904723875E+03  0.41800000000E+01 0.  1.
        -11    1    4    4    0    0 -0.26221294691E+02  0.97622548784E+02  0.19752131200E+03  0.22188372410E+03  0.00000000000E+00 0.  1.
         11    1    4    4    0    0  0.37082004594E+02  0.80707520581E+02  0.35581462434E+03  0.36673263536E+03  0.00000000000E+00 0. -1.
</event>
<event>
 8    1  0.3654190E-009  0.1199776E+03  0.7561462E-02  0.1243134E+00
          2   -1    0    0  501    0  0.00000000000E+00  0.00000000000E+00  0.65469567783E+02  0.65469567783E+02  0.00000000000E+00 0.  1.
         -2   -1    0    0    0  501 -0.00000000000E+00 -0.00000000000E+00 -0.26646139835E+03  0.26646139835E+03  0.00000000000E+00 0. -1.
         25    2    1    2    0    0  0.15135313314E+02  0.58521758324E+02 -0.64034917427E+02  0.15297745030E+03  0.12509098986E+03 0.  0.
         23    2    1    2    0    0 -0.15135313314E+02 -0.58521758324E+02 -0.13695691314E+03  0.17895351583E+03  0.98047390920E+02 0.  0.
          5    1    3    3  502    0  0.60224602457E+02  0.65912212369E+01 -0.57729154709E+02  0.83788869439E+02  0.41800000000E+01 0. -1.
         -5    1    3    3    0  502 -0.45089289144E+02  0.51930537087E+02 -0.63057627181E+01  0.69188580858E+02  0.41800000000E+01 0. -1.
        -11    1    4    4    0    0 -0.37647157520E+02  0.93732339475E+01 -0.25189592639E+02  0.46256692071E+02  0.00000000000E+00 0.  1.
         11    1    4    4    0    0  0.22511844207E+02 -0.67894992271E+02 -0.11176732050E+03  0.13269682376E+03  0.00000000000E+00 0. -1.
</event>
<event>
 8    1  0.3654190E-009  0.5683678E+02  0.7561462E-02  0.1411607E+00
          1   -1    0    0  501    0  0.00000000000E+00  0.00000000000E+00  0.44443539226E+02  0.44443539226E+02  0.00000000000E+00 0. -1.
         -1   -1    0    0    0  501 -0.00000000000E+00 -0.00000000000E+00 -0.28213914928E+03  0.28213914928E+03  0.00000000000E+00 0.  1.
         25    2    1    2    0    0  0.41445705426E+01 -0.21894835575E+02 -0.10965205417E+03  0.16783101205E+03  0.12508842606E+03 0.  0.
         23    2    1    2    0    0 -0.41445705426E+01  0.21894835575E+02 -0.12804355589E+03  0.15875167645E+03  0.91161292671E+02 0.  0.
          5    1    3    3  502    0  0.20147488722E+02 -0.35030495328E+02 -0.13138647453E+03  0.13752430692E+03  0.41800000000E+01 0.  1.
         -5    1    3    3    0  502 -0.16002918179E+02  0.13135659753E+02  0.21734420366E+02  0.30306705133E+02  0.41800000000E+01 0.  1.
        -11    1    4    4    0    0 -0.24636885791E+02  0.44970399451E+01 -0.12943360059E+03  0.13183420069E+03  0.00000000000E+00 0.  1.
         11    1    4    4    0    0  0.20492315248E+02  0.17397795630E+02  0.13900447020E+01  0.26917475760E+02  0.00000000000E+00 0. -1.
</event>
<event>
 8    1  0.3654190E-009  0.2505304E+03  0.7561462E-02  0.1112970E+00
         -2   -1    0    0    0  501 -0.00000000000E+00  0.00000000000E+00  0.12166979093E+03  0.12166979093E+03  0.00000000000E+00 0.  1.
          2   -1    0    0  501    0  0.00000000000E+00 -0.00000000000E+00 -0.54337443214E+03  0.54337443214E+03  0.00000000000E+00 0. -1.
         25    2    1    2    0    0  0.41286002955E+02 -0.22897608325E+03 -0.22038342069E+03  0.34402135359E+03  0.12508900381E+03 0.  0.
         23    2    1    2    0    0 -0.41286002955E+02  0.22897608325E+03 -0.20132122052E+03  0.32102286948E+03  0.91601682063E+02 0.  0.
          5    1    3    3  502    0 -0.40745663439E+02 -0.11803168999E+03 -0.12100343034E+03  0.17392812161E+03  0.41800000000E+01 0. -1.
         -5    1    3    3    0  502  0.82031666394E+02 -0.11094439326E+03 -0.99379990343E+02  0.17009323199E+03  0.41800000000E+01 0. -1.
        -11    1    4    4    0    0 -0.51896557640E+02  0.15765184866E+03 -0.91163400192E+02  0.18936241342E+03  0.00000000000E+00 0.  1.
         11    1    4    4    0    0  0.10610554686E+02  0.71324234584E+02 -0.11015782033E+03  0.13166045606E+03  0.00000000000E+00 0. -1.
</event>
<event>
 8    1  0.3654190E-009  0.1017878E+03  0.7561462E-02  0.1276581E+00
         -3   -1    0    0    0  501 -0.00000000000E+00  0.00000000000E+00  0.13431977665E+03  0.13431977665E+03  0.00000000000E+00 0.  1.
          3   -1    0    0  501    0  0.00000000000E+00 -0.00000000000E+00 -0.13837375921E+03  0.13837375921E+03  0.00000000000E+00 0. -1.
         25    2    1    2    0    0  0.67623065218E+02  0.45903281747E+02  0.12561968623E+01  0.14942760978E+03  0.12508813816E+03 0.  0.
         23    2    1    2    0    0 -0.67623065218E+02 -0.45903281747E+02 -0.53101794299E+01  0.12326592608E+03  0.92121117565E+02 0.  0.
          5    1    3    3  502    0  0.20621524829E+02  0.35062823666E+02  0.60433442017E+02  0.72967953265E+02  0.41800000000E+01 0. -1.
         -5    1    3    3    0  502  0.47001540389E+02  0.10840458081E+02 -0.59177245155E+02  0.76459656516E+02  0.41800000000E+01 0. -1.
        -11    1    4    4    0    0 -0.73560035757E+02 -0.58669724318E+01  0.18805360268E+02  0.76152096497E+02  0.00000000000E+00 0. -1.
         11    1    4    4    0    0  0.59369705387E+01 -0.40036309315E+02 -0.24115539698E+02  0.47113829580E+02  0.00000000000E+00 0.  1.
</event>
<event>
 8    1  0.3654190E-009  0.1292176E+03  0.7561462E-02  0.1228621E+00
         -2   -1    0    0    0  501 -0.00000000000E+00  0.00000000000E+00  0.45856236986E+02  0.45856236986E+02  0.00000000000E+00 0.  1.
          2   -1    0    0  501    0  0.00000000000E+00 -0.00000000000E+00 -0.50267322412E+03  0.50267322412E+03  0.00000000000E+00 0. -1.
         25    2    1    2    0    0 -0.46222861208E+02 -0.86706617265E+02 -0.31836388160E+03  0.35589528801E+03  0.12510517395E+03 0.  0.
         23    2    1    2    0    0  0.46222861208E+02  0.86706617265E+02 -0.13845310554E+03  0.19263417309E+03  0.91016876648E+02 0.  0.
          5    1    3    3  502    0 -0.80032845017E+02 -0.18327691598E+02 -0.17867126019E+03  0.19667753349E+03  0.41800000000E+01 0.  1.
         -5    1    3    3    0  502  0.33809983809E+02 -0.68378925667E+02 -0.13969262140E+03  0.15921775452E+03  0.41800000000E+01 0.  1.
        -11    1    4    4    0    0  0.19862325383E+02  0.20390090390E+02  0.81290803243E+01  0.29603204264E+02  0.00000000000E+00 0.  1.
         11    1    4    4    0    0  0.26360535825E+02  0.66316526875E+02 -0.14658218586E+03  0.16303096883E+03  0.00000000000E+00 0. -1.
</event>
<event>
 8    1  0.3654190E-009  0.1046897E+03  0.7561462E-02  0.1270732E+00
          2   -1    0    0  501    0  0.00000000000E+00  0.00000000000E+00  0.43378728383E+03  0.43378728383E+03  0.00000000000E+00 0.  1.
         -2   -1    0    0    0  501 -0.00000000000E+00 -0.00000000000E+00 -0.30593418932E+02  0.30593418932E+02  0.00000000000E+00 0. -1.
         25    2    1    2    0    0 -0.14994456029E+02 -0.55882663040E+01  0.30135413301E+03  0.32667849631E+03  0.12509382094E+03 0.  0.
         23    2    1    2    0    0  0.14994456029E+02  0.55882663040E+01  0.10183973188E+03  0.13770220644E+03  0.91293506003E+02 0.  0.
          5    1    3    3  502    0  0.39435925441E+02 -0.41421057774E+02  0.17940170297E+03  0.18834367436E+03  0.41800000000E+01 0. -1.
         -5    1    3    3    0  502 -0.54430381470E+02  0.35832791470E+02  0.12195243005E+03  0.13833482196E+03  0.41800000000E+01 0. -1.
        -11    1    4    4    0    0 -0.22263157331E+02  0.33471118361E+02  0.71877486046E+02  0.82354944836E+02  0.00000000000E+00 0.  1.
         11    1    4    4    0    0  0.37257613360E+02 -0.27882852057E+02  0.29962245834E+02  0.55347261608E+02  0.00000000000E+00 0. -1.
</event>
<event>
 8    1  0.3654190E-009  0.9996653E+02  0.7561462E-02  0.1280366E+00
          2   -1    0    0  501    0  0.00000000000E+00  0.00000000000E+00  0.53306897539E+03  0.53306897539E+03  0.00000000000E+00 0. -1.
         -2   -1    0    0    0  501 -0.00000000000E+00 -0.00000000000E+00 -0.25702490835E+02  0.25702490835E+02  0.00000000000E+00 0.  1.
         25    2    1    2    0    0  0.75131404593E+01  0.41410966192E+02  0.26614233899E+03  0.29706944026E+03  0.12508873784E+03 0.  0.
         23    2    1    2    0    0 -0.75131404593E+01 -0.41410966192E+02  0.24122414557E+03  0.26170202597E+03  0.92344716087E+02 0.  0.
          5    1    3    3  502    0  0.46248688933E+02  0.37158171874E+02  0.24583896132E+03  0.25293069855E+03  0.41800000000E+01 0. -1.
         -5    1    3    3    0  502 -0.38735548474E+02  0.42527943182E+01  0.20303377666E+02  0.44138741710E+02  0.41800000000E+01 0. -1.
        -11    1    4    4    0    0 -0.47912007850E+02 -0.37183356135E+02  0.15272964427E+03  0.16433048016E+03  0.00000000000E+00 0.  1.
         11    1    4    4    0    0  0.40398867391E+02 -0.42276100570E+01  0.88494501296E+02  0.97371545807E+02  0.00000000000E+00 0. -1.
</event>
<event>
 8    1  0.3654190E-009  0.6429861E+02  0.7561462E-02  0.1380629E+00
         -1   -1    0    0    0  501 -0.00000000000E+00  0.00000000000E+00  0.56768856687E+03  0.56768856687E+03  0.00000000000E+00 0.  1.
          1   -1    0    0  501    0  0.00000000000E+00 -0.00000000000E+00 -0.27852751146E+02  0.27852751146E+02  0.00000000000E+00 0. -1.
         25    2    1    2    0    0  0.24102640193E+02 -0.18297626271E+02  0.42870749606E+03  0.44760773739E+03  0.12508728552E+03 0.  0.
         23    2    1    2    0    0 -0.24102640193E+02  0.18297626271E+02  0.11112831966E+03  0.14793358062E+03  0.92839110591E+02 0.  0.
          5    1    3    3  502    0 -0.63133367671E+01  0.95634030538E+01  0.39213042237E+03  0.39232009565E+03  0.41800000000E+01 0. -1.
         -5    1    3    3    0  502  0.30415976960E+02 -0.27861029324E+02  0.36577073691E+02  0.55287641741E+02  0.41800000000E+01 0. -1.
        -11    1    4    4    0    0  0.17708492209E+02  0.26946163070E+02  0.98146484564E+02  0.10330739970E+03  0.00000000000E+00 0.  1.
         11    1    4    4    0    0 -0.41811132401E+02 -0.86485367996E+01  0.12981835091E+02  0.44626180923E+02  0.00000000000E+00 0. -1.
</event>
<event>
 8    1  0.3654190E-009  0.1113931E+03  0.7561462E-02  0.1258012E+00
         -2   -1    0    0    0  501 -0.00000000000E+00  0.00000000000E+00  0.38719139365E+02  0.38719139365E+02  0.00000000000E+00 0. -1.
          2   -1    0    0  501    0  0.00000000000E+00 -0.00000000000E+00 -0.32787661587E+03  0.32787661587E+03  0.00000000000E+00 0.  1.
         25    2    1    2    0    0  0.30211902318E+02  0.91574444630E+01 -0.15764102200E+03  0.20370360987E+03  0.12509137071E+03 0.  0.
         23    2    1    2    0    0 -0.30211902318E+02 -0.91574444630E+01 -0.13151645450E+03  0.16289214536E+03  0.90778055637E+02 0.  0.
          5    1    3    3  502    0 -0.36053104875E+02  0.40023351078E+02 -0.83853161839E+02  0.99752293973E+02  0.41800000000E+01 0. -1.
         -5    1    3    3    0  502  0.66265007192E+02 -0.30865906615E+02 -0.73787860161E+02  0.10395131590E+03  0.41800000000E+01 0. -1.
        -11    1    4    4    0    0 -0.63838486187E+01  0.40213027750E+02 -0.64960289398E+02  0.76666031087E+02  0.00000000000E+00 0.  1.
         11    1    4    4    0    0 -0.23828053699E+02 -0.49370472213E+02 -0.66556165104E+02  0.86226114275E+02  0.00000000000E+00 0. -1.
</event>
<event>
 8    1  0.3654190E-009  0.1397087E+03  0.7561462E-02  0.1213721E+00
         -1   -1    0    0    0  501 -0.00000000000E+00  0.00000000000E+00  0.11164563851E+03  0.11164563851E+03  0.00000000000E+00 0.  1.
          1   -1    0    0  501    0  0.00000000000E+00 -0.00000000000E+00 -0.24972646376E+03  0.24972646376E+03  0.00000000000E+00 0. -1.
         25    2    1    2    0    0  0.11024781015E+03 -0.29207249291E+02 -0.13209474605E+02  0.16979023870E+03  0.12508633771E+03 0.  0.
         23    2    1    2    0    0 -0.11024781015E+03  0.29207249291E+02 -0.12487135064E+03  0.19158186357E+03  0.90017293815E+02 0.  0.
          5    1    3    3  502    0  0.31325652254E+01 -0.30835340823E+02  0.39452909717E+02  0.50345165544E+02  0.41800000000E+01 0.  1.
         -5    1    3    3    0  502  0.10711524493E+03  0.16280915318E+01 -0.52662384323E+02  0.11944507315E+03  0.41800000000E+01 0.  1.
        -11    1    4    4    0    0 -0.97598607668E+01 -0.24942850641E+02 -0.44633950031E+02  0.52053723937E+02  0.00000000000E+00 0. -1.
         11    1    4    4    0    0 -0.10048794939E+03  0.54150099932E+02 -0.80237400604E+02  0.13952813964E+03  0.00000000000E+00 0.  1.
</event>
<event>
 8    1  0.3654190E-009  0.2354692E+03  0.7561462E-02  0.1122848E+00
          2   -1    0    0  501    0  0.00000000000E+00  0.00000000000E+00  0.17277026680E+04  0.17277026680E+04  0.00000000000E+00 0. -1.
         -2   -1    0    0    0  501 -0.00000000000E+00 -0.00000000000E+00 -0.38047776266E+02  0.38047776266E+02  0.00000000000E+00 0.  1.
         25    2    1    2    0    0 -0.47238228012E+02 -0.21964961288E+03  0.10772221728E+04  0.11074891801E+04  0.12508905525E+03 0.  0.
         23    2    1    2    0    0  0.47238228012E+02  0.21964961288E+03  0.61243271887E+03  0.65826126415E+03  0.88071869027E+02 0.  0.
          5    1    3    3  502    0 -0.30680570613E+02 -0.39362849654E+02  0.50058914413E+03  0.50308815825E+03  0.41800000000E+01 0. -1.
         -5    1    3    3    0  502 -0.16557657399E+02 -0.18028676322E+03  0.57663302872E+03  0.60440102185E+03  0.41800000000E+01 0. -1.
        -11    1    4    4    0    0  0.21689573996E+01  0.17917094147E+03  0.42326539518E+03  0.45963085776E+03  0.00000000000E+00 0. -1.
         11    1    4    4    0    0  0.45069270613E+02  0.40478671407E+02  0.18916732369E+03  0.19863040639E+03  0.00000000000E+00 0.  1.
</event>
<event>
 8    1  0.3654190E-009  0.1267552E+03  0.7561462E-02  0.1232351E+00
         -2   -1    0    0    0  501 -0.00000000000E+00  0.00000000000E+00  0.67513752869E+02  0.67513752869E+02  0.00000000000E+00 0.  1.
          2   -1    0    0  501    0  0.00000000000E+00 -0.00000000000E+00 -0.29669934397E+03  0.29669934397E+03  0.00000000000E+00 0. -1.
         25    2    1    2    0    0 -0.84911277873E+02  0.25440191329E+02 -0.14114871357E+03  0.20839122311E+03  0.12508722589E+03 0.  0.
         23    2    1    2    0    0  0.84911277873E+02 -0.25440191329E+02 -0.88036877530E+02  0.15582187373E+03  0.93128062809E+02 0.  0.
          5    1    3    3  502    0  0.18621050495E+02  0.31928617065E+02 -0.79183894368E+02  0.87485665320E+02  0.41800000000E+01 0.  1.
         -5    1    3    3    0  502 -0.10353232837E+03 -0.64884257362E+01 -0.61964819206E+02  0.12090555779E+03  0.41800000000E+01 0.  1.
        -11    1    4    4    0    0  0.82989784498E+02 -0.43932909448E+02 -0.36003632794E+02  0.10056672630E+03  0.00000000000E+00 0.  1.
         11    1    4    4    0    0  0.19214933749E+01  0.18492718118E+02 -0.52033244736E+02  0.55255147434E+02  0.00000000000E+00 0. -1.
</event>
<event>
 8    1  0.3654190E-009  0.1211837E+03  0.7561462E-02  0.1241157E+00
          2   -1    0    0  501    0  0.00000000000E+00  0.00000000000E+00  0.25523990167E+02  0.25523990167E+02  0.00000000000E+00 0. -1.
         -2   -1    0    0    0  501 -0.00000000000E+00 -0.00000000000E+00 -0.74472668253E+03  0.74472668253E+03  0.00000000000E+00 0.  1.
         25    2    1    2    0    0 -0.49184575306E+01 -0.55784155486E+02 -0.53595172949E+03  0.55319751216E+03  0.12508864011E+03 0.  0.
         23    2    1    2    0    0  0.49184575306E+01  0.55784155486E+02 -0.18325096287E+03  0.21705316054E+03  0.10195634301E+03 0.  0.
          5    1    3    3  502    0  0.32251928274E+02 -0.77068486413E+02 -0.24059291204E+03  0.25471976798E+03  0.41800000000E+01 0. -1.
         -5    1    3    3    0  502 -0.37170385804E+02  0.21284330927E+02 -0.29535881745E+03  0.29847774417E+03  0.41800000000E+01 0. -1.
        -11    1    4    4    0    0 -0.30008964150E+02 -0.17329725237E+02 -0.65740645919E+02  0.74314802240E+02  0.00000000000E+00 0. -1.
         11    1    4    4    0    0  0.34927421680E+02  0.73113880723E+02 -0.11751031695E+03  0.14273835830E+03  0.00000000000E+00 0.  1.
</event>
<event>
 8    1  0.3654190E-009  0.9167255E+02  0.7561462E-02  0.1298851E+00
         -2   -1    0    0    0  501 -0.00000000000E+00  0.00000000000E+00  0.49242173567E+02  0.49242173567E+02  0.00000000000E+00 0.  1.
          2   -1    0    0  501    0  0.00000000000E+00 -0.00000000000E+00 -0.36626765786E+03  0.36626765786E+03  0.00000000000E+00 0. -1.
         25    2    1    2    0    0  0.36681830830E+02  0.42781010012E+02 -0.86306318772E+02  0.16208892477E+03  0.12509303474E+03 0.  0.
         23    2    1    2    0    0 -0.36681830830E+02 -0.42781010012E+02 -0.23071916553E+03  0.25342090667E+03  0.88402777468E+02 0.  0.
          5    1    3    3  502    0 -0.22816589759E+02 -0.15868060731E+02  0.14067373998E+02  0.31428578249E+02  0.41800000000E+01 0.  1.
         -5    1    3    3    0  502  0.59498420589E+02  0.58649070742E+02 -0.10037369277E+03  0.13066034652E+03  0.41800000000E+01 0.  1.
        -11    1    4    4    0    0 -0.35694153793E+02 -0.77242728917E+01 -0.23891733994E+02  0.43641172761E+02  0.00000000000E+00 0.  1.
         11    1    4    4    0    0 -0.98767703679E+00 -0.35056737120E+02 -0.20682743153E+03  0.20977973391E+03  0.00000000000E+00 0. -1.
</event>
<event>
 8    1  0.3654190E-009  0.1149885E+03  0.7561462E-02  0.1251601E+00
         -1   -1    0    0    0  501 -0.00000000000E+00  0.00000000000E+00  0.43527515119E+02  0.43527515119E+02  0.00000000000E+00 0.  1.
          1   -1    0    0  501    0  0.00000000000E+00 -0.00000000000E+00 -0.60822261539E+03  0.60822261539E+03  0.00000000000E+00 0. -1.
         25    2    1    2    0    0 -0.13312743621E+02 -0.91147328966E+02 -0.14721254248E+03  0.21401792188E+03  0.12508826284E+03 0.  0.
         23    2    1    2    0    0  0.13312743621E+02  0.91147328966E+02 -0.41748255779E+03  0.43773220863E+03  0.93982635074E+02 0.  0.
          5    1    3    3  502    0  0.14549446285E+02 -0.26369479532E+02  0.17298507172E+02  0.34982089537E+02  0.41800000000E+01 0. -1.
         -5    1    3    3    0  502 -0.27862189906E+02 -0.64777849435E+02 -0.16451104965E+03  0.17903583234E+03  0.41800000000E+01 0. -1.
        -11    1    4    4    0    0  0.51113723522E+02  0.66217274944E+02 -0.22644632263E+03  0.24140272837E+03  0.00000000000E+00 0.  1.
         11    1    4    4    0    0 -0.37800979901E+02  0.24930054023E+02 -0.19103623516E+03  0.19632948026E+03  0.00000000000E+00 0. -1.
</event>
<event>
 8    1  0.3654190E-009  0.1108936E+03  0.7561462E-02  0.1258924E+00
          1   -1    0    0  501    0  0.00000000000E+00  0.00000000000E+00  0.10124935602E+03  0.10124935602E+03  0.00000000000E+00 0. -1.
         -1   -1    0    0    0  501 -0.00000000000E+00 -0.00000000000E+00 -0.19158705191E+03  0.19158705191E+03  0.00000000000E+00 0.  1.
         25    2    1    2    0    0  0.79516264091E+02 -0.33397063518E+01 -0.83871178959E+02  0.17034160259E+03  0.12509155454E+03 0.  0.
         23    2    1    2    0    0 -0.79516264091E+02  0.33397063518E+01 -0.64665169252E+01  0.12249480535E+03  0.92893334540E+02 0.  0.
          5    1    3    3  502    0 -0.23475839868E+02 -0.16848830501E+02  0.94017425944E+01  0.30673495245E+02  0.41800000000E+01 0.  1.
         -5    1    3    3    0  502  0.10299210396E+03  0.13509124149E+02 -0.93272921553E+02  0.13966810734E+03  0.41800000000E+01 0.  1.
        -11    1    4    4    0    0 -0.58510200615E+02 -0.15376820100E+02 -0.44561048516E+02  0.75137056219E+02  0.00000000000E+00 0.  1.
         11    1    4    4    0    0 -0.21006063477E+02  0.18716526452E+02  0.38094531591E+02  0.47357749127E+02  0.00000000000E+00 0. -1.
</event>
<event>
 8    1  0.3654190E-009  0.7022422E+02  0.7561462E-02  0.1359332E+00
         -2   -1    0    0    0  501 -0.00000000000E+00  0.00000000000E+00  0.14408401663E+03  0.14408401663E+03  0.00000000000E+00 0.  1.
          2   -1    0    0  501    0  0.00000000000E+00 -0.00000000000E+00 -0.11585696903E+03  0.11585696903E+03  0.00000000000E+00 0. -1.
         25    2    1    2    0    0  0.31417989280E+02  0.29372183816E+02 -0.40124611369E+02  0.13822744165E+03  0.12508807279E+03 0.  0.
         23    2    1    2    0    0 -0.31417989280E+02 -0.29372183816E+02  0.68351658973E+02  0.12171354401E+03  0.91062738147E+02 0.  0.
          5    1    3    3  502    0  0.96086202296E+01  0.25671232565E+00 -0.81961654608E+02  0.82629151696E+02  0.41800000000E+01 0.  1.
         -5    1    3    3    0  502  0.21809369050E+02  0.29115471491E+02  0.41837043239E+02  0.55598289951E+02  0.41800000000E+01 0.  1.
        -11    1    4    4    0    0 -0.30488765848E+02 -0.57565415002E+02  0.67038272511E+02  0.93474444789E+02  0.00000000000E+00 0. -1.
         11    1    4    4    0    0 -0.92922343196E+00  0.28193231186E+02  0.13133864618E+01  0.28239099222E+02  0.00000000000E+00 0.  1.
</event>
<event>
 8    1  0.3654190E-009  0.1421234E+03  0.7561462E-02  0.1210500E+00
         -4   -1    0    0    0  501 -0.00000000000E+00  0.00000000000E+00  0.67890998945E+02  0.67890998945E+02  0.00000000000E+00 0.  1.
          4   -1    0    0  501    0  0.00000000000E+00 -0.00000000000E+00 -0.31402630544E+03  0.31402630544E+03  0.00000000000E+00 0. -1.
         25    2    1    2    0    0  0.94794554164E+02  0.67704161314E+01 -0.14328308882E+03  0.21262907970E+03  0.12509690628E+03 0.  0.
         23    2    1    2    0    0 -0.94794554164E+02 -0.67704161314E+01 -0.10285221768E+03  0.16928822468E+03  0.95121387192E+02 0.  0.
          5    1    3    3  502    0  0.10219238420E+03 -0.39236094950E+02 -0.10977118161E+03  0.15508042832E+03  0.41800000000E+01 0. -1.
         -5    1    3    3    0  502 -0.73978300375E+01  0.46006511082E+02 -0.33511907208E+02  0.57548651382E+02  0.41800000000E+01 0. -1.
        -11    1    4    4    0    0 -0.10198072298E+03  0.16728385609E+02 -0.10122773380E+03  0.14466153889E+03  0.00000000000E+00 0. -1.
         11    1    4    4    0    0  0.71861688112E+01 -0.23498801741E+02 -0.16244838817E+01  0.24626685796E+02  0.00000000000E+00 0.  1.
</event>
<event>
 8    1  0.3654190E-009  0.7955238E+02  0.7561462E-02  0.1330327E+00
          2   -1    0    0  501    0  0.00000000000E+00  0.00000000000E+00  0.21895330596E+03  0.21895330596E+03  0.00000000000E+00 0. -1.
         -2   -1    0    0    0  501 -0.00000000000E+00 -0.00000000000E+00 -0.66022280830E+02  0.66022280830E+02  0.00000000000E+00 0.  1.
         25    2    1    2    0    0  0.16302451228E+02  0.77920275397E+01  0.28885297337E+02  0.12964244979E+03  0.12508524604E+03 0.  0.
         23    2    1    2    0    0 -0.16302451228E+02 -0.77920275397E+01  0.12404572780E+03  0.15533313700E+03  0.91730884971E+02 0.  0.
          5    1    3    3  502    0  0.26010806594E+02 -0.53507318308E+02  0.31371694274E+02  0.67388803030E+02  0.41800000000E+01 0.  1.
         -5    1    3    3    0  502 -0.97083553663E+01  0.61299345848E+02 -0.24863969376E+01  0.62253646761E+02  0.41800000000E+01 0.  1.
        -11    1    4    4    0    0  0.10003868292E+02 -0.35408340271E+01 -0.12393480272E+02  0.16316042402E+02  0.00000000000E+00 0.  1.
         11    1    4    4    0    0 -0.26306319520E+02 -0.42511935126E+01  0.13643920807E+03  0.13901709460E+03  0.00000000000E+00 0. -1.
</event>
<event>
 8    1  0.3654190E-009  0.6606962E+02  0.7561462E-02  0.1373993E+00
          2   -1    0    0  501    0  0.00000000000E+00  0.00000000000E+00  0.20117170078E+03  0.20117170078E+03  0.00000000000E+00 0. -1.
         -2   -1    0    0    0  501 -0.00000000000E+00 -0.00000000000E+00 -0.86079490962E+02  0.86079490962E+02  0.00000000000E+00 0.  1.
         25    2    1    2    0    0 -0.89640525655E+01 -0.70477165001E+01  0.14611003156E+03  0.19268496420E+03  0.12509728038E+03 0.  0.
         23    2    1    2    0    0  0.89640525655E+01  0.70477165001E+01 -0.31017821744E+02  0.94566227541E+02  0.88603846301E+02 0.  0.
          5    1    3    3  502    0  0.38787658684E+02  0.39399608385E+01  0.73531015208E+00  0.39217583283E+02  0.41800000000E+01 0. -1.
         -5    1    3    3    0  502 -0.47751711249E+02 -0.10987677339E+02  0.14537472141E+03  0.15346738092E+03  0.41800000000E+01 0. -1.
        -11    1    4    4    0    0 -0.17097273090E+02  0.21241863953E+01 -0.55719626086E+02  0.58322428329E+02  0.00000000000E+00 0.  1.
         11    1    4    4    0    0  0.26061325656E+02  0.49235301047E+01  0.24701804342E+02  0.36243799213E+02  0.00000000000E+00 0. -1.
</event>
<event>
 8    1  0.3654190E-009  0.1984931E+03  0.7561462E-02  0.1151017E+00
         -2   -1    0    0    0  501 -0.00000000000E+00  0.00000000000E+00  0.56818877830E+02  0.56818877830E+02  0.00000000000E+00 0.  1.
          2   -1    0    0  501    0  0.00000000000E+00 -0.00000000000E+00 -0.76846994167E+03  0.76846994167E+03  0.00000000000E+00 0. -1.
         25    2    1    2    0    0  0.17361086798E+03 -0.30000590246E+01 -0.45389664469E+03  0.50181644234E+03  0.12509134226E+03 0.  0.
         23    2    1    2    0    0 -0.17361086798E+03  0.30000590246E+01 -0.25775441916E+03  0.32347237717E+03  0.89706768750E+02 0.  0.
          5    1    3    3  502    0  0.17002014010E+03 -0.32380782326E+02 -0.43000665401E+03  0.46354995200E+03  0.41800000000E+01 0. -1.
         -5    1    3    3    0  502  0.35907278775E+01  0.29380723301E+02 -0.23889990678E+02  0.38266490340E+02  0.41800000000E+01 0. -1.
        -11    1    4    4    0    0 -0.13413292964E+03  0.39886331701E+02 -0.16729057328E+03  0.21810249466E+03  0.00000000000E+00 0.  1.
         11    1    4    4    0    0 -0.39477938338E+02 -0.36886272676E+02 -0.90463845880E+02  0.10536988250E+03  0.00000000000E+00 0. -1.
</event>
<event>
 8    1  0.3654190E-009  0.1420346E+03  0.7561462E-02  0.1210617E+00
          2   -1    0    0  501    0  0.00000000000E+00  0.00000000000E+00  0.62596595536E+02  0.62596595536E+02  0.00000000000E+00 0.  1.
         -2   -1    0    0    0  501 -0.00000000000E+00 -0.00000000000E+00 -0.55870770245E+03  0.55870770245E+03  0.00000000000E+00 0. -1.
         25    2    1    2    0    0 -0.94927969045E+02  0.41805251516E+02 -0.76733812649E+02  0.17969802292E+03  0.12507718847E+03 0.  0.
         23    2    1    2    0    0  0.94927969045E+02 -0.41805251516E+02 -0.41937729427E+03  0.44160627507E+03  0.91541186774E+02 0.  0.
          5    1    3    3  502    0  0.79564005987E+01 -0.31470010378E+02 -0.18106813937E+01  0.32778298168E+02  0.41800000000E+01 0. -1.
         -5    1    3    3    0  502 -0.10288436964E+03  0.73275261894E+02 -0.74923131255E+02  0.14691972475E+03  0.41800000000E+01 0. -1.
        -11    1    4    4    0    0  0.11171958562E+02 -0.39632101009E+02 -0.61218605572E+02  0.73778274286E+02  0.00000000000E+00 0.  1.
         11    1    4    4    0    0  0.83756010484E+02 -0.21731505076E+01 -0.35815868870E+03  0.36782800079E+03  0.00000000000E+00 0. -1.
</event>
<event>
 8    1  0.3654190E-009  0.1066784E+03  0.7561462E-02  0.1266848E+00
          1   -1    0    0  501    0  0.00000000000E+00  0.00000000000E+00  0.18637209078E+02  0.18637209078E+02  0.00000000000E+00 0. -1.
         -1   -1    0    0    0  501 -0.00000000000E+00 -0.00000000000E+00 -0.72906263308E+03  0.72906263308E+03  0.00000000000E+00 0.  1.
         25    2    1    2    0    0  0.39661170651E+02  0.16764838906E+01 -0.46700480355E+03  0.48509459345E+03  0.12508980377E+03 0.  0.
         23    2    1    2    0    0 -0.39661170651E+02 -0.16764838906E+01 -0.24342062045E+03  0.26260524870E+03  0.90178152165E+02 0.  0.
          5    1    3    3  502    0 -0.34335171001E+02  0.27240111299E+02 -0.26077654637E+03  0.26446702473E+03  0.41800000000E+01 0.  1.
         -5    1    3    3    0  502  0.73996341652E+02 -0.25563627408E+02 -0.20622825717E+03  0.22062756872E+03  0.41800000000E+01 0.  1.
        -11    1    4    4    0    0 -0.34447970595E+02  0.37782201725E+02 -0.18485075881E+03  0.19179145048E+03  0.00000000000E+00 0.  1.
         11    1    4    4    0    0 -0.52132000556E+01 -0.39458685615E+02 -0.58569861641E+02  0.70813798217E+02  0.00000000000E+00 0. -1.
</event>
<event>
 8    1  0.3654190E-009  0.1082381E+03  0.7561462E-02  0.1263868E+00
         -1   -1    0    0    0  501 -0.00000000000E+00  0.00000000000E+00  0.10873221510E+03  0.10873221510E+03  0.00000000000E+00 0.  1.
          1   -1    0    0  501    0  0.00000000000E+00 -0.00000000000E+00 -0.15385453287E+03  0.15385453287E+03  0.00000000000E+00 0. -1.
         25    2    1    2    0    0 -0.58738563780E+02  0.32278617520E+02 -0.49765328270E+02  0.15038677942E+03  0.12508983772E+03 0.  0.
         23    2    1    2    0    0  0.58738563780E+02 -0.32278617520E+02  0.46430105031E+01  0.11219996856E+03  0.89861823781E+02 0.  0.
          5    1    3    3  502    0 -0.59450037462E+02  0.66641610764E+02  0.43533795425E+00  0.89403988494E+02  0.41800000000E+01 0.  1.
         -5    1    3    3    0  502  0.71147368190E+00 -0.34362993244E+02 -0.50200666224E+02  0.60982790924E+02  0.41800000000E+01 0.  1.
        -11    1    4    4    0    0  0.67821368579E+02 -0.41496213037E+02  0.28988704771E+02  0.84628711066E+02  0.00000000000E+00 0.  1.
         11    1    4    4    0    0 -0.90828047989E+01  0.92175955172E+01 -0.24345694268E+02  0.27571257489E+02  0.00000000000E+00 0. -1.
</event>
<event>
 8    1  0.3654190E-009  0.2385560E+03  0.7561462E-02  0.1120759E+00
         -1   -1    0    0    0  501 -0.00000000000E+00  0.00000000000E+00  0.49874778977E+02  0.49874778977E+02  0.00000000000E+00 0.  1.
          1   -1    0    0  501    0  0.00000000000E+00 -0.00000000000E+00 -0.14681747852E+04  0.14681747852E+04  0.00000000000E+00 0. -1.
         25    2    1    2    0    0 -0.20120248636E+03 -0.12630466844E+03 -0.53014814120E+03  0.59425606688E+03  0.12509161292E+03 0.  0.
         23    2    1    2    0    0  0.20120248636E+03  0.12630466844E+03 -0.88815186504E+03  0.92379349732E+03  0.90251761859E+02 0.  0.
          5    1    3    3  502    0 -0.86029576936E+02 -0.38100682234E+02 -0.35249069973E+03  0.36485602077E+03  0.41800000000E+01 0.  1.
         -5    1    3    3    0  502 -0.11517290942E+03 -0.88203986204E+02 -0.17765744146E+03  0.22940004611E+03  0.41800000000E+01 0.  1.
        -11    1    4    4    0    0  0.11370126471E+03  0.77611794560E+02 -0.66653839421E+03  0.68060634673E+03  0.00000000000E+00 0. -1.
         11    1    4    4    0    0  0.87501221645E+02  0.48692873878E+02 -0.22161347083E+03  0.24318715059E+03  0.00000000000E+00 0.  1.
</event>
<event>
 8    1  0.3654190E-009  0.1145868E+03  0.7561462E-02  0.1252304E+00
          1   -1    0    0  501    0  0.00000000000E+00  0.00000000000E+00  0.53888778056E+02  0.53888778056E+02  0.00000000000E+00 0. -1.
         -1   -1    0    0    0  501 -0.00000000000E+00 -0.00000000000E+00 -0.25210449079E+03  0.25210449079E+03  0.00000000000E+00 0.  1.
         25    2    1    2    0    0 -0.30344626081E+02  0.26229326065E+02 -0.12150449965E+03  0.17894311711E+03  0.12509405201E+03 0.  0.
         23    2    1    2    0    0  0.30344626081E+02 -0.26229326065E+02 -0.76711213084E+02  0.12705015173E+03  0.92996542757E+02 0.  0.
          5    1    3    3  502    0 -0.70709158710E+02  0.44896524071E+02 -0.60837562246E+02  0.10360581248E+03  0.41800000000E+01 0. -1.
         -5    1    3    3    0  502  0.40364532629E+02 -0.18667198006E+02 -0.60666937405E+02  0.75337304636E+02  0.41800000000E+01 0. -1.
        -11    1    4    4    0    0  0.47756034320E+02 -0.51320060549E+02 -0.59780997874E+02  0.92131184382E+02  0.00000000000E+00 0.  1.
         11    1    4    4    0    0 -0.17411408239E+02  0.25090734484E+02 -0.16930215210E+02  0.34918967351E+02  0.00000000000E+00 0. -1.
</event>
<event>
 8    1  0.3654190E-009  0.1722288E+03  0.7561462E-02  0.1175543E+00
         -2   -1    0    0    0  501 -0.00000000000E+00  0.00000000000E+00  0.24230926661E+02  0.24230926661E+02  0.00000000000E+00 0.  1.
          2   -1    0    0  501    0  0.00000000000E+00 -0.00000000000E+00 -0.14892463362E+04  0.14892463362E+04  0.00000000000E+00 0. -1.
         25    2    1    2    0    0 -0.75186666336E+01 -0.14836610424E+03 -0.97009075546E+03  0.98933953576E+03  0.12509041512E+03 0.  0.
         23    2    1    2    0    0  0.75186666336E+01  0.14836610424E+03 -0.49492465413E+03  0.52413772715E+03  0.87754843289E+02 0.  0.
          5    1    3    3  502    0  0.40520318812E+02 -0.29363785564E+01 -0.18869080722E+03  0.19306012454E+03  0.41800000000E+01 0.  1.
         -5    1    3    3    0  502 -0.48038985446E+02 -0.14542972569E+03 -0.78139994824E+03  0.79627941122E+03  0.41800000000E+01 0.  1.
        -11    1    4    4    0    0 -0.84915989378E+01  0.43693389694E+02 -0.50697577082E+02  0.67464537925E+02  0.00000000000E+00 0.  1.
         11    1    4    4    0    0  0.16010265571E+02  0.10467271455E+03 -0.44422707705E+03  0.45667318922E+03  0.00000000000E+00 0. -1.
</event>
<event>
 8    1  0.3654190E-009  0.9001725E+02  0.7561462E-02  0.1302810E+00
          2   -1    0    0  501    0  0.00000000000E+00  0.00000000000E+00  0.54268938949E+03  0.54268938949E+03  0.00000000000E+00 0. -1.
         -2   -1    0    0    0  501 -0.00000000000E+00 -0.00000000000E+00 -0.37250256839E+02  0.37250256839E+02  0.00000000000E+00 0.  1.
         25    2    1    2    0    0  0.11713998806E+02  0.37136700662E+02  0.10829146750E+03  0.16997449090E+03  0.12509169964E+03 0.  0.
         23    2    1    2    0    0 -0.11713998806E+02 -0.37136700662E+02  0.39714766515E+03  0.40996515542E+03  0.93961739170E+02 0.  0.
          5    1    3    3  502    0  0.17061166308E+01 -0.21311092825E+02  0.10836092268E+03  0.11052888978E+03  0.41800000000E+01 0.  1.
         -5    1    3    3    0  502  0.10007882175E+02  0.58447793487E+02 -0.69455175079E-01  0.59445601125E+02  0.41800000000E+01 0.  1.
        -11    1    4    4    0    0  0.28949392124E+02 -0.48589200441E+02  0.27388810301E+03  0.27966707113E+03  0.00000000000E+00 0. -1.
         11    1    4    4    0    0 -0.40663390930E+02  0.11452499779E+02  0.12325956213E+03  0.13029808429E+03  0.00000000000E+00 0.  1.
</event>
<event>
 8    1  0.3654190E-009  0.1487135E+03  0.7561462E-02  0.1202063E+00
         -2   -1    0    0    0  501 -0.00000000000E+00  0.00000000000E+00  0.13638729546E+03  0.13638729546E+03  0.00000000000E+00 0.  1.
          2   -1    0    0  501    0  0.00000000000E+00 -0.00000000000E+00 -0.19153901683E+03  0.19153901683E+03  0.00000000000E+00 0. -1.
         25    2    1    2    0    0 -0.63599231074E+02  0.96722676273E+02 -0.58435231492E+02  0.18017277214E+03  0.12508962083E+03 0.  0.
         23    2    1    2    0    0  0.63599231074E+02 -0.96722676273E+02  0.32835101209E+01  0.14775354015E+03  0.91761587229E+02 0.  0.
          5    1    3    3  502    0 -0.99867381318E+02  0.75135530595E+02 -0.57793821770E+02  0.13775500007E+03  0.41800000000E+01 0.  1.
         -5    1    3    3    0  502  0.36268150244E+02  0.21587145679E+02 -0.64140972215E+00  0.42417772066E+02  0.41800000000E+01 0.  1.
        -11    1    4    4    0    0  0.57840861919E+02 -0.34228176624E+02 -0.33408824834E+02  0.75055199415E+02  0.00000000000E+00 0. -1.
         11    1    4    4    0    0  0.57583691557E+01 -0.62494499650E+02  0.36692334955E+02  0.72698340739E+02  0.00000000000E+00 0.  1.
</event>
<event>
 8    1  0.3654190E-009  0.9432304E+02  0.7561462E-02  0.1292708E+00
          1   -1    0    0  501    0  0.00000000000E+00  0.00000000000E+00  0.77626925384E+02  0.77626925384E+02  0.00000000000E+00 0. -1.
         -1   -1    0    0    0  501 -0.00000000000E+00 -0.00000000000E+00 -0.16887982922E+03  0.16887982922E+03  0.00000000000E+00 0.  1.
         25    2    1    2    0    0 -0.17777326936E+02 -0.13953711735E+02 -0.20490692153E+02  0.12875624768E+03  0.12509022115E+03 0.  0.
         23    2    1    2    0    0  0.17777326936E+02  0.13953711735E+02 -0.70762211682E+02  0.11775050692E+03  0.91362748720E+02 0.  0.
          5    1    3    3  502    0  0.33702112489E+02 -0.51690657084E+02 -0.89189335669E+00  0.61854864722E+02  0.41800000000E+01 0.  1.
         -5    1    3    3    0  502 -0.51479439425E+02  0.37736945349E+02 -0.19598798796E+02  0.66901382961E+02  0.41800000000E+01 0.  1.
        -11    1    4    4    0    0 -0.13663646734E+02 -0.14858169681E+02  0.12823382175E+02  0.23914421982E+02  0.00000000000E+00 0. -1.
         11    1    4    4    0    0  0.31440973671E+02  0.28811881415E+02 -0.83585593857E+02  0.93836084938E+02  0.00000000000E+00 0.  1.
</event>
<event>
 8    1  0.3654190E-009  0.9539043E+02  0.7561462E-02  0.1290299E+00
         -1   -1    0    0    0  501 -0.00000000000E+00  0.00000000000E+00  0.10128586417E+03  0.10128586417E+03  0.00000000000E+00 0.  1.
          1   -1    0    0  501    0  0.00000000000E+00 -0.00000000000E+00 -0.16540126959E+03  0.16540126959E+03  0.00000000000E+00 0. -1.
         25    2    1    2    0    0  0.41300094469E+02 -0.15367460824E+02 -0.92507188852E+02  0.16170815414E+03  0.12510032163E+03 0.  0.
         23    2    1    2    0    0 -0.41300094469E+02  0.15367460824E+02  0.28391783428E+02  0.10497897962E+03  0.90954033117E+02 0.  0.
          5    1    3    3  502    0  0.77239334398E+02 -0.51564092151E+01 -0.20044342606E+02  0.80073412596E+02  0.41800000000E+01 0. -1.
         -5    1    3    3    0  502 -0.35939239929E+02 -0.10211051609E+02 -0.72462846246E+02  0.81634741549E+02  0.41800000000E+01 0. -1.
        -11    1    4    4    0    0 -0.11791345118E+02  0.37155230630E+02 -0.20352811297E+02  0.43974809955E+02  0.00000000000E+00 0. -1.
         11    1    4    4    0    0 -0.29508749351E+02 -0.21787769807E+02  0.48744594725E+02  0.61004169663E+02  0.00000000000E+00 0.  1.
</event>
<event>
 8    1  0.3654190E-009  0.1112883E+03  0.7561462E-02  0.1258203E+00
          2   -1    0    0  501    0  0.00000000000E+00  0.00000000000E+00  0.16381028728E+03  0.16381028728E+03  0.00000000000E+00 0. -1.
         -2   -1    0    0    0  501 -0.00000000000E+00 -0.00000000000E+00 -0.12090052518E+03  0.12090052518E+03  0.00000000000E+00 0.  1.
         25    2    1    2    0    0  0.58370652137E+02  0.47974437705E+02  0.70060436147E+02  0.16206387370E+03  0.12509018644E+03 0.  0.
         23    2    1    2    0    0 -0.58370652137E+02 -0.47974437705E+02 -0.27150674050E+02  0.12264693876E+03  0.92716949802E+02 0.  0.
          5    1    3    3  502    0 -0.94044134199E+01  0.56449074403E+02 -0.83590313195E+01  0.57985229130E+02  0.41800000000E+01 0. -1.
         -5    1    3    3    0  502  0.67775065557E+02 -0.84746366973E+01  0.78419467466E+02  0.10407864457E+03  0.41800000000E+01 0. -1.
        -11    1    4    4    0    0 -0.57157219166E+02 -0.61052445919E+02 -0.49164360554E+02  0.97012799177E+02  0.00000000000E+00 0.  1.
         11    1    4    4    0    0 -0.12134329712E+01  0.13078008214E+02  0.22013686504E+02  0.25634139578E+02  0.00000000000E+00 0. -1.
</event>
<event>
 8    1  0.3654190E-009  0.1301260E+03  0.7561462E-02  0.1227269E+00
          2   -1    0    0  501    0  0.00000000000E+00  0.00000000000E+00  0.13603773042E+02  0.13603773042E+02  0.00000000000E+00 0. -1.
         -2   -1    0    0    0  501 -0.00000000000E+00 -0.00000000000E+00 -0.17791514093E+04  0.17791514093E+04  0.00000000000E+00 0.  1.
         25    2    1    2    0    0  0.10461087849E+03  0.14674396866E+02 -0.11493210479E+04  0.11609244471E+04  0.12509167421E+03 0.  0.
         23    2    1    2    0    0 -0.10461087849E+03 -0.14674396866E+02 -0.61622658840E+03  0.63183073526E+03  0.91192631007E+02 0.  0.
          5    1    3    3  502    0  0.20903386246E+02 -0.20973239943E+02 -0.53223902358E+02  0.61049852845E+02  0.41800000000E+01 0. -1.
         -5    1    3    3    0  502  0.83707492244E+02  0.35647636809E+02 -0.10960971455E+04  0.10998745943E+04  0.41800000000E+01 0. -1.
        -11    1    4    4    0    0 -0.12052477119E+03 -0.49645562976E+01 -0.51909468629E+03  0.53292603673E+03  0.00000000000E+00 0. -1.
         11    1    4    4    0    0  0.15913892697E+02 -0.97098405687E+01 -0.97131902107E+02  0.98904698531E+02  0.00000000000E+00 0.  1.
</event>
<event>
 8    1  0.3654190E-009  0.1421907E+03  0.7561462E-02  0.1210411E+00
          3   -1    0    0  501    0  0.00000000000E+00  0.00000000000E+00  0.15949298647E+03  0.15949298647E+03  0.00000000000E+00 0. -1.
         -3   -1    0    0    0  501 -0.00000000000E+00 -0.00000000000E+00 -0.14576157342E+03  0.14576157342E+03  0.00000000000E+00 0.  1.
         25    2    1    2    0    0  0.92732091541E+02 -0.26246213932E+02 -0.42177910050E+02  0.16344122765E+03  0.12508378892E+03 0.  0.
         23    2    1    2    0    0 -0.92732091541E+02  0.26246213932E+02  0.55909323097E+02  0.14181333224E+03  0.87732914264E+02 0.  0.
          5    1    3    3  502    0 -0.14140408257E+02  0.31389899088E+02 -0.19695835771E+02  0.39883270392E+02  0.41800000000E+01 0.  1.
         -5    1    3    3    0  502  0.10687249980E+03 -0.57636113019E+02 -0.22482074279E+02  0.12355795725E+03  0.41800000000E+01 0.  1.
        -11    1    4    4    0    0  0.15934996633E+02 -0.16343268252E+01  0.16263133296E+02  0.22827278560E+02  0.00000000000E+00 0. -1.
         11    1    4    4    0    0 -0.10866708817E+03  0.27880540757E+02  0.39646189802E+02  0.11898605368E+03  0.00000000000E+00 0.  1.
</event>
<event>
 8    1  0.3654190E-009  0.8393762E+02  0.7561462E-02  0.1318234E+00
         -3   -1    0    0    0  501 -0.00000000000E+00  0.00000000000E+00  0.92460733975E+02  0.92460733975E+02  0.00000000000E+00 0.  1.
          3   -1    0    0  501    0  0.00000000000E+00 -0.00000000000E+00 -0.16071903097E+03  0.16071903097E+03  0.00000000000E+00 0. -1.
         25    2    1    2    0    0 -0.94991834501E+01  0.11090052203E+02  0.16807683576E+02  0.12704864403E+03  0.12508251668E+03 0.  0.
         23    2    1    2    0    0  0.94991834501E+01 -0.11090052203E+02 -0.85065980568E+02  0.12613112091E+03  0.91976164677E+02 0.  0.
          5    1    3    3  502    0 -0.42602766625E+02  0.51964616074E+02 -0.96646906979E+01  0.68016142893E+02  0.41800000000E+01 0.  1.
         -5    1    3    3    0  502  0.33103583175E+02 -0.40874563871E+02  0.26472374274E+02  0.59032501136E+02  0.41800000000E+01 0.  1.
        -11    1    4    4    0    0  0.27052749643E+02 -0.13206945780E+02  0.82022773075E+01  0.31201795351E+02  0.00000000000E+00 0.  1.
         11    1    4    4    0    0 -0.17553566193E+02  0.21168935775E+01 -0.93268257876E+02  0.94929325562E+02  0.00000000000E+00 0. -1.
</event>
<event>
 8    1  0.3654190E-009  0.4278485E+03  0.7561462E-02  0.1034542E+00
          2   -1    0    0  501    0  0.00000000000E+00  0.00000000000E+00  0.27211209243E+04  0.27211209243E+04  0.00000000000E+00 0.  1.
         -2   -1    0    0    0  501 -0.00000000000E+00 -0.00000000000E+00 -0.70972344855E+02  0.70972344855E+02  0.00000000000E+00 0. -1.
         25    2    1    2    0    0 -0.35780801749E+03 -0.22902773712E+03  0.12506033762E+04  0.13267012405E+04  0.12508835013E+03 0.  0.
         23    2    1    2    0    0  0.35780801749E+03  0.22902773712E+03  0.13995452033E+04  0.14653920287E+04  0.90370016400E+02 0.  0.
          5    1    3    3  502    0 -0.26650827169E+02 -0.43695720540E+02  0.71526543646E+02  0.88051697474E+02  0.41800000000E+01 0. -1.
         -5    1    3    3    0  502 -0.33115719032E+03 -0.18533201658E+03  0.11790768325E+04  0.12386495431E+04  0.41800000000E+01 0. -1.
        -11    1    4    4    0    0  0.14142877606E+03  0.89872754744E+02  0.70757615381E+03  0.72714731945E+03  0.00000000000E+00 0.  1.
         11    1    4    4    0    0  0.21637924142E+03  0.13915498237E+03  0.69196904948E+03  0.73824470921E+03  0.00000000000E+00 0. -1.
</event>
<event>
 8    1  0.3654190E-009  0.2247091E+03  0.7561462E-02  0.1130420E+00
          1   -1    0    0  501    0  0.00000000000E+00  0.00000000000E+00  0.41719999327E+03  0.41719999327E+03  0.00000000000E+00 0. -1.
         -1   -1    0    0    0  501 -0.00000000000E+00 -0.00000000000E+00 -0.12802891933E+03  0.12802891933E+03  0.00000000000E+00 0.  1.
         25    2    1    2    0    0 -0.17475694366E+03 -0.10441025454E+03  0.15529227434E+03  0.28497249527E+03  0.12510852082E+03 0.  0.
         23    2    1    2    0    0  0.17475694366E+03  0.10441025454E+03  0.13387879959E+03  0.26025641733E+03  0.91478845464E+02 0.  0.
          5    1    3    3  502    0 -0.88720095613E+02 -0.11766419670E+03  0.12311524758E+03  0.19207018284E+03  0.41800000000E+01 0. -1.
         -5    1    3    3    0  502 -0.86036848048E+02  0.13253942154E+02  0.32177026763E+02  0.92902312436E+02  0.41800000000E+01 0. -1.
        -11    1    4    4    0    0  0.13216492069E+03  0.40854281709E+02  0.11864859547E+03  0.18224743566E+03  0.00000000000E+00 0.  1.
         11    1    4    4    0    0  0.42592022970E+02  0.63555972835E+02  0.15230204118E+02  0.78008981670E+02  0.00000000000E+00 0. -1.
</event>
<event>
 8    1  0.3654190E-009  0.1205852E+03  0.7561462E-02  0.1242135E+00
         -1   -1    0    0    0  501 -0.00000000000E+00  0.00000000000E+00  0.55064646948E+02  0.55064646948E+02  0.00000000000E+00 0.  1.
          1   -1    0    0  501    0  0.00000000000E+00 -0.00000000000E+00 -0.29728592851E+03  0.29728592851E+03  0.00000000000E+00 0. -1.
         25    2    1    2    0    0  0.18493499625E+02 -0.64888507455E+02 -0.14491984533E+03  0.20298055663E+03  0.12508723704E+03 0.  0.
         23    2    1    2    0    0 -0.18493499625E+02  0.64888507455E+02 -0.97301436225E+02  0.14937001883E+03  0.91056603849E+02 0.  0.
          5    1    3    3  502    0  0.68855762958E+02 -0.14460183711E+02 -0.78018247911E+02  0.10514053649E+03  0.41800000000E+01 0. -1.
         -5    1    3    3    0  502 -0.50362263334E+02 -0.50428323744E+02 -0.66901597422E+02  0.97840020142E+02  0.41800000000E+01 0. -1.
        -11    1    4    4    0    0  0.28333958361E+02  0.24439222882E+02 -0.42999602669E+01  0.37664020892E+02  0.00000000000E+00 0.  1.
         11    1    4    4    0    0 -0.46827457986E+02  0.40449284573E+02 -0.93001475958E+02  0.11170599793E+03  0.00000000000E+00 0. -1.
</event>
<event>
 8    1  0.3654190E-009  0.2149793E+03  0.7561462E-02  0.1137682E+00
         -2   -1    0    0    0  501 -0.00000000000E+00  0.00000000000E+00  0.28684876591E+03  0.28684876591E+03  0.00000000000E+00 0.  1.
          2   -1    0    0  501    0  0.00000000000E+00 -0.00000000000E+00 -0.18916336592E+03  0.18916336592E+03  0.00000000000E+00 0. -1.
         25    2    1    2    0    0  0.14457153560E+03 -0.14236686091E+03  0.92699940921E+02  0.25575348076E+03  0.12508921569E+03 0.  0.
         23    2    1    2    0    0 -0.14457153560E+03  0.14236686091E+03  0.49854590718E+01  0.22025865107E+03  0.85555634406E+02 0.  0.
          5    1    3    3  502    0  0.40277474455E+02 -0.11062261492E+03  0.87113441080E+02  0.14651232678E+03  0.41800000000E+01 0. -1.
         -5    1    3    3    0  502  0.10429406114E+03 -0.31744245994E+02  0.55864998409E+01  0.10924115399E+03  0.41800000000E+01 0. -1.
        -11    1    4    4    0    0 -0.74984183446E+02  0.68235017313E+02  0.45091501069E+02  0.11095895107E+03  0.00000000000E+00 0. -1.
         11    1    4    4    0    0 -0.69587352153E+02  0.74131843602E+02 -0.40106041997E+02  0.10929970000E+03  0.00000000000E+00 0.  1.
</event>
<event>
 8    1  0.3654190E-009  0.7273377E+02  0.7561462E-02  0.1351036E+00
          2   -1    0    0  501    0  0.00000000000E+00  0.00000000000E+00  0.50125229552E+03  0.50125229552E+03  0.00000000000E+00 0. -1.
         -2   -1    0    0    0  501 -0.00000000000E+00 -0.00000000000E+00 -0.24739510641E+02  0.24739510641E+02  0.00000000000E+00 0.  1.
         25    2    1    2    0    0  0.23064044201E+02  0.16872225218E+02  0.28329696952E+03  0.31100089983E+03  0.12509102540E+03 0.  0.
         23    2    1    2    0    0 -0.23064044201E+02 -0.16872225218E+02  0.19321581535E+03  0.21499090633E+03  0.89844957468E+02 0.  0.
          5    1    3    3  502    0 -0.23892110097E+02  0.20973668907E+02  0.99289921818E+01  0.33567618296E+02  0.41800000000E+01 0.  1.
         -5    1    3    3    0  502  0.46956154299E+02 -0.41014436884E+01  0.27336797734E+03  0.27743328153E+03  0.41800000000E+01 0.  1.
        -11    1    4    4    0    0 -0.37665827301E+02  0.67940869493E+01  0.27927188320E+02  0.47379341608E+02  0.00000000000E+00 0.  1.
         11    1    4    4    0    0  0.14601783100E+02 -0.23666312168E+02  0.16528862703E+03  0.16761156472E+03  0.00000000000E+00 0. -1.
</event>
<event>
 8    1  0.3654190E-009  0.2460147E+03  0.7561462E-02  0.1115850E+00
         -3   -1    0    0    0  501 -0.00000000000E+00  0.00000000000E+00  0.89076182566E+02  0.89076182566E+02  0.00000000000E+00 0.  1.
          3   -1    0    0  501    0  0.00000000000E+00 -0.00000000000E+00 -0.76500164028E+03  0.76500164028E+03  0.00000000000E+00 0. -1.
         25    2    1    2    0    0 -0.22870282827E+03 -0.55918239514E+02 -0.30235307505E+03  0.40310939611E+03  0.12509184653E+03 0.  0.
         23    2    1    2    0    0  0.22870282827E+03  0.55918239514E+02 -0.37357238266E+03  0.45096842674E+03  0.91566170895E+02 0.  0.
          5    1    3    3  502    0 -0.14455201290E+03 -0.56563805472E+02 -0.27265413177E+03  0.31377140802E+03  0.41800000000E+01 0. -1.
         -5    1    3    3    0  502 -0.84150815375E+02  0.64556595766E+00 -0.29698943286E+02  0.89337988091E+02  0.41800000000E+01 0. -1.
        -11    1    4    4    0    0  0.17070709297E+03 -0.17332460655E+01 -0.25921983119E+03  0.31038498130E+03  0.00000000000E+00 0. -1.
         11    1    4    4    0    0  0.57995735305E+02  0.57651485580E+02 -0.11435255147E+03  0.14058344544E+03  0.00000000000E+00 0.  1.
</event>
<event>
 8    1  0.3654190E-009  0.9293964E+02  0.7561462E-02  0.1295885E+00
         -3   -1    0    0    0  501 -0.00000000000E+00  0.00000000000E+00  0.33879126549E+03  0.33879126549E+03  0.00000000000E+00 0.  1.
          3   -1    0    0  501    0  0.00000000000E+00 -0.00000000000E+00 -0.45365081193E+02  0.45365081193E+02  0.00000000000E+00 0. -1.
         25    2    1    2    0    0 -0.21010175977E+02 -0.51998438395E+02  0.19313055851E+03  0.23683791881E+03  0.12509005581E+03 0.  0.
         23    2    1    2    0    0  0.21010175977E+02  0.51998438395E+02  0.10029562578E+03  0.14731842787E+03  0.92185907543E+02 0.  0.
          5    1    3    3  502    0 -0.36793833036E+02 -0.57067851770E+02  0.20502100289E+03  0.21601298545E+03  0.41800000000E+01 0.  1.
         -5    1    3    3    0  502  0.15783657059E+02  0.50694133746E+01 -0.11890444376E+02  0.20824933363E+02  0.41800000000E+01 0.  1.
        -11    1    4    4    0    0  0.53653234170E+02  0.32004817172E+02  0.34947972169E+02  0.71584485874E+02  0.00000000000E+00 0. -1.
         11    1    4    4    0    0 -0.32643058193E+02  0.19993621223E+02  0.65347653611E+02  0.75733941996E+02  0.00000000000E+00 0.  1.
</event>
<event>
 8    1  0.3654190E-009  0.1155611E+03  0.7561462E-02  0.1250605E+00
         -2   -1    0    0    0  501 -0.00000000000E+00  0.00000000000E+00  0.13043206125E+03  0.13043206125E+03  0.00000000000E+00 0.  1.
          2   -1    0    0  501    0  0.00000000000E+00 -0.00000000000E+00 -0.11127134309E+03  0.11127134309E+03  0.00000000000E+00 0. -1.
         25    2    1    2    0    0 -0.36338318310E+02  0.38149265408E+02  0.16480163452E+02  0.13672917826E+03  0.12508969810E+03 0.  0.
         23    2    1    2    0    0  0.36338318310E+02 -0.38149265408E+02  0.26805547064E+01  0.10497422608E+03  0.90755511897E+02 0.  0.
          5    1    3    3  502    0 -0.73286394687E+02  0.55801899501E+02  0.23055174893E+02  0.95046099991E+02  0.41800000000E+01 0. -1.
         -5    1    3    3    0  502  0.36948076377E+02 -0.17652634093E+02 -0.65750114409E+01  0.41683078268E+02  0.41800000000E+01 0. -1.
        -11    1    4    4    0    0  0.69014102041E+01 -0.60437726909E+02  0.20212055607E+02  0.64100510829E+02  0.00000000000E+00 0.  1.
         11    1    4    4    0    0  0.29436908106E+02  0.22288461501E+02 -0.17531500901E+02  0.40873715255E+02  0.00000000000E+00 0. -1.
</event>
<event>
 8    1  0.3654190E-009  0.1231160E+03  0.7561462E-02  0.1238043E+00
         -2   -1    0    0    0  501 -0.00000000000E+00  0.00000000000E+00  0.64266416248E+03  0.64266416248E+03  0.00000000000E+00 0.  1.
          2   -1    0    0  501    0  0.00000000000E+00 -0.00000000000E+00 -0.35207213662E+02  0.35207213662E+02  0.00000000000E+00 0. -1.
         25    2    1    2    0    0 -0.66358891241E+02 -0.73468600528E+02  0.39322680417E+03  0.42435406292E+03  0.12509162037E+03 0.  0.
         23    2    1    2    0    0  0.66358891241E+02  0.73468600528E+02  0.21423014464E+03  0.25351731322E+03  0.92603107496E+02 0.  0.
          5    1    3    3  502    0 -0.75466084514E+01 -0.81062199981E+02  0.31902435366E+03  0.32927502515E+03  0.41800000000E+01 0.  1.
         -5    1    3    3    0  502 -0.58812282790E+02  0.75935994528E+01  0.74202450516E+02  0.95079037764E+02  0.41800000000E+01 0.  1.
        -11    1    4    4    0    0  0.69037316090E+02  0.59799419814E+02  0.22017874985E+03  0.23837114655E+03  0.00000000000E+00 0.  1.
         11    1    4    4    0    0 -0.26784248481E+01  0.13669180714E+02 -0.59486052009E+01  0.15146166673E+02  0.00000000000E+00 0. -1.
</event>
<event>
 8    1  0.3654190E-009  0.6245669E+02  0.7561462E-02  0.1387802E+00
          2   -1    0    0  501    0  0.00000000000E+00  0.00000000000E+00  0.14824694682E+03  0.14824694682E+03  0.00000000000E+00 0. -1.
         -2   -1    0    0    0  501 -0.00000000000E+00 -0.00000000000E+00 -0.94237427606E+02  0.94237427606E+02  0.00000000000E+00 0.  1.
         25    2    1    2    0    0  0.10067139467E+02 -0.25228081492E+02  0.72469381368E+02  0.14709304060E+03  0.12508696160E+03 0.  0.
         23    2    1    2    0    0 -0.10067139467E+02  0.25228081492E+02 -0.18459862154E+02  0.95391333831E+02  0.89559682148E+02 0.  0.
          5    1    3    3  502    0  0.28197828130E+02  0.14750098936E+02  0.93050630560E+02  0.98430560181E+02  0.41800000000E+01 0. -1.
         -5    1    3    3    0  502 -0.18130688662E+02 -0.39978180428E+02 -0.20581249193E+02  0.48662480414E+02  0.41800000000E+01 0. -1.
        -11    1    4    4    0    0  0.13606240361E+02  0.20462364091E+02  0.31470605555E+02  0.39927899205E+02  0.00000000000E+00 0. -1.
         11    1    4    4    0    0 -0.23673379828E+02  0.47657174012E+01 -0.49930467708E+02  0.55463434625E+02  0.00000000000E+00 0.  1.
</event>
<event>
 8    1  0.3654190E-009  0.9904437E+02  0.7561462E-02  0.1282318E+00
          1   -1    0    0  501    0  0.00000000000E+00  0.00000000000E+00  0.86156285555E+02  0.86156285555E+02  0.00000000000E+00 0. -1.
         -1   -1    0    0    0  501 -0.00000000000E+00 -0.00000000000E+00 -0.14568425556E+03  0.14568425556E+03  0.00000000000E+00 0.  1.
         25    2    1    2    0    0  0.10110912817E+02 -0.82423660297E+01 -0.60258401709E+02  0.13945966345E+03  0.12509098928E+03 0.  0.
         23    2    1    2    0    0 -0.10110912817E+02  0.82423660297E+01  0.73043170742E+00  0.92380877659E+02  0.91452314737E+02 0.  0.
          5    1    3    3  502    0  0.50463591407E+02 -0.45413324801E+02 -0.47544259123E+02  0.82987186377E+02  0.41800000000E+01 0. -1.
         -5    1    3    3    0  502 -0.40352678590E+02  0.37170958771E+02 -0.12714142586E+02  0.56472477076E+02  0.41800000000E+01 0. -1.
        -11    1    4    4    0    0  0.20935914447E+02 -0.22931867543E+02 -0.26343942416E+02  0.40720834529E+02  0.00000000000E+00 0.  1.
         11    1    4    4    0    0 -0.31046827264E+02  0.31174233573E+02  0.27074374123E+02  0.51660043130E+02  0.00000000000E+00 0. -1.
</event>
<event>
 8    1  0.3654190E-009  0.8018211E+02  0.7561462E-02  0.1328535E+00
          2   -1    0    0  501    0  0.00000000000E+00  0.00000000000E+00  0.74241869860E+02  0.74241869860E+02  0.00000000000E+00 0. -1.
         -2   -1    0    0    0  501 -0.00000000000E+00 -0.00000000000E+00 -0.20298403402E+03  0.20298403402E+03  0.00000000000E+00 0.  1.
         25    2    1    2    0    0 -0.35037601135E+02  0.38053355827E+02 -0.44994959967E+02  0.14263236091E+03  0.12507498780E+03 0.  0.
         23    2    1    2    0    0  0.35037601135E+02 -0.38053355827E+02 -0.83747204191E+02  0.13459354297E+03  0.91793987907E+02 0.  0.
          5    1    3    3  502    0 -0.30602001989E+02 -0.11787646913E+02 -0.76511811478E+02  0.83348430346E+02  0.41800000000E+01 0.  1.
         -5    1    3    3    0  502 -0.44355991465E+01  0.49841002740E+02  0.31516851511E+02  0.59283930564E+02  0.41800000000E+01 0.  1.
        -11    1    4    4    0    0  0.22853004425E+01 -0.43783470680E+02 -0.90594713149E+02  0.10064599820E+03  0.00000000000E+00 0.  1.
         11    1    4    4    0    0  0.32752300693E+02  0.57301148524E+01  0.68475089587E+01  0.33947544769E+02  0.00000000000E+00 0. -1.
</event>
<event>
 8    1  0.3654190E-009  0.1601024E+03  0.7561462E-02  0.1188581E+00
         -2   -1    0    0    0  501 -0.00000000000E+00  0.00000000000E+00  0.11143196425E+03  0.11143196425E+03  0.00000000000E+00 0.  1.
          2   -1    0    0  501    0  0.00000000000E+00 -0.00000000000E+00 -0.30387420855E+03  0.30387420855E+03  0.00000000000E+00 0. -1.
         25    2    1    2    0    0  0.62641162045E+02 -0.13096773830E+03 -0.75632753687E+02  0.20602175478E+03  0.12509271104E+03 0.  0.
         23    2    1    2    0    0 -0.62641162045E+02  0.13096773830E+03 -0.11680949061E+03  0.20928441803E+03  0.95284032636E+02 0.  0.
          5    1    3    3  502    0  0.79234340650E+02 -0.53587144090E+02 -0.82620144239E+02  0.12646431664E+03  0.41800000000E+01 0.  1.
         -5    1    3    3    0  502 -0.16593178605E+02 -0.77380594206E+02  0.69873905517E+01  0.79557438135E+02  0.41800000000E+01 0.  1.
        -11    1    4    4    0    0 -0.92198230956E+01  0.16870256510E+02  0.16881686754E+02  0.25585191816E+02  0.00000000000E+00 0.  1.
         11    1    4    4    0    0 -0.53421338950E+02  0.11409748179E+03 -0.13369117736E+03  0.18369922621E+03  0.00000000000E+00 0. -1.
</event>
<event>
 8    1  0.3654190E-009  0.8367011E+02  0.7561462E-02  0.1318947E+00
         -4   -1    0    0    0  501 -0.00000000000E+00  0.00000000000E+00  0.49791499887E+02  0.49791499887E+02  0.00000000000E+00 0.  1.
          4   -1    0    0  501    0  0.00000000000E+00 -0.00000000000E+00 -0.33025728931E+03  0.33025728931E+03  0.00000000000E+00 0. -1.
         25    2    1    2    0    0  0.26624265230E+02 -0.27190632876E+02 -0.23558398379E+03  0.26944106225E+03  0.12510192082E+03 0.  0.
         23    2    1    2    0    0 -0.26624265230E+02  0.27190632876E+02 -0.44881805633E+02  0.11060772695E+03  0.93656343982E+02 0.  0.
          5    1    3    3  502    0  0.53663149150E+02  0.24245620421E+02 -0.58870514663E+02  0.83371419461E+02  0.41800000000E+01 0.  1.
         -5    1    3    3    0  502 -0.27038883920E+02 -0.51436253297E+02 -0.17671346912E+03  0.18606964279E+03  0.41800000000E+01 0.  1.
        -11    1    4    4    0    0 -0.86964154881E+01 -0.71818761561E+01  0.26821013116E+02  0.29095940129E+02  0.00000000000E+00 0.  1.
         11    1    4    4    0    0 -0.17927849742E+02  0.34372509032E+02 -0.71702818749E+02  0.81511786817E+02  0.00000000000E+00 0. -1.
</event>
<event>
 8    1  0.3654190E-009  0.1373544E+03  0.7561462E-02  0.1216934E+00
          2   -1    0    0  501    0  0.00000000000E+00  0.00000000000E+00  0.32401938908E+03  0.32401938908E+03  0.00000000000E+00 0. -1.
         -2   -1    0    0    0  501 -0.00000000000E+00 -0.00000000000E+00 -0.81256895892E+02  0.81256895892E+02  0.00000000000E+00 0.  1.
         25    2    1    2    0    0 -0.11596575365E+03  0.32179890779E+02  0.13049193703E+03  0.21715659298E+03  0.12508092922E+03 0.  0.
         23    2    1    2    0    0  0.11596575365E+03 -0.32179890779E+02  0.11227055615E+03  0.18811969199E+03  0.91108393377E+02 0.  0.
          5    1    3    3  502    0 -0.11623848191E+02 -0.93797151590E+01 -0.22494317670E+02  0.27323243414E+02  0.41800000000E+01 0.  1.
         -5    1    3    3    0  502 -0.10434190546E+03  0.41559605938E+02  0.15298625470E+03  0.18983334957E+03  0.41800000000E+01 0.  1.
        -11    1    4    4    0    0  0.41475735247E+02  0.28837863234E+02  0.60421685002E+02  0.78756834552E+02  0.00000000000E+00 0.  1.
         11    1    4    4    0    0  0.74490018404E+02 -0.61017754012E+02  0.51848871151E+02  0.10936285743E+03  0.00000000000E+00 0. -1.
</event>
<event>
 8    1  0.3654190E-009  0.9142747E+02  0.7561462E-02  0.1299431E+00
          3   -1    0    0  501    0  0.00000000000E+00  0.00000000000E+00  0.28134609513E+03  0.28134609513E+03  0.00000000000E+00 0. -1.
         -3   -1    0    0    0  501 -0.00000000000E+00 -0.00000000000E+00 -0.57353215287E+02  0.57353215287E+02  0.00000000000E+00 0.  1.
         25    2    1    2    0    0 -0.23745767170E+02  0.37384657812E+02  0.18867484183E+03  0.23066784596E+03  0.12509190670E+03 0.  0.
         23    2    1    2    0    0  0.23745767170E+02 -0.37384657812E+02  0.35318038014E+02  0.10803146446E+03  0.91988909147E+02 0.  0.
          5    1    3    3  502    0 -0.58797066448E+02 -0.20257999754E+02  0.11413457639E+03  0.13004482114E+03  0.41800000000E+01 0. -1.
         -5    1    3    3    0  502  0.35051299278E+02  0.57642657566E+02  0.74540265442E+02  0.10062302482E+03  0.41800000000E+01 0. -1.
        -11    1    4    4    0    0  0.18316282810E+02 -0.35394480152E+01  0.61902732629E+02  0.64652627288E+02  0.00000000000E+00 0. -1.
         11    1    4    4    0    0  0.54294843605E+01 -0.33845209797E+02 -0.26584694616E+02  0.43378837172E+02  0.00000000000E+00 0.  1.
</event>
<event>
 8    1  0.3654190E-009  0.1559232E+03  0.7561462E-02  0.1193378E+00
         -2   -1    0    0    0  501 -0.00000000000E+00  0.00000000000E+00  0.36693951276E+02  0.36693951276E+02  0.00000000000E+00 0.  1.
          2   -1    0    0  501    0  0.00000000000E+00 -0.00000000000E+00 -0.11126184595E+04  0.11126184595E+04  0.00000000000E+00 0. -1.
         25    2    1    2    0    0 -0.28335848784E+02 -0.14453494482E+03 -0.79919007146E+03  0.82222130029E+03  0.12509926352E+03 0.  0.
         23    2    1    2    0    0  0.28335848784E+02  0.14453494482E+03 -0.27673443678E+03  0.32709111050E+03  0.93345463019E+02 0.  0.
          5    1    3    3  502    0 -0.46573221096E+02 -0.68001407067E+02 -0.17973765104E+03  0.19777854254E+03  0.41800000000E+01 0. -1.
         -5    1    3    3    0  502  0.18237372312E+02 -0.76533537757E+02 -0.61945242042E+03  0.62444275776E+03  0.41800000000E+01 0. -1.
        -11    1    4    4    0    0  0.14559230159E+01  0.87163593898E+02 -0.72907856404E+02  0.11364491779E+03  0.00000000000E+00 0.  1.
         11    1    4    4    0    0  0.26879925768E+02  0.57371350925E+02 -0.20382658037E+03  0.21344619271E+03  0.00000000000E+00 0. -1.
</event>
<event>
 8    1  0.3654190E-009  0.1110568E+03  0.7561462E-02  0.1258625E+00
         -2   -1    0    0    0  501 -0.00000000000E+00  0.00000000000E+00  0.53642828924E+02  0.53642828924E+02  0.00000000000E+00 0.  1.
          2   -1    0    0  501    0  0.00000000000E+00 -0.00000000000E+00 -0.24365337599E+03  0.24365337599E+03  0.00000000000E+00 0. -1.
         25    2    1    2    0    0  0.15327088542E+02  0.30856755241E+02 -0.86529414625E+02  0.15595884662E+03  0.12509501692E+03 0.  0.
         23    2    1    2    0    0 -0.15327088542E+02 -0.30856755241E+02 -0.10348113244E+03  0.14133735829E+03  0.89893520845E+02 0.  0.
          5    1    3    3  502    0  0.35636252498E+02 -0.39031580790E+02 -0.55429756182E+02  0.76702914296E+02  0.41800000000E+01 0.  1.
         -5    1    3    3    0  502 -0.20309163956E+02  0.69888336031E+02 -0.31099658443E+02  0.79255932327E+02  0.41800000000E+01 0.  1.
        -11    1    4    4    0    0 -0.84466204468E+00  0.31838845010E+02 -0.31692235537E+02  0.44931317573E+02  0.00000000000E+00 0. -1.
         11    1    4    4    0    0 -0.14482426497E+02 -0.62695600251E+02 -0.71788896900E+02  0.96406040714E+02  0.00000000000E+00 0.  1.
</event>
<event>
 8    1  0.3654190E-009  0.1177482E+03  0.7561462E-02  0.1246859E+00
         -2   -1    0    0    0  501 -0.00000000000E+00  0.00000000000E+00  0.16095579366E+03  0.16095579366E+03  0.00000000000E+00 0.  1.
          2   -1    0    0  501    0  0.00000000000E+00 -0.00000000000E+00 -0.11024690110E+03  0.11024690110E+03  0.00000000000E+00 0. -1.
         25    2    1    2    0    0 -0.41696814763E+02 -0.48295926368E+02  0.73838998795E+02  0.15865267310E+03  0.12508937634E+03 0.  0.
         23    2    1    2    0    0  0.41696814763E+02  0.48295926368E+02 -0.23130106227E+02  0.11255002166E+03  0.89785214238E+02 0.  0.
          5    1    3    3  502    0 -0.62791956504E+01 -0.81198855852E+02  0.74015647300E+02  0.11012933730E+03  0.41800000000E+01 0. -1.
         -5    1    3    3    0  502 -0.35417619113E+02  0.32902929484E+02 -0.17664850572E+00  0.48523335798E+02  0.41800000000E+01 0. -1.
        -11    1    4    4    0    0 -0.75796179257E+01  0.55154942138E+02  0.41181525480E+01  0.55825419215E+02  0.00000000000E+00 0.  1.
         11    1    4    4    0    0  0.49276432689E+02 -0.68590157701E+01 -0.27248258775E+02  0.56724602442E+02  0.00000000000E+00 0. -1.
</event>
<event>
 8    1  0.3654190E-009  0.9933543E+02  0.7561462E-02  0.1281700E+00
         -2   -1    0    0    0  501 -0.00000000000E+00  0.00000000000E+00  0.47496971144E+03  0.47496971144E+03  0.00000000000E+00 0.  1.
          2   -1    0    0  501    0  0.00000000000E+00 -0.00000000000E+00 -0.27105838316E+02  0.27105838316E+02  0.00000000000E+00 0. -1.
         25    2    1    2    0    0  0.12528088986E+02  0.28307452031E+02  0.23185610910E+03  0.26525451831E+03  0.12507773305E+03 0.  0.
         23    2    1    2    0    0 -0.12528088986E+02 -0.28307452031E+02  0.21600776402E+03  0.23682103144E+03  0.92014031323E+02 0.  0.
          5    1    3    3  502    0 -0.46726407837E+02 -0.17340715779E+02  0.62350822908E+02  0.79932190827E+02  0.41800000000E+01 0. -1.
         -5    1    3    3    0  502  0.59254496823E+02  0.45648167810E+02  0.16950528619E+03  0.18532232748E+03  0.41800000000E+01 0. -1.
        -11    1    4    4    0    0  0.25440718581E+02 -0.24933417401E+02  0.28902074898E+02  0.45871945660E+02  0.00000000000E+00 0. -1.
         11    1    4    4    0    0 -0.37968807566E+02 -0.33740346300E+01  0.18710568913E+03  0.19094908578E+03  0.00000000000E+00 0.  1.
</event>
<event>
 8    1  0.3654190E-009  0.7495892E+02  0.7561462E-02  0.1343998E+00
          1   -1    0    0  501    0  0.00000000000E+00  0.00000000000E+00  0.15331208384E+04  0.15331208384E+04  0.00000000000E+00 0. -1.
         -1   -1    0    0    0  501 -0.00000000000E+00 -0.00000000000E+00 -0.11740515037E+02  0.11740515037E+02  0.00000000000E+00 0.  1.
         25    2    1    2    0    0  0.23832997063E+02  0.44924290545E+02  0.12362804391E+04  0.12436337103E+04  0.12509707361E+03 0.  0.
         23    2    1    2    0    0 -0.23832997063E+02 -0.44924290545E+02  0.28509988431E+03  0.30122764311E+03  0.82885133254E+02 0.  0.
          5    1    3    3  502    0  0.11111270513E+02  0.63955155636E+01  0.11255280961E+04  0.11256088710E+04  0.41800000000E+01 0. -1.
         -5    1    3    3    0  502  0.12721726550E+02  0.38528774981E+02  0.11075234296E+03  0.11802483934E+03  0.41800000000E+01 0. -1.
        -11    1    4    4    0    0 -0.18669020246E+02 -0.68762939328E+02  0.23394842782E+03  0.24455825691E+03  0.00000000000E+00 0.  1.
         11    1    4    4    0    0 -0.51639768166E+01  0.23838648784E+02  0.51151456488E+02  0.56669386209E+02  0.00000000000E+00 0. -1.
</event>
<event>
 8    1  0.3654190E-009  0.1877487E+03  0.7561462E-02  0.1160508E+00
         -2   -1    0    0    0  501 -0.00000000000E+00  0.00000000000E+00  0.83702560086E+03  0.83702560086E+03  0.00000000000E+00 0.  1.
          2   -1    0    0  501    0  0.00000000000E+00 -0.00000000000E+00 -0.47335263498E+02  0.47335263498E+02  0.00000000000E+00 0. -1.
         25    2    1    2    0    0  0.14410821810E+03 -0.72980582877E+02  0.46848975198E+03  0.51109977562E+03  0.12508792477E+03 0.  0.
         23    2    1    2    0    0 -0.14410821810E+03  0.72980582877E+02  0.32120058538E+03  0.37326108874E+03  0.10030294271E+03 0.  0.
          5    1    3    3  502    0  0.12378064998E+03  0.23776882118E+01  0.32307278931E+03  0.34600693968E+03  0.41800000000E+01 0.  1.
         -5    1    3    3    0  502  0.20327568127E+02 -0.75358271089E+02  0.14541696267E+03  0.16509283594E+03  0.41800000000E+01 0.  1.
        -11    1    4    4    0    0 -0.12786298802E+03  0.35637913867E+02  0.29839659119E+03  0.32658770681E+03  0.00000000000E+00 0. -1.
         11    1    4    4    0    0 -0.16245230088E+02  0.37342669010E+02  0.22803994195E+02  0.46673381929E+02  0.00000000000E+00 0.  1.
</event>
<event>
 8    1  0.3654190E-009  0.1066686E+03  0.7561462E-02  0.1266867E+00
         -2   -1    0    0    0  501 -0.00000000000E+00  0.00000000000E+00  0.14656498998E+03  0.14656498998E+03  0.00000000000E+00 0. -1.
          2   -1    0    0  501    0  0.00000000000E+00 -0.00000000000E+00 -0.13412185410E+03  0.13412185410E+03  0.00000000000E+00 0.  1.
         25    2    1    2    0    0  0.28678837986E+01  0.69290073875E+02 -0.50369890038E+02  0.15163739911E+03  0.12508971138E+03 0.  0.
         23    2    1    2    0    0 -0.28678837986E+01 -0.69290073875E+02  0.62813025915E+02  0.12904944497E+03  0.88876003096E+02 0.  0.
          5    1    3    3  502    0  0.58638256030E+02  0.68659488401E+01 -0.19377477002E+02  0.62277968325E+02  0.41800000000E+01 0.  1.
         -5    1    3    3    0  502 -0.55770372231E+02  0.62424125035E+02 -0.30992413036E+02  0.89359430789E+02  0.41800000000E+01 0.  1.
        -11    1    4    4    0    0  0.16119414462E+01 -0.60023039601E+02  0.85302590124E+02  0.10431632432E+03  0.00000000000E+00 0. -1.
         11    1    4    4    0    0 -0.44798252448E+01 -0.92670342741E+01 -0.22489564209E+02  0.24733120644E+02  0.00000000000E+00 0.  1.
</event>
<event>
 8    1  0.3654190E-009  0.1174284E+03  0.7561462E-02  0.1247401E+00
          4   -1    0    0  501    0  0.00000000000E+00  0.00000000000E+00  0.47684264602E+02  0.47684264602E+02  0.00000000000E+00 0. -1.
         -4   -1    0    0    0  501 -0.00000000000E+00 -0.00000000000E+00 -0.37867859427E+03  0.37867859427E+03  0.00000000000E+00 0.  1.
         25    2    1    2    0    0 -0.39566294281E+02 -0.69241058867E+02 -0.18960426243E+03  0.24074578688E+03  0.12509573011E+03 0.  0.
         23    2    1    2    0    0  0.39566294281E+02  0.69241058867E+02 -0.14139006724E+03  0.18561707200E+03  0.90015167758E+02 0.  0.
          5    1    3    3  502    0  0.34400696286E+02 -0.44246829902E+02 -0.31654473661E+02  0.64503239950E+02  0.41800000000E+01 0. -1.
         -5    1    3    3    0  502 -0.73966990567E+02 -0.24994228965E+02 -0.15794978877E+03  0.17624254693E+03  0.41800000000E+01 0. -1.
        -11    1    4    4    0    0  0.53809101000E+02  0.37237007411E+02 -0.13497974033E+03  0.15000514782E+03  0.00000000000E+00 0.  1.
         11    1    4    4    0    0 -0.14242806719E+02  0.32004051456E+02 -0.64103269089E+01  0.35611924181E+02  0.00000000000E+00 0. -1.
</event>
<event>
 8    1  0.3654190E-009  0.1175001E+03  0.7561462E-02  0.1247279E+00
         -2   -1    0    0    0  501 -0.00000000000E+00  0.00000000000E+00  0.19492251205E+02  0.19492251205E+02  0.00000000000E+00 0. -1.
          2   -1    0    0  501    0  0.00000000000E+00 -0.00000000000E+00 -0.11440860826E+04  0.11440860826E+04  0.00000000000E+00 0.  1.
         25    2    1    2    0    0  0.73897890626E+02 -0.66685239168E+02 -0.51971881147E+03  0.54374889137E+03  0.12508954594E+03 0.  0.
         23    2    1    2    0    0 -0.73897890626E+02  0.66685239168E+02 -0.60487501997E+03  0.61982944248E+03  0.91689304851E+02 0.  0.
          5    1    3    3  502    0  0.39341246596E+02 -0.43620527866E+02 -0.48740398308E+03  0.49094867273E+03  0.41800000000E+01 0. -1.
         -5    1    3    3    0  502  0.34556644030E+02 -0.23064711302E+02 -0.32314828393E+02  0.52800218637E+02  0.41800000000E+01 0. -1.
        -11    1    4    4    0    0  0.12710466125E+02 -0.11896571546E+02 -0.56408873289E+02  0.59034272667E+02  0.00000000000E+00 0. -1.
         11    1    4    4    0    0 -0.86608356750E+02  0.78581810714E+02 -0.54846614668E+03  0.56079516981E+03  0.00000000000E+00 0.  1.
</event>
<event>
 8    1  0.3654190E-009  0.8260195E+02  0.7561462E-02  0.1321826E+00
         -1   -1    0    0    0  501 -0.00000000000E+00  0.00000000000E+00  0.21208704112E+02  0.21208704112E+02  0.00000000000E+00 0.  1.
          1   -1    0    0  501    0  0.00000000000E+00 -0.00000000000E+00 -0.72013635742E+03  0.72013635742E+03  0.00000000000E+00 0. -1.
         25    2    1    2    0    0  0.19586143396E+02 -0.59187636667E+01 -0.56634743730E+03  0.58035775675E+03  0.12508819810E+03 0.  0.
         23    2    1    2    0    0 -0.19586143396E+02  0.59187636667E+01 -0.13258021600E+03  0.16098730478E+03  0.88998594641E+02 0.  0.
          5    1    3    3  502    0 -0.36490705861E+02  0.10978345673E+02 -0.64090697923E+02  0.74680557364E+02  0.41800000000E+01 0. -1.
         -5    1    3    3    0  502  0.56076849257E+02 -0.16897109340E+02 -0.50225673938E+03  0.50567719939E+03  0.41800000000E+01 0. -1.
        -11    1    4    4    0    0 -0.43740227845E+02  0.39817454526E+01 -0.12927368148E+03  0.13653111935E+03  0.00000000000E+00 0. -1.
         11    1    4    4    0    0  0.24154084449E+02  0.19370182141E+01 -0.33065345272E+01  0.24456185428E+02  0.00000000000E+00 0.  1.
</event>
<event>
 8    1  0.3654190E-009  0.8405206E+02  0.7561462E-02  0.1317930E+00
          2   -1    0    0  501    0  0.00000000000E+00  0.00000000000E+00  0.21534397787E+04  0.21534397787E+04  0.00000000000E+00 0. -1.
         -2   -1    0    0    0  501 -0.00000000000E+00 -0.00000000000E+00 -0.66193321373E+01  0.66193321373E+01  0.00000000000E+00 0.  1.
         25    2    1    2    0    0 -0.10471104239E+01 -0.10751236701E+02  0.17065982736E+04  0.17112108663E+04  0.12509306878E+03 0.  0.
         23    2    1    2    0    0  0.10471104239E+01  0.10751236701E+02  0.44022217298E+03  0.44884824458E+03  0.86905118102E+02 0.  0.
          5    1    3    3  502    0  0.29127689649E+02  0.21300229468E+02  0.16382915640E+03  0.16780818504E+03  0.41800000000E+01 0. -1.
         -5    1    3    3    0  502 -0.30174800073E+02 -0.32051466170E+02  0.15427691172E+04  0.15434026813E+04  0.41800000000E+01 0. -1.
        -11    1    4    4    0    0 -0.31366150583E+02  0.35060335712E+02  0.24060263183E+03  0.24515849769E+03  0.00000000000E+00 0.  1.
         11    1    4    4    0    0  0.32413261006E+02 -0.24309099011E+02  0.19961954114E+03  0.20368974690E+03  0.00000000000E+00 0. -1.
</event>
<event>
 8    1  0.3654190E-009  0.2119406E+03  0.7561462E-02  0.1140038E+00
          2   -1    0    0  501    0  0.00000000000E+00  0.00000000000E+00  0.13135925299E+04  0.13135925299E+04  0.00000000000E+00 0. -1.
         -2   -1    0    0    0  501 -0.00000000000E+00 -0.00000000000E+00 -0.42693354376E+02  0.42693354376E+02  0.00000000000E+00 0.  1.
         25    2    1    2    0    0  0.16751036437E+03  0.81595323250E+02  0.37327539332E+03  0.43554488035E+03  0.12508918654E+03 0.  0.
         23    2    1    2    0    0 -0.16751036437E+03 -0.81595323250E+02  0.89762378216E+03  0.92074100388E+03  0.85545444015E+02 0.  0.
          5    1    3    3  502    0  0.31552061666E+01  0.58084520945E+02  0.94471468484E+02  0.11102296004E+03  0.41800000000E+01 0.  1.
         -5    1    3    3    0  502  0.16435515820E+03  0.23510802305E+02  0.27880392484E+03  0.32452192031E+03  0.41800000000E+01 0.  1.
        -11    1    4    4    0    0 -0.72204506528E+02 -0.74751234413E+02  0.57291420280E+03  0.58226447734E+03  0.00000000000E+00 0. -1.
         11    1    4    4    0    0 -0.95305857841E+02 -0.68440888374E+01  0.32470957936E+03  0.33847652654E+03  0.00000000000E+00 0.  1.
</event>
<event>
 8    1  0.3654190E-009  0.1061150E+03  0.7561462E-02  0.1267938E+00
          2   -1    0    0  501    0  0.00000000000E+00  0.00000000000E+00  0.30146021477E+03  0.30146021477E+03  0.00000000000E+00 0. -1.
         -2   -1    0    0    0  501 -0.00000000000E+00 -0.00000000000E+00 -0.40417037176E+02  0.40417037176E+02  0.00000000000E+00 0.  1.
         25    2    1    2    0    0 -0.26553786653E+02 -0.99617869448E+00  0.13678634007E+03  0.18725436216E+03  0.12509035679E+03 0.  0.
         23    2    1    2    0    0  0.26553786653E+02  0.99617869448E+00  0.12425683752E+03  0.15462288978E+03  0.88104372289E+02 0.  0.
          5    1    3    3  502    0 -0.74131253968E+02 -0.77737995925E+01  0.10730394536E+03  0.13071910291E+03  0.41800000000E+01 0.  1.
         -5    1    3    3    0  502  0.47577467314E+02  0.67776208980E+01  0.29482394712E+02  0.56535259255E+02  0.41800000000E+01 0.  1.
        -11    1    4    4    0    0  0.16047110920E+02 -0.42059515309E+02  0.44035520573E+02  0.62973325059E+02  0.00000000000E+00 0.  1.
         11    1    4    4    0    0  0.10506675733E+02  0.43055694003E+02  0.80221316951E+02  0.91649564726E+02  0.00000000000E+00 0. -1.
</event>
<event>
 8    1  0.3654190E-009  0.8388356E+02  0.7561462E-02  0.1318378E+00
         -4   -1    0    0    0  501 -0.00000000000E+00  0.00000000000E+00  0.17411321523E+02  0.17411321523E+02  0.00000000000E+00 0.  1.
          4   -1    0    0  501    0  0.00000000000E+00 -0.00000000000E+00 -0.81083894405E+03  0.81083894405E+03  0.00000000000E+00 0. -1.
         25    2    1    2    0    0 -0.44198268959E+02  0.64062906194E+01 -0.50818034125E+03  0.52525161910E+03  0.12508987407E+03 0.  0.
         23    2    1    2    0    0  0.44198268959E+02 -0.64062906194E+01 -0.28524728127E+03  0.30299864647E+03  0.91911048039E+02 0.  0.
          5    1    3    3  502    0 -0.35663501269E+01 -0.17472867086E+02 -0.44949729426E+03  0.44987032563E+03  0.41800000000E+01 0.  1.
         -5    1    3    3    0  502 -0.40631918832E+02  0.23879157705E+02 -0.58683046993E+02  0.75381293469E+02  0.41800000000E+01 0.  1.
        -11    1    4    4    0    0  0.67603315684E+02  0.16285389640E+02 -0.18971193300E+03  0.20205454642E+03  0.00000000000E+00 0. -1.
         11    1    4    4    0    0 -0.23405046725E+02 -0.22691680260E+02 -0.95535348273E+02  0.10094410005E+03  0.00000000000E+00 0.  1.
</event>
<event>
 8    1  0.3654190E-009  0.7354290E+02  0.7561462E-02  0.1348443E+00
          1   -1    0    0  501    0  0.00000000000E+00  0.00000000000E+00  0.44056400222E+02  0.44056400222E+02  0.00000000000E+00 0. -1.
         -1   -1    0    0    0  501 -0.00000000000E+00 -0.00000000000E+00 -0.35995996069E+03  0.35995996069E+03  0.00000000000E+00 0.  1.
         25    2    1    2    0    0  0.39332157612E+01  0.21602160446E+02 -0.77612963559E+02  0.14883739475E+03  0.12508666772E+03 0.  0.
         23    2    1    2    0    0 -0.39332157612E+01 -0.21602160446E+02 -0.23829059691E+03  0.25517896617E+03  0.88610228955E+02 0.  0.
          5    1    3    3  502    0  0.39000383585E+02  0.10367349454E+02 -0.98336719817E+02  0.10637713438E+03  0.41800000000E+01 0. -1.
         -5    1    3    3    0  502 -0.35067167824E+02  0.11234810992E+02  0.20723756257E+02  0.42460260369E+02  0.41800000000E+01 0. -1.
        -11    1    4    4    0    0 -0.33224740062E+02 -0.22540379475E+02 -0.21212597298E+03  0.21589205745E+03  0.00000000000E+00 0.  1.
         11    1    4    4    0    0  0.29291524301E+02  0.93821902977E+00 -0.26164623935E+02  0.39286908717E+02  0.00000000000E+00 0. -1.
</event>
<event>
 8    1  0.3654190E-009  0.1201870E+03  0.7561462E-02  0.1242789E+00
          2   -1    0    0  501    0  0.00000000000E+00  0.00000000000E+00  0.11162236779E+04  0.11162236779E+04  0.00000000000E+00 0. -1.
         -2   -1    0    0    0  501 -0.00000000000E+00 -0.00000000000E+00 -0.14992638750E+02  0.14992638750E+02  0.00000000000E+00 0.  1.
         25    2    1    2    0    0  0.49808220817E+02  0.51568846916E+02  0.68198708864E+03  0.69706091380E+03  0.12508926272E+03 0.  0.
         23    2    1    2    0    0 -0.49808220817E+02 -0.51568846916E+02  0.41924395053E+03  0.43415540286E+03  0.87093162467E+02 0.  0.
          5    1    3    3  502    0 -0.17152871039E+02 -0.31257970807E+02  0.22212206142E+03  0.22500436506E+03  0.41800000000E+01 0.  1.
         -5    1    3    3    0  502  0.66961091855E+02  0.82826817724E+02  0.45986502722E+03  0.47205654875E+03  0.41800000000E+01 0.  1.
        -11    1    4    4    0    0 -0.30974276325E+02  0.10745974388E+02  0.54139267395E+02  0.63292511670E+02  0.00000000000E+00 0.  1.
         11    1    4    4    0    0 -0.18833944491E+02 -0.62314821304E+02  0.36510468313E+03  0.37086289119E+03  0.00000000000E+00 0. -1.
</event>
<event>
 8    1  0.3654190E-009  0.1317360E+03  0.7561462E-02  0.1224902E+00
          2   -1    0    0  501    0  0.00000000000E+00  0.00000000000E+00  0.86874731071E+03  0.86874731071E+03  0.00000000000E+00 0.  1.
         -2   -1    0    0    0  501 -0.00000000000E+00 -0.00000000000E+00 -0.23580470016E+02  0.23580470016E+02  0.00000000000E+00 0. -1.
         25    2    1    2    0    0 -0.81656742720E+02  0.29706484346E+01  0.59963869949E+03  0.61797301881E+03  0.12508970249E+03 0.  0.
         23    2    1    2    0    0  0.81656742720E+02 -0.29706484346E+01  0.24552814120E+03  0.27435476191E+03  0.91158207957E+02 0.  0.
          5    1    3    3  502    0 -0.60603036599E+02  0.58205419792E+02  0.43334687833E+03  0.44143809113E+03  0.41800000000E+01 0. -1.
         -5    1    3    3    0  502 -0.21053706121E+02 -0.55234771357E+02  0.16629182116E+03  0.17653492769E+03  0.41800000000E+01 0. -1.
        -11    1    4    4    0    0  0.44614792424E+02 -0.45472024948E+02  0.10334002817E+03  0.12139747187E+03  0.00000000000E+00 0.  1.
         11    1    4    4    0    0  0.37041950295E+02  0.42501376513E+02  0.14218811303E+03  0.15295729004E+03  0.00000000000E+00 0. -1.
</event>
<event>
 8    1  0.3654190E-009  0.8201804E+02  0.7561462E-02  0.1323420E+00
         -1   -1    0    0    0  501 -0.00000000000E+00  0.00000000000E+00  0.17586216360E+03  0.17586216360E+03  0.00000000000E+00 0.  1.
          1   -1    0    0  501    0  0.00000000000E+00 -0.00000000000E+00 -0.72219643882E+02  0.72219643882E+02  0.00000000000E+00 0. -1.
         25    2    1    2    0    0 -0.15377646160E+02  0.75486407330E+01  0.32087779225E+02  0.13026909801E+03  0.12508780254E+03 0.  0.
         23    2    1    2    0    0  0.15377646160E+02 -0.75486407330E+01  0.71554740490E+02  0.11781270946E+03  0.92012497230E+02 0.  0.
          5    1    3    3  502    0 -0.23192277844E+01  0.65956412660E+02  0.19778728282E+02  0.69023892102E+02  0.41800000000E+01 0. -1.
         -5    1    3    3    0  502 -0.13058418376E+02 -0.58407771927E+02  0.12309050942E+02  0.61245205911E+02  0.41800000000E+01 0. -1.
        -11    1    4    4    0    0 -0.34611706273E+00  0.12459275368E+02 -0.19569685283E+02  0.23201851689E+02  0.00000000000E+00 0. -1.
         11    1    4    4    0    0  0.15723763223E+02 -0.20007916101E+02  0.91124425773E+02  0.94610857776E+02  0.00000000000E+00 0.  1.
</event>
<event>
 8    1  0.3654190E-009  0.1038755E+03  0.7561462E-02  0.1272351E+00
          2   -1    0    0  501    0  0.00000000000E+00  0.00000000000E+00  0.59951677489E+03  0.59951677489E+03  0.00000000000E+00 0. -1.
         -2   -1    0    0    0  501 -0.00000000000E+00 -0.00000000000E+00 -0.39560399837E+02  0.39560399837E+02  0.00000000000E+00 0.  1.
         25    2    1    2    0    0  0.76043211717E+02  0.69896410638E+02  0.37449196828E+03  0.40811831361E+03  0.12509294676E+03 0.  0.
         23    2    1    2    0    0 -0.76043211717E+02 -0.69896410638E+02  0.18546440678E+03  0.23095886112E+03  0.90977310805E+02 0.  0.
          5    1    3    3  502    0  0.31727207813E+02  0.25543905702E+02  0.32648128522E+03  0.32903891690E+03  0.41800000000E+01 0. -1.
         -5    1    3    3    0  502  0.44316003904E+02  0.44352504936E+02  0.48010683056E+02  0.79079396707E+02  0.41800000000E+01 0. -1.
        -11    1    4    4    0    0 -0.36346734240E+02 -0.41463686068E+02  0.17153944216E+03  0.18018352469E+03  0.00000000000E+00 0.  1.
         11    1    4    4    0    0 -0.39696477477E+02 -0.28432724569E+02  0.13924964618E+02  0.50775336436E+02  0.00000000000E+00 0. -1.
</event>
<event>
 8    1  0.3654190E-009  0.2067138E+03  0.7561462E-02  0.1144195E+00
         -2   -1    0    0    0  501 -0.00000000000E+00  0.00000000000E+00  0.38023838218E+02  0.38023838218E+02  0.00000000000E+00 0.  1.
          2   -1    0    0  501    0  0.00000000000E+00 -0.00000000000E+00 -0.13027306157E+04  0.13027306157E+04  0.00000000000E+00 0. -1.
         25    2    1    2    0    0 -0.77847577361E+02  0.17667435159E+03 -0.71047006614E+03  0.74678623757E+03  0.12509155820E+03 0.  0.
         23    2    1    2    0    0  0.77847577361E+02 -0.17667435159E+03 -0.55423671138E+03  0.59396821638E+03  0.91355558255E+02 0.  0.
          5    1    3    3  502    0 -0.92007993263E+02  0.81321859583E+02 -0.50584515163E+03  0.52055307654E+03  0.41800000000E+01 0. -1.
         -5    1    3    3    0  502  0.14160415902E+02  0.95352492007E+02 -0.20462491451E+03  0.22623316103E+03  0.41800000000E+01 0. -1.
        -11    1    4    4    0    0  0.48888214486E+02 -0.86471873550E+02 -0.15854487816E+03  0.18709334788E+03  0.00000000000E+00 0.  1.
         11    1    4    4    0    0  0.28959362875E+02 -0.90202478039E+02 -0.39569183322E+03  0.40687486850E+03  0.00000000000E+00 0. -1.
</event>
<event>
 8    1  0.3654190E-009  0.8808861E+02  0.7561462E-02  0.1307548E+00
         -2   -1    0    0    0  501 -0.00000000000E+00  0.00000000000E+00  0.21209671251E+02  0.21209671251E+02  0.00000000000E+00 0.  1.
          2   -1    0    0  501    0  0.00000000000E+00 -0.00000000000E+00 -0.72993809044E+03  0.72993809044E+03  0.00000000000E+00 0. -1.
         25    2    1    2    0    0  0.25853054023E+02 -0.44777723027E+02 -0.29288289171E+03  0.32264873831E+03  0.12509354577E+03 0.  0.
         23    2    1    2    0    0 -0.25853054023E+02  0.44777723027E+02 -0.41584552748E+03  0.42849902338E+03  0.89501315259E+02 0.  0.
          5    1    3    3  502    0 -0.21210200462E+02 -0.27749609880E+02 -0.26055861682E+03  0.26292238142E+03  0.41800000000E+01 0. -1.
         -5    1    3    3    0  502  0.47063254485E+02 -0.17028113148E+02 -0.32324274890E+02  0.59726356889E+02  0.41800000000E+01 0. -1.
        -11    1    4    4    0    0  0.56622637198E+01 -0.18898773462E+02 -0.28320793444E+02  0.34515101189E+02  0.00000000000E+00 0.  1.
         11    1    4    4    0    0 -0.31515317743E+02  0.63676496489E+02 -0.38752473404E+03  0.39398392219E+03  0.00000000000E+00 0. -1.
</event>
<event>
 8    1  0.3654190E-009  0.2103114E+03  0.7561462E-02  0.1141320E+00
          2   -1    0    0  501    0  0.00000000000E+00  0.00000000000E+00  0.11005670865E+04  0.11005670865E+04  0.00000000000E+00 0. -1.
         -2   -1    0    0    0  501 -0.00000000000E+00 -0.00000000000E+00 -0.42272558825E+02  0.42272558825E+02  0.00000000000E+00 0.  1.
         25    2    1    2    0    0 -0.11803797277E+03 -0.14100923459E+03  0.62441352486E+03  0.66284018400E+03  0.12509313425E+03 0.  0.
         23    2    1    2    0    0  0.11803797277E+03  0.14100923459E+03  0.43388100282E+03  0.47999946134E+03  0.91269880114E+02 0.  0.
          5    1    3    3  502    0 -0.12576429042E+03 -0.66006456229E+02  0.33833371696E+03  0.36696142228E+03  0.41800000000E+01 0.  1.
         -5    1    3    3    0  502  0.77263176567E+01 -0.75002778365E+02  0.28607980790E+03  0.29587876172E+03  0.41800000000E+01 0.  1.
        -11    1    4    4    0    0  0.94491166629E+02  0.45933397047E+02  0.26005815559E+03  0.28047941426E+03  0.00000000000E+00 0. -1.
         11    1    4    4    0    0  0.23546806138E+02  0.95075837547E+02  0.17382284723E+03  0.19952004708E+03  0.00000000000E+00 0.  1.
</event>
<event>
 8    1  0.3654190E-009  0.1127645E+03  0.7561462E-02  0.1255534E+00
         -1   -1    0    0    0  501 -0.00000000000E+00  0.00000000000E+00  0.39815040369E+02  0.39815040369E+02  0.00000000000E+00 0.  1.
          1   -1    0    0  501    0  0.00000000000E+00 -0.00000000000E+00 -0.45440368829E+03  0.45440368829E+03  0.00000000000E+00 0. -1.
         25    2    1    2    0    0  0.43602700370E+02  0.41449832556E+02 -0.13122601918E+03  0.19101637592E+03  0.12509078168E+03 0.  0.
         23    2    1    2    0    0 -0.43602700370E+02 -0.41449832556E+02 -0.28336262874E+03  0.30320235274E+03  0.89543303723E+02 0.  0.
          5    1    3    3  502    0 -0.26254820508E+02  0.49476326020E+02 -0.20515833609E+02  0.59796273003E+02  0.41800000000E+01 0. -1.
         -5    1    3    3    0  502  0.69857520878E+02 -0.80264934635E+01 -0.11071018558E+03  0.13122010292E+03  0.41800000000E+01 0. -1.
        -11    1    4    4    0    0 -0.66346452656E+02 -0.25210137448E+02 -0.13804470888E+03  0.15522159791E+03  0.00000000000E+00 0.  1.
         11    1    4    4    0    0  0.22743752286E+02 -0.16239695108E+02 -0.14531791986E+03  0.14798075482E+03  0.00000000000E+00 0. -1.
</event>
<event>
 8    1  0.3654190E-009  0.1841265E+03  0.7561462E-02  0.1163868E+00
          2   -1    0    0  501    0  0.00000000000E+00  0.00000000000E+00  0.28430268021E+04  0.28430268021E+04  0.00000000000E+00 0. -1.
         -2   -1    0    0    0  501 -0.00000000000E+00 -0.00000000000E+00 -0.16284917174E+02  0.16284917174E+02  0.00000000000E+00 0.  1.
         25    2    1    2    0    0  0.74842994180E+02 -0.15110234720E+03  0.19821574100E+04  0.19932456990E+04  0.12508807168E+03 0.  0.
         23    2    1    2    0    0 -0.74842994180E+02  0.15110234720E+03  0.84458447491E+03  0.86606602020E+03  0.91181264421E+02 0.  0.
          5    1    3    3  502    0  0.90387139981E+02 -0.14844197477E+03  0.19438564414E+04  0.19516147653E+04  0.41800000000E+01 0. -1.
         -5    1    3    3    0  502 -0.15544145801E+02 -0.26603724308E+01  0.38300968626E+02  0.41630933785E+02  0.41800000000E+01 0. -1.
        -11    1    4    4    0    0 -0.80536955829E+02  0.10856656830E+03  0.75155636170E+03  0.76361630799E+03  0.00000000000E+00 0. -1.
         11    1    4    4    0    0  0.56939616497E+01  0.42535778902E+02  0.93028113202E+02  0.10244971221E+03  0.00000000000E+00 0.  1.
</event>
<event>
 8    1  0.3654190E-009  0.8996569E+02  0.7561462E-02  0.1302935E+00
          4   -1    0    0  501    0  0.00000000000E+00  0.00000000000E+00  0.50786177270E+02  0.50786177270E+02  0.00000000000E+00 0. -1.
         -4   -1    0    0    0  501 -0.00000000000E+00 -0.00000000000E+00 -0.41723159626E+03  0.41723159626E+03  0.00000000000E+00 0.  1.
         25    2    1    2    0    0  0.63952100191E+02  0.19288632363E+02 -0.92640307555E+02  0.16938597388E+03  0.12508980417E+03 0.  0.
         23    2    1    2    0    0 -0.63952100191E+02 -0.19288632363E+02 -0.27380511143E+03  0.29863179964E+03  0.98741026197E+02 0.  0.
          5    1    3    3  502    0  0.84094012355E+01  0.38021244454E+02  0.18768224683E+02  0.43428696927E+02  0.41800000000E+01 0.  1.
         -5    1    3    3    0  502  0.55542698956E+02 -0.18732612091E+02 -0.11140853224E+03  0.12595727696E+03  0.41800000000E+01 0.  1.
        -11    1    4    4    0    0 -0.47529714079E+02 -0.35193030409E+02 -0.26879972240E+03  0.27522883910E+03  0.00000000000E+00 0.  1.
         11    1    4    4    0    0 -0.16422386113E+02  0.15904398046E+02 -0.50053890316E+01  0.23402960543E+02  0.00000000000E+00 0. -1.
</event>
<event>
 8    1  0.3654190E-009  0.1120519E+03  0.7561462E-02  0.1256817E+00
         -2   -1    0    0    0  501 -0.00000000000E+00  0.00000000000E+00  0.10338758496E+02  0.10338758496E+02  0.00000000000E+00 0.  1.
          2   -1    0    0  501    0  0.00000000000E+00 -0.00000000000E+00 -0.22693659364E+04  0.22693659364E+04  0.00000000000E+00 0. -1.
         25    2    1    2    0    0  0.67438018398E+02 -0.54344691153E+02 -0.16366130272E+04  0.16436696118E+04  0.12508541153E+03 0.  0.
         23    2    1    2    0    0 -0.67438018398E+02  0.54344691153E+02 -0.62241415073E+03  0.63603508312E+03  0.98183604270E+02 0.  0.
          5    1    3    3  502    0  0.29829930095E+02 -0.45194112076E+02 -0.15150888282E+04  0.15160619915E+04  0.41800000000E+01 0. -1.
         -5    1    3    3    0  502  0.37608088303E+02 -0.91505790765E+01 -0.12152419903E+03  0.12760762028E+03  0.41800000000E+01 0. -1.
        -11    1    4    4    0    0 -0.18357814755E+01 -0.26604132970E+02 -0.11904668147E+03  0.12199697683E+03  0.00000000000E+00 0.  1.
         11    1    4    4    0    0 -0.65602236923E+02  0.80948824123E+02 -0.50336746925E+03  0.51403810629E+03  0.00000000000E+00 0. -1.
</event>
<event>
 8    1  0.3654190E-009  0.8263273E+02  0.7561462E-02  0.1321742E+00
          1   -1    0    0  501    0  0.00000000000E+00  0.00000000000E+00  0.80464928869E+03  0.80464928869E+03  0.00000000000E+00 0. -1.
         -1   -1    0    0    0  501 -0.00000000000E+00 -0.00000000000E+00 -0.21265127430E+02  0.21265127430E+02  0.00000000000E+00 0.  1.
         25    2    1    2    0    0  0.57473344639E+02 -0.10662921995E+02  0.57460932435E+03  0.59096543887E+03  0.12508953216E+03 0.  0.
         23    2    1    2    0    0 -0.57473344639E+02  0.10662921995E+02  0.20877483691E+03  0.23494897725E+03  0.90538423531E+02 0.  0.
          5    1    3    3  502    0 -0.84381972268E+00 -0.45240916253E+01 -0.52478282424E+01  0.81358182146E+01  0.41800000000E+01 0. -1.
         -5    1    3    3    0  502  0.58317164362E+02 -0.61388303697E+01  0.57985715259E+03  0.58282962065E+03  0.41800000000E+01 0. -1.
        -11    1    4    4    0    0 -0.75771947103E+02 -0.53279787666E+01  0.18874766811E+03  0.20345873671E+03  0.00000000000E+00 0. -1.
         11    1    4    4    0    0  0.18298602464E+02  0.15990900762E+02  0.20027168793E+02  0.31490240538E+02  0.00000000000E+00 0.  1.
</event>
<event>
 8    1  0.3654190E-009  0.1401777E+03  0.7561462E-02  0.1213090E+00
          2   -1    0    0  501    0  0.00000000000E+00  0.00000000000E+00  0.77527664874E+03  0.77527664874E+03  0.00000000000E+00 0. -1.
         -2   -1    0    0    0  501 -0.00000000000E+00 -0.00000000000E+00 -0.34407693767E+02  0.34407693767E+02  0.00000000000E+00 0.  1.
         25    2    1    2    0    0  0.61622727765E+02  0.80618123244E+02  0.22898325816E+03  0.27995985395E+03  0.12509014723E+03 0.  0.
         23    2    1    2    0    0 -0.61622727765E+02 -0.80618123244E+02  0.51188569681E+03  0.52972448856E+03  0.91018815665E+02 0.  0.
          5    1    3    3  502    0  0.91008443990E+02  0.72164167623E+02  0.21828277459E+03  0.24729546306E+03  0.41800000000E+01 0. -1.
         -5    1    3    3    0  502 -0.29385716225E+02  0.84539556212E+01  0.10700483571E+02  0.32664390892E+02  0.41800000000E+01 0. -1.
        -11    1    4    4    0    0  0.12703432013E+02 -0.52157246059E+02  0.26300880538E+03  0.26843134543E+03  0.00000000000E+00 0.  1.
         11    1    4    4    0    0 -0.74326159778E+02 -0.28460877184E+02  0.24887689143E+03  0.26129314313E+03  0.00000000000E+00 0. -1.
</event>
<event>
 8    1  0.3654190E-009  0.8589711E+02  0.7561462E-02  0.1313103E+00
          2   -1    0    0  501    0  0.00000000000E+00  0.00000000000E+00  0.91643775120E+03  0.91643775120E+03  0.00000000000E+00 0. -1.
         -2   -1    0    0    0  501 -0.00000000000E+00 -0.00000000000E+00 -0.13923968888E+02  0.13923968888E+02  0.00000000000E+00 0.  1.
         25    2    1    2    0    0  0.25313397850E+02  0.16735497580E+02  0.45871459811E+03  0.47643121917E+03  0.12508708601E+03 0.  0.
         23    2    1    2    0    0 -0.25313397850E+02 -0.16735497580E+02  0.44379918419E+03  0.45393050091E+03  0.90412049969E+02 0.  0.
          5    1    3    3  502    0  0.37135016834E+02 -0.16570060345E+02  0.42641949601E+03  0.42837441024E+03  0.41800000000E+01 0.  1.
         -5    1    3    3    0  502 -0.11821618983E+02  0.33305557926E+02  0.32295102104E+02  0.48056808925E+02  0.41800000000E+01 0.  1.
        -11    1    4    4    0    0  0.19202499276E+02  0.26861583592E+02  0.16008181445E+03  0.16345172978E+03  0.00000000000E+00 0. -1.
         11    1    4    4    0    0 -0.44515897126E+02 -0.43597081172E+02  0.28371736974E+03  0.29047877113E+03  0.00000000000E+00 0.  1.
</event>
<event>
 8    1  0.3654190E-009  0.9068080E+02  0.7561462E-02  0.1301211E+00
         -3   -1    0    0    0  501 -0.00000000000E+00  0.00000000000E+00  0.18944924508E+02  0.18944924508E+02  0.00000000000E+00 0.  1.
          3   -1    0    0  501    0  0.00000000000E+00 -0.00000000000E+00 -0.60258154138E+03  0.60258154138E+03  0.00000000000E+00 0. -1.
         25    2    1    2    0    0  0.22728542293E+02  0.10862332768E+01 -0.33460922479E+03  0.35795237415E+03  0.12509517301E+03 0.  0.
         23    2    1    2    0    0 -0.22728542293E+02 -0.10862332768E+01 -0.24902739208E+03  0.26357409174E+03  0.83300019741E+02 0.  0.
          5    1    3    3  502    0  0.85891276246E+01 -0.49032774429E+02 -0.27134785584E+03  0.27590780589E+03  0.41800000000E+01 0.  1.
         -5    1    3    3    0  502  0.14139414669E+02  0.50119007706E+02 -0.63261368953E+02  0.82044568269E+02  0.41800000000E+01 0.  1.
        -11    1    4    4    0    0  0.20639516015E+02  0.21889877291E+02 -0.48056140965E+02  0.56696993162E+02  0.00000000000E+00 0. -1.
         11    1    4    4    0    0 -0.43368058308E+02 -0.22976110568E+02 -0.20097125112E+03  0.20687709857E+03  0.00000000000E+00 0.  1.
</event>
<event>
 8    1  0.3654190E-009  0.1269447E+03  0.7561462E-02  0.1232061E+00
         -2   -1    0    0    0  501 -0.00000000000E+00  0.00000000000E+00  0.44436437040E+02  0.44436437040E+02  0.00000000000E+00 0.  1.
          2   -1    0    0  501    0  0.00000000000E+00 -0.00000000000E+00 -0.36903517185E+03  0.36903517185E+03  0.00000000000E+00 0. -1.
         25    2    1    2    0    0  0.37968651344E+02 -0.54686457117E+02 -0.15415713287E+03  0.20939126006E+03  0.12509217040E+03 0.  0.
         23    2    1    2    0    0 -0.37968651344E+02  0.54686457117E+02 -0.17044160193E+03  0.20408034883E+03  0.90367151286E+02 0.  0.
          5    1    3    3  502    0 -0.45963003536E+02 -0.13561299756E+02 -0.49943263284E+02  0.69341967758E+02  0.41800000000E+01 0.  1.
         -5    1    3    3    0  502  0.83931654880E+02 -0.41125157362E+02 -0.10421386959E+03  0.14004929230E+03  0.41800000000E+01 0.  1.
        -11    1    4    4    0    0 -0.44614757740E+02  0.76974167538E+02 -0.13651043989E+03  0.16294354629E+03  0.00000000000E+00 0.  1.
         11    1    4    4    0    0  0.66461063962E+01 -0.22287710421E+02 -0.33931162038E+02  0.41136802541E+02  0.00000000000E+00 0. -1.
</event>
<event>
 8    1  0.3654190E-009  0.9082687E+02  0.7561462E-02  0.1300862E+00
          1   -1    0    0  501    0  0.00000000000E+00  0.00000000000E+00  0.57574730088E+02  0.57574730088E+02  0.00000000000E+00 0. -1.
         -1   -1    0    0    0  501 -0.00000000000E+00 -0.00000000000E+00 -0.36999822858E+03  0.36999822858E+03  0.00000000000E+00 0.  1.
         25    2    1    2    0    0  0.24653921556E+02  0.47170493344E+02 -0.28909008067E+03  0.31945821688E+03  0.12509039251E+03 0.  0.
         23    2    1    2    0    0 -0.24653921556E+02 -0.47170493344E+02 -0.23333417826E+02  0.10811474180E+03  0.91167306177E+02 0.  0.
          5    1    3    3  502    0 -0.29994326344E+02  0.11184455365E+02 -0.22658213317E+03  0.22887045927E+03  0.41800000000E+01 0.  1.
         -5    1    3    3    0  502  0.54648247900E+02  0.35986037979E+02 -0.62507947504E+02  0.90587757612E+02  0.41800000000E+01 0.  1.
        -11    1    4    4    0    0 -0.28707262095E+02 -0.62057278291E+02  0.12127547236E+02  0.69442710833E+02  0.00000000000E+00 0. -1.
         11    1    4    4    0    0  0.40533405393E+01  0.14886784947E+02 -0.35460965063E+02  0.38672030962E+02  0.00000000000E+00 0.  1.
</event>
<event>
 8    1  0.3654190E-009  0.1554808E+03  0.7561462E-02  0.1193895E+00
         -1   -1    0    0    0  501 -0.00000000000E+00  0.00000000000E+00  0.37855461032E+03  0.37855461032E+03  0.00000000000E+00 0.  1.
          1   -1    0    0  501    0  0.00000000000E+00 -0.00000000000E+00 -0.92022470068E+02  0.92022470068E+02  0.00000000000E+00 0. -1.
         25    2    1    2    0    0  0.12940750366E+03  0.45897437637E+02  0.23228170055E+03  0.29741686433E+03  0.12509646674E+03 0.  0.
         23    2    1    2    0    0 -0.12940750366E+03 -0.45897437637E+02  0.54250439699E+02  0.17316021606E+03  0.90490184175E+02 0.  0.
          5    1    3    3  502    0  0.82063724431E+02  0.60952664059E+02  0.22482222775E+03  0.24700645460E+03  0.41800000000E+01 0. -1.
         -5    1    3    3    0  502  0.47343779230E+02 -0.15055226422E+02  0.74594727988E+01  0.50410409727E+02  0.41800000000E+01 0. -1.
        -11    1    4    4    0    0 -0.62427890582E+02  0.19281965632E+02  0.44805875227E+02  0.79225009788E+02  0.00000000000E+00 0.  1.
         11    1    4    4    0    0 -0.66979613079E+02 -0.65179403269E+02  0.94445644714E+01  0.93935206269E+02  0.00000000000E+00 0. -1.
</event>
<event>
 8    1  0.3654190E-009  0.2007692E+03  0.7561462E-02  0.1149092E+00
          2   -1    0    0  501    0  0.00000000000E+00  0.00000000000E+00  0.13306581962E+04  0.13306581962E+04  0.00000000000E+00 0. -1.
         -2   -1    0    0    0  501 -0.00000000000E+00 -0.00000000000E+00 -0.40565227227E+02  0.40565227227E+02  0.00000000000E+00 0.  1.
         25    2    1    2    0    0  0.26768255186E+02  0.19223586098E+03  0.86267750445E+03  0.89304807498E+03  0.12510484327E+03 0.  0.
         23    2    1    2    0    0 -0.26768255186E+02 -0.19223586098E+03  0.42741546449E+03  0.47817534841E+03  0.91085228304E+02 0.  0.
          5    1    3    3  502    0 -0.25980539311E+01  0.22966642718E+02  0.14426778965E+02  0.27564849233E+02  0.41800000000E+01 0.  1.
         -5    1    3    3    0  502  0.29366309117E+02  0.16926921826E+03  0.84825072549E+03  0.86548322575E+03  0.41800000000E+01 0.  1.
        -11    1    4    4    0    0 -0.42782457031E+02 -0.18252832324E+03  0.41587396174E+03  0.45617768410E+03  0.00000000000E+00 0. -1.
         11    1    4    4    0    0  0.16014201846E+02 -0.97075377341E+01  0.11541502747E+02  0.21997664314E+02  0.00000000000E+00 0.  1.
</event>
<event>
 8    1  0.3654190E-009  0.2817511E+03  0.7561462E-02  0.1094736E+00
          2   -1    0    0  501    0  0.00000000000E+00  0.00000000000E+00  0.11275403371E+04  0.11275403371E+04  0.00000000000E+00 0. -1.
         -2   -1    0    0    0  501 -0.00000000000E+00 -0.00000000000E+00 -0.98341253787E+02  0.98341253787E+02  0.00000000000E+00 0.  1.
         25    2    1    2    0    0 -0.23262778775E+03  0.12956124362E+03  0.21436920833E+03  0.36401189072E+03  0.12509474659E+03 0.  0.
         23    2    1    2    0    0  0.23262778775E+03 -0.12956124362E+03  0.81482987496E+03  0.86186970015E+03  0.89274024296E+02 0.  0.
          5    1    3    3  502    0 -0.15776138769E+03  0.32056222077E+02  0.16756754390E+03  0.23240613372E+03  0.41800000000E+01 0. -1.
         -5    1    3    3    0  502 -0.74866400067E+02  0.97505021540E+02  0.46801664428E+02  0.13160575701E+03  0.41800000000E+01 0. -1.
        -11    1    4    4    0    0  0.11317350545E+03 -0.11109153558E+03  0.41955695982E+03  0.44852827575E+03  0.00000000000E+00 0. -1.
         11    1    4    4    0    0  0.11945428230E+03 -0.18469708033E+02  0.39527291515E+03  0.41334142440E+03  0.00000000000E+00 0.  1.
</event>
<event>
 8    1  0.3654190E-009  0.1458782E+03  0.7561462E-02  0.1205631E+00
         -2   -1    0    0    0  501 -0.00000000000E+00  0.00000000000E+00  0.35326118982E+02  0.35326118982E+02  0.00000000000E+00 0.  1.
          2   -1    0    0  501    0  0.00000000000E+00 -0.00000000000E+00 -0.64091705048E+03  0.64091705048E+03  0.00000000000E+00 0. -1.
         25    2    1    2    0    0  0.80578046098E+02 -0.66021523945E+02 -0.28319841115E+03  0.32665590799E+03  0.12510427254E+03 0.  0.
         23    2    1    2    0    0 -0.80578046098E+02  0.66021523945E+02 -0.32239252035E+03  0.34958726148E+03  0.86154820367E+02 0.  0.
          5    1    3    3  502    0  0.10827880731E+03 -0.26451183488E+02 -0.16784219188E+03  0.20152528128E+03  0.41800000000E+01 0. -1.
         -5    1    3    3    0  502 -0.27700761212E+02 -0.39570340458E+02 -0.11535621927E+03  0.12513062670E+03  0.41800000000E+01 0. -1.
        -11    1    4    4    0    0 -0.47177180772E+02 -0.10418023586E+02 -0.82511285180E+02  0.95615551994E+02  0.00000000000E+00 0.  1.
         11    1    4    4    0    0 -0.33400865326E+02  0.76439547531E+02 -0.23988123517E+03  0.25397170948E+03  0.00000000000E+00 0. -1.
</event>
<event>
 8    1  0.3654190E-009  0.9966290E+02  0.7561462E-02  0.1281006E+00
         -1   -1    0    0    0  501 -0.00000000000E+00  0.00000000000E+00  0.37181077525E+02  0.37181077525E+02  0.00000000000E+00 0.  1.
          1   -1    0    0  501    0  0.00000000000E+00 -0.00000000000E+00 -0.50163089341E+03  0.50163089341E+03  0.00000000000E+00 0. -1.
         25    2    1    2    0    0  0.25736983178E+02 -0.45580224596E+02 -0.12538499849E+03  0.18468471988E+03  0.12508836370E+03 0.  0.
         23    2    1    2    0    0 -0.25736983178E+02  0.45580224596E+02 -0.33906481739E+03  0.35412725105E+03  0.87756540319E+02 0.  0.
          5    1    3    3  502    0  0.42225095356E+02 -0.63991412332E+02 -0.13700745457E+03  0.15705532318E+03  0.41800000000E+01 0.  1.
         -5    1    3    3    0  502 -0.16488112177E+02  0.18411187736E+02  0.11622456076E+02  0.27629396705E+02  0.41800000000E+01 0.  1.
        -11    1    4    4    0    0 -0.51353478186E+02  0.79622697992E+01 -0.23274409601E+03  0.23847513851E+03  0.00000000000E+00 0. -1.
         11    1    4    4    0    0  0.25616495008E+02  0.37617954797E+02 -0.10632072138E+03  0.11565211254E+03  0.00000000000E+00 0.  1.
</event>
<event>
 8    1  0.3654190E-009  0.1062839E+03  0.7561462E-02  0.1267610E+00
         -2   -1    0    0    0  501 -0.00000000000E+00  0.00000000000E+00  0.70012537285E+02  0.70012537285E+02  0.00000000000E+00 0. -1.
          2   -1    0    0  501    0  0.00000000000E+00 -0.00000000000E+00 -0.23823964784E+03  0.23823964784E+03  0.00000000000E+00 0.  1.
         25    2    1    2    0    0  0.55752454812E+01 -0.63564110612E+02 -0.63619319277E+02  0.15416356441E+03  0.12508999675E+03 0.  0.
         23    2    1    2    0    0 -0.55752454812E+01  0.63564110612E+02 -0.10460779128E+03  0.15408862072E+03  0.93429296895E+02 0.  0.
          5    1    3    3  502    0  0.61140503364E+02 -0.49667860435E+02 -0.18226766272E+02  0.80961379190E+02  0.41800000000E+01 0.  1.
         -5    1    3    3    0  502 -0.55565257882E+02 -0.13896250177E+02 -0.45392553005E+02  0.73202185219E+02  0.41800000000E+01 0.  1.
        -11    1    4    4    0    0 -0.23689197694E+02  0.31287916132E+02 -0.10990345164E+03  0.11669995915E+03  0.00000000000E+00 0.  1.
         11    1    4    4    0    0  0.18113952213E+02  0.32276194480E+02  0.52956603640E+01  0.37388661564E+02  0.00000000000E+00 0. -1.
</event>
<event>
 8    1  0.3654190E-009  0.1465701E+03  0.7561462E-02  0.1204752E+00
          1   -1    0    0  501    0  0.00000000000E+00  0.00000000000E+00  0.34461869281E+02  0.34461869281E+02  0.00000000000E+00 0. -1.
         -1   -1    0    0    0  501 -0.00000000000E+00 -0.00000000000E+00 -0.77442185866E+03  0.77442185866E+03  0.00000000000E+00 0.  1.
         25    2    1    2    0    0 -0.17495079888E+02 -0.11626296290E+03 -0.48486401220E+03  0.51435755216E+03  0.12508967493E+03 0.  0.
         23    2    1    2    0    0  0.17495079888E+02  0.11626296290E+03 -0.25509597718E+03  0.29452617578E+03  0.88592078012E+02 0.  0.
          5    1    3    3  502    0 -0.14044741849E+02 -0.13382368386E+03 -0.30291871816E+03  0.33148643313E+03  0.41800000000E+01 0. -1.
         -5    1    3    3    0  502 -0.34503380390E+01  0.17560720958E+02 -0.18194529404E+03  0.18287111903E+03  0.41800000000E+01 0. -1.
        -11    1    4    4    0    0 -0.25798445784E+02  0.78701310616E+02 -0.19300494356E+03  0.21002467554E+03  0.00000000000E+00 0.  1.
         11    1    4    4    0    0  0.43293525672E+02  0.37561652282E+02 -0.62091033616E+02  0.84501500239E+02  0.00000000000E+00 0. -1.
</event>
<event>
 8    1  0.3654190E-009  0.1276264E+03  0.7561462E-02  0.1231021E+00
          1   -1    0    0  501    0  0.00000000000E+00  0.00000000000E+00  0.45239735655E+02  0.45239735655E+02  0.00000000000E+00 0. -1.
         -1   -1    0    0    0  501 -0.00000000000E+00 -0.00000000000E+00 -0.51679163648E+03  0.51679163648E+03  0.00000000000E+00 0.  1.
         25    2    1    2    0    0 -0.16054466141E+01 -0.70748328637E+02 -0.40351509078E+03  0.42834967112E+03  0.12510439159E+03 0.  0.
         23    2    1    2    0    0  0.16054466141E+01  0.70748328637E+02 -0.68036810046E+02  0.13368170102E+03  0.90740763727E+02 0.  0.
          5    1    3    3  502    0  0.41703818048E+02 -0.84880926793E+02 -0.31186698648E+03  0.32591788817E+03  0.41800000000E+01 0. -1.
         -5    1    3    3    0  502 -0.43309264662E+02  0.14132598156E+02 -0.91648104303E+02  0.10243178295E+03  0.41800000000E+01 0. -1.
        -11    1    4    4    0    0 -0.44293337747E+02  0.39154022080E+02 -0.39273250818E+02  0.70974118125E+02  0.00000000000E+00 0.  1.
         11    1    4    4    0    0  0.45898784361E+02  0.31594306558E+02 -0.28763559228E+02  0.62707582892E+02  0.00000000000E+00 0. -1.
</event>
<event>
 8    1  0.3654190E-009  0.1178612E+03  0.7561462E-02  0.1246668E+00
          1   -1    0    0  501    0  0.00000000000E+00  0.00000000000E+00  0.11835400199E+03  0.11835400199E+03  0.00000000000E+00 0. -1.
         -1   -1    0    0    0  501 -0.00000000000E+00 -0.00000000000E+00 -0.16469404221E+03  0.16469404221E+03  0.00000000000E+00 0.  1.
         25    2    1    2    0    0 -0.46980249660E+01 -0.86694466005E+02 -0.13216494831E+02  0.15284027363E+03  0.12508985424E+03 0.  0.
         23    2    1    2    0    0  0.46980249660E+01  0.86694466005E+02 -0.33123545386E+02  0.13020777057E+03  0.91207962279E+02 0.  0.
          5    1    3    3  502    0 -0.28658172751E+02 -0.90796457631E+02  0.32667480465E+02  0.10074683252E+03  0.41800000000E+01 0.  1.
         -5    1    3    3    0  502  0.23960147785E+02  0.41019916258E+01 -0.45883975296E+02  0.52093441105E+02  0.41800000000E+01 0.  1.
        -11    1    4    4    0    0 -0.11331272520E+02  0.96367656056E+02 -0.59561489701E+01  0.97214189197E+02  0.00000000000E+00 0. -1.
         11    1    4    4    0    0  0.16029297486E+02 -0.96731900515E+01 -0.27167396416E+02  0.32993581371E+02  0.00000000000E+00 0.  1.
</event>
<event>
 8    1  0.3654190E-009  0.8158523E+02  0.7561462E-02  0.1324612E+00
          3   -1    0    0  501    0  0.00000000000E+00  0.00000000000E+00  0.47127725916E+03  0.47127725916E+03  0.00000000000E+00 0. -1.
         -3   -1    0    0    0  501 -0.00000000000E+00 -0.00000000000E+00 -0.25778692847E+02  0.25778692847E+02  0.00000000000E+00 0.  1.
         25    2    1    2    0    0 -0.17433065552E+01  0.22525390410E+02  0.28274017096E+03  0.31000313339E+03  0.12509798603E+03 0.  0.
         23    2    1    2    0    0  0.17433065552E+01 -0.22525390410E+02  0.16275839536E+03  0.18705281862E+03  0.89375776155E+02 0.  0.
          5    1    3    3  502    0  0.16509447449E+02  0.48624782187E+02  0.27092023472E+03  0.27577559225E+03  0.41800000000E+01 0. -1.
         -5    1    3    3    0  502 -0.18252754005E+02 -0.26099391777E+02  0.11819936232E+02  0.34227541139E+02  0.41800000000E+01 0. -1.
        -11    1    4    4    0    0  0.35671891795E+02 -0.27756077703E+02  0.42684665790E+02  0.62168033645E+02  0.00000000000E+00 0.  1.
         11    1    4    4    0    0 -0.33928585240E+02  0.52306872928E+01  0.12007372957E+03  0.12488478498E+03  0.00000000000E+00 0. -1.
</event>
<event>
 8    1  0.3654190E-009  0.1178634E+03  0.7561462E-02  0.1246664E+00
          2   -1    0    0  501    0  0.00000000000E+00  0.00000000000E+00  0.16954185803E+03  0.16954185803E+03  0.00000000000E+00 0. -1.
         -2   -1    0    0    0  501 -0.00000000000E+00 -0.00000000000E+00 -0.13993391086E+03  0.13993391086E+03  0.00000000000E+00 0.  1.
         25    2    1    2    0    0  0.92499795525E+02 -0.98440674286E+01 -0.33495194842E+02  0.15944024857E+03  0.12508455920E+03 0.  0.
         23    2    1    2    0    0 -0.92499795525E+02  0.98440674286E+01  0.63103142012E+02  0.15003552032E+03  0.99375716300E+02 0.  0.
          5    1    3    3  502    0  0.10730332451E+03 -0.19949806188E+02  0.12465711718E+02  0.10993118114E+03  0.41800000000E+01 0. -1.
         -5    1    3    3    0  502 -0.14803528984E+02  0.10105738760E+02 -0.45960906560E+02  0.49509067433E+02  0.41800000000E+01 0. -1.
        -11    1    4    4    0    0 -0.33640964891E+02  0.30810690602E+02  0.73685985625E+02  0.86663935127E+02  0.00000000000E+00 0. -1.
         11    1    4    4    0    0 -0.58858830634E+02 -0.20966623174E+02 -0.10582843613E+02  0.63371585193E+02  0.00000000000E+00 0.  1.
</event>
<event>
 8    1  0.3654190E-009  0.8434560E+02  0.7561462E-02  0.1317153E+00
          2   -1    0    0  501    0  0.00000000000E+00  0.00000000000E+00  0.10500969449E+04  0.10500969449E+04  0.00000000000E+00 0. -1.
         -2   -1    0    0    0  501 -0.00000000000E+00 -0.00000000000E+00 -0.15222520332E+02  0.15222520332E+02  0.00000000000E+00 0.  1.
         25    2    1    2    0    0 -0.14544306102E+02 -0.48544939893E+02  0.73153120096E+03  0.74387783799E+03  0.12509273298E+03 0.  0.
         23    2    1    2    0    0  0.14544306102E+02  0.48544939893E+02  0.30334322358E+03  0.32144162722E+03  0.93485081090E+02 0.  0.
          5    1    3    3  502    0 -0.11084016333E+02 -0.55127829619E+02  0.12323939236E+03  0.13552620870E+03  0.41800000000E+01 0.  1.
         -5    1    3    3    0  502 -0.34602897693E+01  0.65828897259E+01  0.60829180860E+03  0.60835162929E+03  0.41800000000E+01 0.  1.
        -11    1    4    4    0    0 -0.38472981758E+02  0.16816366288E+02  0.15857660287E+03  0.16404115178E+03  0.00000000000E+00 0. -1.
         11    1    4    4    0    0  0.53017287860E+02  0.31728573605E+02  0.14476662072E+03  0.15740047544E+03  0.00000000000E+00 0.  1.
</event>
<event>
 8    1  0.3654190E-009  0.2021832E+03  0.7561462E-02  0.1147910E+00
         -2   -1    0    0    0  501 -0.00000000000E+00  0.00000000000E+00  0.14681860319E+02  0.14681860319E+02  0.00000000000E+00 0.  1.
          2   -1    0    0  501    0  0.00000000000E+00 -0.00000000000E+00 -0.41815880345E+04  0.41815880345E+04  0.00000000000E+00 0. -1.
         25    2    1    2    0    0 -0.18472167911E+03 -0.26181868313E+02 -0.31711939048E+04  0.31791391088E+04  0.12508837910E+03 0.  0.
         23    2    1    2    0    0  0.18472167911E+03  0.26181868313E+02 -0.99571226939E+03  0.10171307860E+04  0.91129157882E+02 0.  0.
          5    1    3    3  502    0 -0.15054661849E+03 -0.46383612531E+02 -0.29608621779E+04  0.29650527876E+04  0.41800000000E+01 0. -1.
         -5    1    3    3    0  502 -0.34175060626E+02  0.20201744218E+02 -0.21033172683E+03  0.21408632126E+03  0.41800000000E+01 0. -1.
        -11    1    4    4    0    0  0.94609141742E+02  0.58378040740E+02 -0.57854066054E+03  0.58912492838E+03  0.00000000000E+00 0.  1.
         11    1    4    4    0    0  0.90112537372E+02 -0.32196172427E+02 -0.41717160885E+03  0.42800585760E+03  0.00000000000E+00 0. -1.
</event>
<event>
 8    1  0.3654190E-009  0.7801595E+02  0.7561462E-02  0.1334778E+00
          2   -1    0    0  501    0  0.00000000000E+00  0.00000000000E+00  0.71597025168E+03  0.71597025168E+03  0.00000000000E+00 0. -1.
         -2   -1    0    0    0  501 -0.00000000000E+00 -0.00000000000E+00 -0.23260857032E+02  0.23260857032E+02  0.00000000000E+00 0.  1.
         25    2    1    2    0    0  0.67414949669E+02 -0.16617011924E+02  0.35735233123E+03  0.38492893537E+03  0.12509474860E+03 0.  0.
         23    2    1    2    0    0 -0.67414949669E+02  0.16617011924E+02  0.33535706342E+03  0.35430217333E+03  0.90800713230E+02 0.  0.
          5    1    3    3  502    0  0.50394475443E+01  0.11055762367E+02 -0.67151503959E+01  0.14497984615E+02  0.41800000000E+01 0.  1.
         -5    1    3    3    0  502  0.62375502125E+02 -0.27672774291E+02  0.36406748163E+03  0.37043095076E+03  0.41800000000E+01 0.  1.
        -11    1    4    4    0    0 -0.61355315334E+02  0.48078821492E+01  0.33542974635E+03  0.34102889201E+03  0.00000000000E+00 0. -1.
         11    1    4    4    0    0 -0.60596343346E+01  0.11809129774E+02 -0.72682933449E-01  0.13273281324E+02  0.00000000000E+00 0.  1.
</event>
<event>
 8    1  0.3654190E-009  0.1009462E+03  0.7561462E-02  0.1278319E+00
          2   -1    0    0  501    0  0.00000000000E+00  0.00000000000E+00  0.13585848131E+03  0.13585848131E+03  0.00000000000E+00 0. -1.
         -2   -1    0    0    0  501 -0.00000000000E+00 -0.00000000000E+00 -0.10492702272E+03  0.10492702272E+03  0.00000000000E+00 0.  1.
         25    2    1    2    0    0 -0.21689863262E+02 -0.19429877223E+02 -0.23311069326E+02  0.13053189493E+03  0.12508876585E+03 0.  0.
         23    2    1    2    0    0  0.21689863262E+02  0.19429877223E+02  0.54242527919E+02  0.11025360910E+03  0.91463851807E+02 0.  0.
          5    1    3    3  502    0 -0.52479384153E+02  0.19623214412E+02 -0.48867796114E+02  0.74462676570E+02  0.41800000000E+01 0. -1.
         -5    1    3    3    0  502  0.30789520892E+02 -0.39053091635E+02  0.25556726787E+02  0.56069218356E+02  0.41800000000E+01 0. -1.
        -11    1    4    4    0    0  0.52641592528E+02 -0.94344956731E+01  0.33666380093E+02  0.63194715927E+02  0.00000000000E+00 0.  1.
         11    1    4    4    0    0 -0.30951729267E+02  0.28864372896E+02  0.20576147825E+02  0.47058893173E+02  0.00000000000E+00 0. -1.
</event>
<event>
 8    1  0.3654190E-009  0.1093420E+03  0.7561462E-02  0.1261793E+00
          1   -1    0    0  501    0  0.00000000000E+00  0.00000000000E+00  0.44381679188E+03  0.44381679188E+03  0.00000000000E+00 0. -1.
         -1   -1    0    0    0  501 -0.00000000000E+00 -0.00000000000E+00 -0.59607263943E+02  0.59607263943E+02  0.00000000000E+00 0.  1.
         25    2    1    2    0    0  0.80599139606E+02  0.16932461911E+02  0.34384399785E+03  0.37504494938E+03  0.12508832728E+03 0.  0.
         23    2    1    2    0    0 -0.80599139606E+02 -0.16932461911E+02  0.40365530089E+02  0.12837910645E+03  0.89826996954E+02 0.  0.
          5    1    3    3  502    0 -0.12665409533E+02 -0.15534207237E+02  0.19683371963E+03  0.19789570429E+03  0.41800000000E+01 0.  1.
         -5    1    3    3    0  502  0.93264549140E+02  0.32466669148E+02  0.14701027822E+03  0.17714924509E+03  0.41800000000E+01 0.  1.
        -11    1    4    4    0    0 -0.74529899273E+02  0.68298519887E+01  0.60823943649E+02  0.96441199106E+02  0.00000000000E+00 0. -1.
         11    1    4    4    0    0 -0.60692403329E+01 -0.23762313900E+02 -0.20458413560E+02  0.31937907344E+02  0.00000000000E+00 0.  1.
</event>
<event>
 8    1  0.3654190E-009  0.9731527E+02  0.7561462E-02  0.1286045E+00
         -2   -1    0    0    0  501 -0.00000000000E+00  0.00000000000E+00  0.18488853364E+03  0.18488853364E+03  0.00000000000E+00 0.  1.
          2   -1    0    0  501    0  0.00000000000E+00 -0.00000000000E+00 -0.87203857593E+02  0.87203857593E+02  0.00000000000E+00 0. -1.
         25    2    1    2    0    0  0.42898286712E+02 -0.41530147406E+02  0.80844170736E+02  0.16046453010E+03  0.12509224329E+03 0.  0.
         23    2    1    2    0    0 -0.42898286712E+02  0.41530147406E+02  0.16840505314E+02  0.11162786114E+03  0.92801727441E+02 0.  0.
          5    1    3    3  502    0 -0.38868672591E+02  0.33351303435E+01  0.37987501336E+01  0.39418266146E+02  0.41800000000E+01 0. -1.
         -5    1    3    3    0  502  0.81766959304E+02 -0.44865277750E+02  0.77045420603E+02  0.12104626395E+03  0.41800000000E+01 0. -1.
        -11    1    4    4    0    0 -0.37305030008E+01  0.13142980200E+02 -0.36885150026E+02  0.39334067595E+02  0.00000000000E+00 0. -1.
         11    1    4    4    0    0 -0.39167783712E+02  0.28387167206E+02  0.53725655339E+02  0.72293793541E+02  0.00000000000E+00 0.  1.
</event>
<event>
 8    1  0.3654190E-009  0.7656815E+02  0.7561462E-02  0.1339083E+00
         -2   -1    0    0    0  501 -0.00000000000E+00  0.00000000000E+00  0.17698871450E+03  0.17698871450E+03  0.00000000000E+00 0.  1.
          2   -1    0    0  501    0  0.00000000000E+00 -0.00000000000E+00 -0.73628259612E+02  0.73628259612E+02  0.00000000000E+00 0. -1.
         25    2    1    2    0    0 -0.14767972804E+01 -0.19873860209E+02  0.81612538476E+02  0.15068306985E+03  0.12509048666E+03 0.  0.
         23    2    1    2    0    0  0.14767972804E+01  0.19873860209E+02  0.21747916411E+02  0.99933904263E+02  0.95481213352E+02 0.  0.
          5    1    3    3  502    0  0.31942571269E+02 -0.29948528315E+02 -0.16099822604E+02  0.46839287948E+02  0.41800000000E+01 0.  1.
         -5    1    3    3    0  502 -0.33419368550E+02  0.10074668106E+02  0.97712361080E+02  0.10384378190E+03  0.41800000000E+01 0.  1.
        -11    1    4    4    0    0 -0.26674106041E+02 -0.13859737053E+02  0.41923298988E+02  0.51586463750E+02  0.00000000000E+00 0.  1.
         11    1    4    4    0    0  0.28150903321E+02  0.33733597262E+02 -0.20175382576E+02  0.48347440513E+02  0.00000000000E+00 0. -1.
</event>
<event>
 8    1  0.3654190E-009  0.1300778E+03  0.7561462E-02  0.1227340E+00
         -1   -1    0    0    0  501 -0.00000000000E+00  0.00000000000E+00  0.11875180558E+03  0.11875180558E+03  0.00000000000E+00 0.  1.
          1   -1    0    0  501    0  0.00000000000E+00 -0.00000000000E+00 -0.18497236270E+03  0.18497236270E+03  0.00000000000E+00 0. -1.
         25    2    1    2    0    0 -0.90423723861E+01 -0.99550271314E+02 -0.21460042512E+02  0.16155486915E+03  0.12508965307E+03 0.  0.
         23    2    1    2    0    0  0.90423723861E+01  0.99550271314E+02 -0.44760514607E+02  0.14216929912E+03  0.90645380072E+02 0.  0.
          5    1    3    3  502    0  0.46758874750E+02 -0.11936642920E+01 -0.58989455563E+01  0.47329559062E+02  0.41800000000E+01 0.  1.
         -5    1    3    3    0  502 -0.55801247136E+02 -0.98356607022E+02 -0.15561096955E+02  0.11422531009E+03  0.41800000000E+01 0.  1.
        -11    1    4    4    0    0  0.56280062057E+01  0.79220806229E+02  0.13328410860E+02  0.80531094178E+02  0.00000000000E+00 0.  1.
         11    1    4    4    0    0  0.34143661805E+01  0.20329465085E+02 -0.58088925467E+02  0.61638204946E+02  0.00000000000E+00 0. -1.
</event>
<event>
 8    1  0.3654190E-009  0.1238267E+03  0.7561462E-02  0.1236914E+00
          1   -1    0    0  501    0  0.00000000000E+00  0.00000000000E+00  0.12081418948E+04  0.12081418948E+04  0.00000000000E+00 0. -1.
         -1   -1    0    0    0  501 -0.00000000000E+00 -0.00000000000E+00 -0.28333155058E+02  0.28333155058E+02  0.00000000000E+00 0.  1.
         25    2    1    2    0    0  0.63629674456E+02  0.55631173696E+02  0.10359294298E+04  0.10468720772E+04  0.12509116478E+03 0.  0.
         23    2    1    2    0    0 -0.63629674456E+02 -0.55631173696E+02  0.14387930986E+03  0.18960297259E+03  0.90024821309E+02 0.  0.
          5    1    3    3  502    0 -0.26341120117E+01 -0.25060097488E+02  0.51126939157E+03  0.51190703276E+03  0.41800000000E+01 0.  1.
         -5    1    3    3    0  502  0.66263786468E+02  0.80691271184E+02  0.52466003828E+03  0.53496504447E+03  0.41800000000E+01 0.  1.
        -11    1    4    4    0    0  0.80466256939E+01  0.14976900801E+02  0.42931785784E+01  0.17535310803E+02  0.00000000000E+00 0. -1.
         11    1    4    4    0    0 -0.71676300150E+02 -0.70608074497E+02  0.13958613129E+03  0.17206766179E+03  0.00000000000E+00 0.  1.
</event>
<event>
 8    1  0.3654190E-009  0.1391754E+03  0.7561462E-02  0.1214443E+00
         -2   -1    0    0    0  501 -0.00000000000E+00  0.00000000000E+00  0.23818654847E+02  0.23818654847E+02  0.00000000000E+00 0.  1.
          2   -1    0    0  501    0  0.00000000000E+00 -0.00000000000E+00 -0.91468820449E+03  0.91468820449E+03  0.00000000000E+00 0. -1.
         25    2    1    2    0    0  0.69394447436E+02 -0.68006932435E+02 -0.53611579973E+03  0.55902376513E+03  0.12508751762E+03 0.  0.
         23    2    1    2    0    0 -0.69394447436E+02  0.68006932435E+02 -0.35475374991E+03  0.37948309420E+03  0.93363073632E+02 0.  0.
          5    1    3    3  502    0 -0.18989773853E+02 -0.50782379020E+02 -0.32425167144E+03  0.32877968362E+03  0.41800000000E+01 0. -1.
         -5    1    3    3    0  502  0.88384221289E+02 -0.17224553415E+02 -0.21186412829E+03  0.23024408151E+03  0.41800000000E+01 0. -1.
        -11    1    4    4    0    0  0.67539225188E+01 -0.17840204824E+02 -0.36708845139E+02  0.41369405229E+02  0.00000000000E+00 0.  1.
         11    1    4    4    0    0 -0.76148369955E+02  0.85847137259E+02 -0.31804490477E+03  0.33811368898E+03  0.00000000000E+00 0. -1.
</event>
<event>
 8    1  0.3654190E-009  0.1586358E+03  0.7561462E-02  0.1190246E+00
         -1   -1    0    0    0  501 -0.00000000000E+00  0.00000000000E+00  0.23487232223E+02  0.23487232223E+02  0.00000000000E+00 0. -1.
          1   -1    0    0  501    0  0.00000000000E+00 -0.00000000000E+00 -0.11074486492E+04  0.11074486492E+04  0.00000000000E+00 0.  1.
         25    2    1    2    0    0  0.11594496221E+03 -0.10929320129E+02 -0.49371183108E+03  0.52245589260E+03  0.12508438454E+03 0.  0.
         23    2    1    2    0    0 -0.11594496221E+03  0.10929320129E+02 -0.59024958591E+03  0.60847998884E+03  0.91052945352E+02 0.  0.
          5    1    3    3  502    0  0.20281901771E+02 -0.59786930756E+02 -0.19306960683E+03  0.20317277896E+03  0.41800000000E+01 0.  1.
         -5    1    3    3    0  502  0.95663060439E+02  0.48857610626E+02 -0.30064222425E+03  0.31928311363E+03  0.41800000000E+01 0.  1.
        -11    1    4    4    0    0 -0.73928795230E+02 -0.37076678078E+02 -0.29218941341E+03  0.30366889885E+03  0.00000000000E+00 0. -1.
         11    1    4    4    0    0 -0.42016166980E+02  0.48005998207E+02 -0.29806017249E+03  0.30481108999E+03  0.00000000000E+00 0.  1.
</event>
<event>
 8    1  0.3654190E-009  0.8544740E+02  0.7561462E-02  0.1314267E+00
         -2   -1    0    0    0  501 -0.00000000000E+00  0.00000000000E+00  0.89588563040E+02  0.89588563040E+02  0.00000000000E+00 0.  1.
          2   -1    0    0  501    0  0.00000000000E+00 -0.00000000000E+00 -0.17662018743E+03  0.17662018743E+03  0.00000000000E+00 0. -1.
         25    2    1    2    0    0  0.29620275343E+02  0.55135454124E+02 -0.57995888641E+02  0.15142482917E+03  0.12509467126E+03 0.  0.
         23    2    1    2    0    0 -0.29620275343E+02 -0.55135454124E+02 -0.29035735749E+02  0.11478392130E+03  0.91733285261E+02 0.  0.
          5    1    3    3  502    0  0.41510196539E+02  0.22401561547E+02  0.30435192705E+02  0.56291204743E+02  0.41800000000E+01 0. -1.
         -5    1    3    3    0  502 -0.11889921196E+02  0.32733892577E+02 -0.88431081345E+02  0.95133624430E+02  0.41800000000E+01 0. -1.
        -11    1    4    4    0    0 -0.48159272033E+02 -0.49560443217E+02  0.11318696987E+02  0.70026180219E+02  0.00000000000E+00 0.  1.
         11    1    4    4    0    0  0.18538996689E+02 -0.55750109065E+01 -0.40354432736E+02  0.44757741077E+02  0.00000000000E+00 0. -1.
</event>
<event>
 8    1  0.3654190E-009  0.1176089E+03  0.7561462E-02  0.1247095E+00
         -1   -1    0    0    0  501 -0.00000000000E+00  0.00000000000E+00  0.26661812009E+03  0.26661812009E+03  0.00000000000E+00 0.  1.
          1   -1    0    0  501    0  0.00000000000E+00 -0.00000000000E+00 -0.62614181942E+02  0.62614181942E+02  0.00000000000E+00 0. -1.
         25    2    1    2    0    0  0.45330275794E+02 -0.48988729540E+02  0.12780013625E+03  0.19088044495E+03  0.12509092659E+03 0.  0.
         23    2    1    2    0    0 -0.45330275794E+02  0.48988729540E+02  0.76203801896E+02  0.13835185708E+03  0.94231032088E+02 0.  0.
          5    1    3    3  502    0  0.13690928445E+02  0.35441615805E+02  0.51069988580E+01  0.38562980822E+02  0.41800000000E+01 0.  1.
         -5    1    3    3    0  502  0.31639347349E+02 -0.84430345345E+02  0.12269313740E+03  0.15231746413E+03  0.41800000000E+01 0.  1.
        -11    1    4    4    0    0 -0.65948099965E+02  0.54318701969E+02  0.79617341349E+02  0.11678439243E+03  0.00000000000E+00 0.  1.
         11    1    4    4    0    0  0.20617824172E+02 -0.53299724287E+01 -0.34135394527E+01  0.21567464646E+02  0.00000000000E+00 0. -1.
</event>
<event>
 8    1  0.3654190E-009  0.1437405E+03  0.7561462E-02  0.1208383E+00
          2   -1    0    0  501    0  0.00000000000E+00  0.00000000000E+00  0.52544682222E+03  0.52544682222E+03  0.00000000000E+00 0. -1.
         -2   -1    0    0    0  501 -0.00000000000E+00 -0.00000000000E+00 -0.41474422628E+02  0.41474422628E+02  0.00000000000E+00 0.  1.
         25    2    1    2    0    0  0.94346300226E+02  0.32390473054E+02  0.25818086170E+03  0.30373565171E+03  0.12509045392E+03 0.  0.
         23    2    1    2    0    0 -0.94346300226E+02 -0.32390473054E+02  0.22579153789E+03  0.26318559314E+03  0.91293322539E+02 0.  0.
          5    1    3    3  502    0  0.29576351435E+02  0.75305041919E+02  0.14999796422E+03  0.17047718784E+03  0.41800000000E+01 0. -1.
         -5    1    3    3    0  502  0.64769948791E+02 -0.42914568865E+02  0.10818289748E+03  0.13325846388E+03  0.41800000000E+01 0. -1.
        -11    1    4    4    0    0  0.13313294743E+02  0.56689093757E+01  0.61033441183E+02  0.62725284320E+02  0.00000000000E+00 0. -1.
         11    1    4    4    0    0 -0.10765959497E+03 -0.38059382430E+02  0.16475809671E+03  0.20046030882E+03  0.00000000000E+00 0.  1.
</event>
<event>
 8    1  0.3654190E-009  0.1321042E+03  0.7561462E-02  0.1224366E+00
         -1   -1    0    0    0  501 -0.00000000000E+00  0.00000000000E+00  0.62440255227E+03  0.62440255227E+03  0.00000000000E+00 0.  1.
          1   -1    0    0  501    0  0.00000000000E+00 -0.00000000000E+00 -0.30181709857E+02  0.30181709857E+02  0.00000000000E+00 0. -1.
         25    2    1    2    0    0 -0.71190627664E+02 -0.33336473407E+02  0.25304518641E+03  0.29301419852E+03  0.12508408468E+03 0.  0.
         23    2    1    2    0    0  0.71190627664E+02  0.33336473407E+02  0.34117565600E+03  0.36157006361E+03  0.90292063462E+02 0.  0.
          5    1    3    3  502    0 -0.27015136267E+00  0.42162802762E+02  0.94760093942E+02  0.10380136185E+03  0.41800000000E+01 0. -1.
         -5    1    3    3    0  502 -0.70920476302E+02 -0.75499276169E+02  0.15828509247E+03  0.18921283667E+03  0.41800000000E+01 0. -1.
        -11    1    4    4    0    0  0.82195850089E+02 -0.90646270488E+00  0.26234405876E+03  0.27492068786E+03  0.00000000000E+00 0.  1.
         11    1    4    4    0    0 -0.11005222425E+02  0.34242936112E+02  0.78831597240E+02  0.86649375748E+02  0.00000000000E+00 0. -1.
</event>
<event>
 8    1  0.3654190E-009  0.9606344E+02  0.7561462E-02  0.1288799E+00
         -2   -1    0    0    0  501 -0.00000000000E+00  0.00000000000E+00  0.44217845674E+03  0.44217845674E+03  0.00000000000E+00 0.  1.
          2   -1    0    0  501    0  0.00000000000E+00 -0.00000000000E+00 -0.29520735252E+02  0.29520735252E+02  0.00000000000E+00 0. -1.
         25    2    1    2    0    0  0.21782333160E+02  0.16669404474E+02  0.28487007554E+03  0.31233211616E+03  0.12509217307E+03 0.  0.
         23    2    1    2    0    0 -0.21782333160E+02 -0.16669404474E+02  0.12778764594E+03  0.15936707583E+03  0.91191245848E+02 0.  0.
          5    1    3    3  502    0  0.25098372160E+02 -0.44226467154E+02  0.20774705409E+03  0.21392105919E+03  0.41800000000E+01 0.  1.
         -5    1    3    3    0  502 -0.33160389998E+01  0.60895871628E+02  0.77123021452E+02  0.98411056970E+02  0.41800000000E+01 0.  1.
        -11    1    4    4    0    0 -0.18263592842E+02  0.28944535967E+02  0.10033818936E+03  0.10601460857E+03  0.00000000000E+00 0.  1.
         11    1    4    4    0    0 -0.35187403182E+01 -0.45613940442E+02  0.27449456580E+02  0.53352467259E+02  0.00000000000E+00 0. -1.
</event>
<event>
 8    1  0.3654190E-009  0.1151934E+03  0.7561462E-02  0.1251244E+00
         -2   -1    0    0    0  501 -0.00000000000E+00  0.00000000000E+00  0.32569627245E+02  0.32569627245E+02  0.00000000000E+00 0.  1.
          2   -1    0    0  501    0  0.00000000000E+00 -0.00000000000E+00 -0.57153033953E+03  0.57153033953E+03  0.00000000000E+00 0. -1.
         25    2    1    2    0    0 -0.30353676227E+02  0.37021890645E+02 -0.14803814609E+03  0.19963661208E+03  0.12509004011E+03 0.  0.
         23    2    1    2    0    0  0.30353676227E+02 -0.37021890645E+02 -0.39092256619E+03  0.40446335470E+03  0.92077068205E+02 0.  0.
          5    1    3    3  502    0 -0.43302795562E+02  0.77806483901E+02 -0.83864618149E+02  0.12239169750E+03  0.41800000000E+01 0. -1.
         -5    1    3    3    0  502  0.12949119335E+02 -0.40784593256E+02 -0.64173527944E+02  0.77244914573E+02  0.41800000000E+01 0. -1.
        -11    1    4    4    0    0 -0.30218360495E+02 -0.15546327666E+02 -0.20376298706E+03  0.20657732817E+03  0.00000000000E+00 0. -1.
         11    1    4    4    0    0  0.60572036722E+02 -0.21475562979E+02 -0.18715957913E+03  0.19788602653E+03  0.00000000000E+00 0.  1.
</event>
<event>
 8    1  0.3654190E-009  0.9851394E+02  0.7561462E-02  0.1283452E+00
          2   -1    0    0  501    0  0.00000000000E+00  0.00000000000E+00  0.40053129123E+03  0.40053129123E+03  0.00000000000E+00 0. -1.
         -2   -1    0    0    0  501 -0.00000000000E+00 -0.00000000000E+00 -0.33476652098E+02  0.33476652098E+02  0.00000000000E+00 0.  1.
         25    2    1    2    0    0 -0.27284583076E+02  0.19755965390E+02  0.25183395808E+03  0.28320077489E+03  0.12509032662E+03 0.  0.
         23    2    1    2    0    0  0.27284583076E+02 -0.19755965390E+02  0.11522068105E+03  0.15080716844E+03  0.91281159436E+02 0.  0.
          5    1    3    3  502    0 -0.63681646999E+02  0.41602389892E+02  0.10135409005E+03  0.12679209352E+03  0.41800000000E+01 0.  1.
         -5    1    3    3    0  502  0.36397063922E+02 -0.21846424501E+02  0.15047986803E+03  0.15640868137E+03  0.41800000000E+01 0.  1.
        -11    1    4    4    0    0  0.32363474697E+02  0.20044460861E+02  0.11766766883E+02  0.39845096418E+02  0.00000000000E+00 0.  1.
         11    1    4    4    0    0 -0.50788916206E+01 -0.39800426252E+02  0.10345391417E+03  0.11096207202E+03  0.00000000000E+00 0. -1.
</event>
<event>
 8    1  0.3654190E-009  0.1643351E+03  0.7561462E-02  0.1183888E+00
         -1   -1    0    0    0  501 -0.00000000000E+00  0.00000000000E+00  0.90772971038E+02  0.90772971038E+02  0.00000000000E+00 0.  1.
          1   -1    0    0  501    0  0.00000000000E+00 -0.00000000000E+00 -0.37379960059E+03  0.37379960059E+03  0.00000000000E+00 0. -1.
         25    2    1    2    0    0  0.70162703848E+02  0.10331806746E+03 -0.25257441739E+03  0.30828376830E+03  0.12509043689E+03 0.  0.
         23    2    1    2    0    0 -0.70162703848E+02 -0.10331806746E+03 -0.30452212163E+02  0.15628880333E+03  0.88889958637E+02 0.  0.
          5    1    3    3  502    0  0.18558979636E+02 -0.28635730969E+02 -0.39471475471E+02  0.52344155253E+02  0.41800000000E+01 0.  1.
         -5    1    3    3    0  502  0.51603724212E+02  0.13195379843E+03 -0.21310294192E+03  0.25593961304E+03  0.41800000000E+01 0.  1.
        -11    1    4    4    0    0 -0.59789272771E+02 -0.12432121087E+02 -0.46573514603E+01  0.61245454492E+02  0.00000000000E+00 0.  1.
         11    1    4    4    0    0 -0.10373431076E+02 -0.90885946370E+02 -0.25794860703E+02  0.95043348839E+02  0.00000000000E+00 0. -1.
</event>
<event>
 8    1  0.3654190E-009  0.9514353E+02  0.7561462E-02  0.1290853E+00
          1   -1    0    0  501    0  0.00000000000E+00  0.00000000000E+00  0.40780576554E+02  0.40780576554E+02  0.00000000000E+00 0. -1.
         -1   -1    0    0    0  501 -0.00000000000E+00 -0.00000000000E+00 -0.37465203725E+03  0.37465203725E+03  0.00000000000E+00 0.  1.
         25    2    1    2    0    0  0.40944182504E+02 -0.28807903092E+02 -0.13132682334E+03  0.18814914405E+03  0.12508814698E+03 0.  0.
         23    2    1    2    0    0 -0.40944182504E+02  0.28807903092E+02 -0.20254463736E+03  0.22728346976E+03  0.90150563730E+02 0.  0.
          5    1    3    3  502    0  0.25413783358E+02 -0.55322419709E+02 -0.86745804741E+01  0.61637255401E+02  0.41800000000E+01 0.  1.
         -5    1    3    3    0  502  0.15530399146E+02  0.26514516617E+02 -0.12265224286E+03  0.12651188865E+03  0.41800000000E+01 0.  1.
        -11    1    4    4    0    0 -0.40998499744E+02  0.56915535170E+02 -0.10910625877E+03  0.12970902370E+03  0.00000000000E+00 0. -1.
         11    1    4    4    0    0  0.54317239762E-01 -0.28107632078E+02 -0.93438378587E+02  0.97574446062E+02  0.00000000000E+00 0.  1.
</event>
<event>
 8    1  0.3654190E-009  0.1066313E+03  0.7561462E-02  0.1266938E+00
         -2   -1    0    0    0  501 -0.00000000000E+00  0.00000000000E+00  0.45906680219E+03  0.45906680219E+03  0.00000000000E+00 0.  1.
          2   -1    0    0  501    0  0.00000000000E+00 -0.00000000000E+00 -0.34241431776E+02  0.34241431776E+02  0.00000000000E+00 0. -1.
         25    2    1    2    0    0 -0.47111897461E+02 -0.33974488066E+02  0.19123709335E+03  0.23578090157E+03  0.12508881224E+03 0.  0.
         23    2    1    2    0    0  0.47111897461E+02  0.33974488066E+02  0.23358827707E+03  0.25752733240E+03  0.91558981160E+02 0.  0.
          5    1    3    3  502    0  0.30838150484E+02  0.22349543564E+02  0.79826024675E+02  0.88544679333E+02  0.41800000000E+01 0. -1.
         -5    1    3    3    0  502 -0.77950047945E+02 -0.56324031630E+02  0.11141106868E+03  0.14723622223E+03  0.41800000000E+01 0. -1.
        -11    1    4    4    0    0  0.27458988969E+01  0.34211500090E+02  0.19715020068E+03  0.20011538753E+03  0.00000000000E+00 0. -1.
         11    1    4    4    0    0  0.44365998564E+02 -0.23701202372E+00  0.36438076386E+02  0.57411944872E+02  0.00000000000E+00 0.  1.
</event>
<event>
 8    1  0.3654190E-009  0.1533738E+03  0.7561462E-02  0.1196388E+00
         -3   -1    0    0    0  501 -0.00000000000E+00  0.00000000000E+00  0.64488682557E+02  0.64488682557E+02  0.00000000000E+00 0.  1.
          3   -1    0    0  501    0  0.00000000000E+00 -0.00000000000E+00 -0.46312496565E+03  0.46312496565E+03  0.00000000000E+00 0. -1.
         25    2    1    2    0    0  0.39679951352E+02  0.12689073224E+03 -0.24741833668E+03  0.30747182277E+03  0.12508929612E+03 0.  0.
         23    2    1    2    0    0 -0.39679951352E+02 -0.12689073224E+03 -0.15121794642E+03  0.22014182544E+03  0.88993255488E+02 0.  0.
          5    1    3    3  502    0  0.68122258587E+02  0.40886998937E+02 -0.17206473231E+03  0.18956828137E+03  0.41800000000E+01 0. -1.
         -5    1    3    3    0  502 -0.28442307234E+02  0.86003733303E+02 -0.75353604372E+02  0.11790354140E+03  0.41800000000E+01 0. -1.
        -11    1    4    4    0    0 -0.99785932934E+00 -0.53809937823E+02 -0.12043090549E+03  0.13190946944E+03  0.00000000000E+00 0. -1.
         11    1    4    4    0    0 -0.38682092023E+02 -0.73080794416E+02 -0.30787040926E+02  0.88232355997E+02  0.00000000000E+00 0.  1.
</event>
<event>
 8    1  0.3654190E-009  0.1141277E+03  0.7561462E-02  0.1253111E+00
          3   -1    0    0  501    0  0.00000000000E+00  0.00000000000E+00  0.31873297655E+02  0.31873297655E+02  0.00000000000E+00 0. -1.
         -3   -1    0    0    0  501 -0.00000000000E+00 -0.00000000000E+00 -0.45830447250E+03  0.45830447250E+03  0.00000000000E+00 0.  1.
         25    2    1    2    0    0  0.39153301291E+01  0.48426021624E+02 -0.19729198887E+03  0.23860413896E+03  0.12508955541E+03 0.  0.
         23    2    1    2    0    0 -0.39153301291E+01 -0.48426021624E+02 -0.22913918597E+03  0.25157363120E+03  0.91782983097E+02 0.  0.
          5    1    3    3  502    0  0.62149176459E+02  0.74322655824E+01 -0.87217659371E+02  0.10743440423E+03  0.41800000000E+01 0.  1.
         -5    1    3    3    0  502 -0.58233846330E+02  0.40993756041E+02 -0.11007432950E+03  0.13116973473E+03  0.41800000000E+01 0.  1.
        -11    1    4    4    0    0 -0.56855401976E+01  0.22515469430E+02 -0.11385468703E+03  0.11619880159E+03  0.00000000000E+00 0.  1.
         11    1    4    4    0    0  0.17702100685E+01 -0.70941491054E+02 -0.11528449894E+03  0.13537482961E+03  0.00000000000E+00 0. -1.
</event>
<event>
 8    1  0.3654190E-009  0.1788824E+03  0.7561462E-02  0.1168889E+00
         -1   -1    0    0    0  501 -0.00000000000E+00  0.00000000000E+00  0.49071310553E+02  0.49071310553E+02  0.00000000000E+00 0.  1.
          1   -1    0    0  501    0  0.00000000000E+00 -0.00000000000E+00 -0.71494938479E+03  0.71494938479E+03  0.00000000000E+00 0. -1.
         25    2    1    2    0    0 -0.79656898082E+02 -0.12365665248E+03 -0.43317240163E+03  0.47425837324E+03  0.12508591422E+03 0.  0.
         23    2    1    2    0    0  0.79656898082E+02  0.12365665248E+03 -0.23270567261E+03  0.28976232211E+03  0.90410641702E+02 0.  0.
          5    1    3    3  502    0 -0.25728841724E+01 -0.11301456998E+03 -0.28943880142E+03  0.31075907859E+03  0.41800000000E+01 0.  1.
         -5    1    3    3    0  502 -0.77084013910E+02 -0.10642082508E+02 -0.14373360022E+03  0.16349929465E+03  0.41800000000E+01 0.  1.
        -11    1    4    4    0    0  0.91694523739E+02  0.80845961591E+02 -0.20059891708E+03  0.23491249588E+03  0.00000000000E+00 0. -1.
         11    1    4    4    0    0 -0.12037625657E+02  0.42810690892E+02 -0.32106755533E+02  0.54849826225E+02  0.00000000000E+00 0.  1.
</event>
<event>
 8    1  0.3654190E-009  0.9982573E+02  0.7561462E-02  0.1280663E+00
         -2   -1    0    0    0  501 -0.00000000000E+00  0.00000000000E+00  0.35570122460E+02  0.35570122460E+02  0.00000000000E+00 0.  1.
          2   -1    0    0  501    0  0.00000000000E+00 -0.00000000000E+00 -0.44251360517E+03  0.44251360517E+03  0.00000000000E+00 0. -1.
         25    2    1    2    0    0 -0.21339275233E+02  0.60182120465E+02 -0.26621413703E+03  0.30098973136E+03  0.12509036469E+03 0.  0.
         23    2    1    2    0    0  0.21339275233E+02 -0.60182120465E+02 -0.14072934569E+03  0.17709399628E+03  0.86488626353E+02 0.  0.
          5    1    3    3  502    0  0.20768404359E+01  0.93062090797E+02 -0.22312085958E+03  0.24179589821E+03  0.41800000000E+01 0. -1.
         -5    1    3    3    0  502 -0.23416115669E+02 -0.32879970332E+02 -0.43093277446E+02  0.59193833151E+02  0.41800000000E+01 0. -1.
        -11    1    4    4    0    0  0.16286650138E+02 -0.21983302925E+02 -0.13547013935E+03  0.13820520698E+03  0.00000000000E+00 0. -1.
         11    1    4    4    0    0  0.50526250948E+01 -0.38198817540E+02 -0.52592063375E+01  0.38888789299E+02  0.00000000000E+00 0.  1.
</event>
<event>
 8    1  0.3654190E-009  0.8965141E+02  0.7561462E-02  0.1303698E+00
         -1   -1    0    0    0  501 -0.00000000000E+00  0.00000000000E+00  0.30941529967E+03  0.30941529967E+03  0.00000000000E+00 0.  1.
          1   -1    0    0  501    0  0.00000000000E+00 -0.00000000000E+00 -0.51866276820E+02  0.51866276820E+02  0.00000000000E+00 0. -1.
         25    2    1    2    0    0  0.37432376007E+02 -0.51506825278E+02  0.16244371785E+03  0.21468561137E+03  0.12509122446E+03 0.  0.
         23    2    1    2    0    0 -0.37432376007E+02  0.51506825278E+02  0.95105305001E+02  0.14659596512E+03  0.91603614152E+02 0.  0.
          5    1    3    3  502    0 -0.13577253981E+02 -0.21410178145E+02 -0.13477783405E+02  0.29014834126E+02  0.41800000000E+01 0. -1.
         -5    1    3    3    0  502  0.51009629988E+02 -0.30096647133E+02  0.17592150125E+03  0.18567077725E+03  0.41800000000E+01 0. -1.
        -11    1    4    4    0    0 -0.54497765223E+02  0.54311646890E+02  0.10218195012E+03  0.12790978200E+03  0.00000000000E+00 0.  1.
         11    1    4    4    0    0  0.17065389216E+02 -0.28048216124E+01 -0.70766451144E+01  0.18686183116E+02  0.00000000000E+00 0. -1.
</event>
<event>
 8    1  0.3654190E-009  0.1232684E+03  0.7561462E-02  0.1237801E+00
         -1   -1    0    0    0  501 -0.00000000000E+00  0.00000000000E+00  0.22606287365E+02  0.22606287365E+02  0.00000000000E+00 0.  1.
          1   -1    0    0  501    0  0.00000000000E+00 -0.00000000000E+00 -0.69382655651E+03  0.69382655651E+03  0.00000000000E+00 0. -1.
         25    2    1    2    0    0  0.54511783929E+01  0.61063657403E+02 -0.37847582314E+03  0.40329857478E+03  0.12508919266E+03 0.  0.
         23    2    1    2    0    0 -0.54511783929E+01 -0.61063657403E+02 -0.29274444601E+03  0.31313426909E+03  0.92710701703E+02 0.  0.
          5    1    3    3  502    0  0.55762048779E+02  0.65789472307E+02 -0.20192041773E+03  0.21960643945E+03  0.41800000000E+01 0. -1.
         -5    1    3    3    0  502 -0.50310870386E+02 -0.47258149047E+01 -0.17655540541E+03  0.18369213533E+03  0.41800000000E+01 0. -1.
        -11    1    4    4    0    0  0.41973015333E+02 -0.18902435210E+02 -0.15038588010E+03  0.15727348476E+03  0.00000000000E+00 0. -1.
         11    1    4    4    0    0 -0.47424193726E+02 -0.42161222193E+02 -0.14235856590E+03  0.15586078433E+03  0.00000000000E+00 0.  1.
</event>
<event>
 8    1  0.3654190E-009  0.1058673E+03  0.7561462E-02  0.1268420E+00
         -3   -1    0    0    0  501 -0.00000000000E+00  0.00000000000E+00  0.67273817619E+02  0.67273817619E+02  0.00000000000E+00 0.  1.
          3   -1    0    0  501    0  0.00000000000E+00 -0.00000000000E+00 -0.18437798674E+03  0.18437798674E+03  0.00000000000E+00 0. -1.
         25    2    1    2    0    0 -0.40307518769E+01 -0.77756735592E+01 -0.76820994426E+02  0.14705647577E+03  0.12508970310E+03 0.  0.
         23    2    1    2    0    0  0.40307518769E+01  0.77756735592E+01 -0.40283174691E+02  0.10459532859E+03  0.96128770609E+02 0.  0.
          5    1    3    3  502    0  0.60123792463E+02 -0.96828632267E+01 -0.35663276559E+02  0.70696322077E+02  0.41800000000E+01 0.  1.
         -5    1    3    3    0  502 -0.64154544340E+02  0.19071896675E+01 -0.41157717868E+02  0.76360153692E+02  0.41800000000E+01 0.  1.
        -11    1    4    4    0    0  0.41210669856E+02 -0.13711233776E+02 -0.43580074598E+02  0.61526743321E+02  0.00000000000E+00 0.  1.
         11    1    4    4    0    0 -0.37179917979E+02  0.21486907335E+02  0.32968999073E+01  0.43068585266E+02  0.00000000000E+00 0. -1.
</event>
<event>
 8    1  0.3654190E-009  0.7739260E+02  0.7561462E-02  0.1336618E+00
         -2   -1    0    0    0  501 -0.00000000000E+00  0.00000000000E+00  0.14879880141E+03  0.14879880141E+03  0.00000000000E+00 0.  1.
          2   -1    0    0  501    0  0.00000000000E+00 -0.00000000000E+00 -0.10639354324E+03  0.10639354324E+03  0.00000000000E+00 0. -1.
         25    2    1    2    0    0 -0.77374366440E+01 -0.10092503669E+02 -0.42068864894E+02  0.13258474157E+03  0.12508875948E+03 0.  0.
         23    2    1    2    0    0  0.77374366440E+01  0.10092503669E+02  0.84474123072E+02  0.12260760308E+03  0.87948964219E+02 0.  0.
          5    1    3    3  502    0 -0.39509465462E+02 -0.42831869898E+01 -0.75805451869E+02  0.85692954699E+02  0.41800000000E+01 0. -1.
         -5    1    3    3    0  502  0.31772028818E+02 -0.58093166791E+01  0.33736586975E+02  0.46891786874E+02  0.41800000000E+01 0. -1.
        -11    1    4    4    0    0 -0.17149472978E+02 -0.30297987926E+02  0.59641875597E+02  0.69059581670E+02  0.00000000000E+00 0. -1.
         11    1    4    4    0    0  0.24886909622E+02  0.40390491595E+02  0.24832247475E+02  0.53548021406E+02  0.00000000000E+00 0.  1.
</event>
<event>
 8    1  0.3654190E-009  0.9360411E+02  0.7561462E-02  0.1294351E+00
         -1   -1    0    0    0  501 -0.00000000000E+00  0.00000000000E+00  0.21856447405E+03  0.21856447405E+03  0.00000000000E+00 0.  1.
          1   -1    0    0  501    0  0.00000000000E+00 -0.00000000000E+00 -0.79770546358E+02  0.79770546358E+02  0.00000000000E+00 0. -1.
         25    2    1    2    0    0  0.20873964041E+01  0.53102160426E+02  0.13528600849E+03  0.19176725492E+03  0.12509268284E+03 0.  0.
         23    2    1    2    0    0 -0.20873964041E+01 -0.53102160426E+02  0.35079192012E+01  0.10656776549E+03  0.92304856207E+02 0.  0.
          5    1    3    3  502    0 -0.10473248320E+02  0.74742228572E+02  0.14586105917E+03  0.16428332430E+03  0.41800000000E+01 0.  1.
         -5    1    3    3    0  502  0.12560644724E+02 -0.21640068146E+02 -0.10575050676E+02  0.27483930615E+02  0.41800000000E+01 0.  1.
        -11    1    4    4    0    0  0.14238252370E+02  0.12317108559E+02  0.28923621236E+02  0.34511083136E+02  0.00000000000E+00 0.  1.
         11    1    4    4    0    0 -0.16325648774E+02 -0.65419268985E+02 -0.25415702035E+02  0.72056682357E+02  0.00000000000E+00 0. -1.
</event>
<event>
 8    1  0.3654190E-009  0.1001512E+03  0.7561462E-02  0.1279978E+00
         -2   -1    0    0    0  501 -0.00000000000E+00  0.00000000000E+00  0.12796299092E+03  0.12796299092E+03  0.00000000000E+00 0. -1.
          2   -1    0    0  501    0  0.00000000000E+00 -0.00000000000E+00 -0.13306792870E+03  0.13306792870E+03  0.00000000000E+00 0.  1.
         25    2    1    2    0    0 -0.30603687211E+01  0.34699904254E+02  0.59267286463E+02  0.14272399117E+03  0.12507628551E+03 0.  0.
         23    2    1    2    0    0  0.30603687211E+01 -0.34699904254E+02 -0.64372224246E+02  0.11830692845E+03  0.92947817899E+02 0.  0.
          5    1    3    3  502    0  0.51646768505E+02 -0.16904052372E+02  0.23930403605E+02  0.59525392063E+02  0.41800000000E+01 0.  1.
         -5    1    3    3    0  502 -0.54707137226E+02  0.51603956626E+02  0.35336882857E+02  0.83198599104E+02  0.41800000000E+01 0.  1.
        -11    1    4    4    0    0 -0.11903442164E+02  0.14668939436E+02 -0.63988395250E+02  0.66718696376E+02  0.00000000000E+00 0.  1.
         11    1    4    4    0    0  0.14963810886E+02 -0.49368843690E+02 -0.38382899660E+00  0.51588232071E+02  0.00000000000E+00 0. -1.
</event>
<event>
 8    1  0.3654190E-009  0.2271424E+03  0.7561462E-02  0.1128667E+00
         -1   -1    0    0    0  501 -0.00000000000E+00  0.00000000000E+00  0.16377888896E+03  0.16377888896E+03  0.00000000000E+00 0.  1.
          1   -1    0    0  501    0  0.00000000000E+00 -0.00000000000E+00 -0.33979103186E+03  0.33979103186E+03  0.00000000000E+00 0. -1.
         25    2    1    2    0    0 -0.20702479722E+03 -0.29560465971E+02 -0.99619023354E+02  0.26325691484E+03  0.12508863091E+03 0.  0.
         23    2    1    2    0    0  0.20702479722E+03  0.29560465971E+02 -0.76393119546E+02  0.24031300599E+03  0.90450783970E+02 0.  0.
          5    1    3    3  502    0 -0.34528592564E+02  0.43013803143E+02 -0.33846571103E+02  0.64849624060E+02  0.41800000000E+01 0. -1.
         -5    1    3    3    0  502 -0.17249620466E+03 -0.72574269114E+02 -0.65772452251E+02  0.19840729078E+03  0.41800000000E+01 0. -1.
        -11    1    4    4    0    0  0.11926137829E+03  0.28085957461E+00 -0.86378610411E+02  0.14725698479E+03  0.00000000000E+00 0.  1.
         11    1    4    4    0    0  0.87763418928E+02  0.29279606396E+02  0.99854908647E+01  0.93056021194E+02  0.00000000000E+00 0. -1.
</event>
<event>
 8    1  0.3654190E-009  0.9363005E+02  0.7561462E-02  0.1294292E+00
          2   -1    0    0  501    0  0.00000000000E+00  0.00000000000E+00  0.35317250444E+02  0.35317250444E+02  0.00000000000E+00 0.  1.
         -2   -1    0    0    0  501 -0.00000000000E+00 -0.00000000000E+00 -0.41261559411E+03  0.41261559411E+03  0.00000000000E+00 0. -1.
         25    2    1    2    0    0  0.48336611882E+01 -0.11086712199E+02 -0.30710121990E+03  0.33182014481E+03  0.12508864764E+03 0.  0.
         23    2    1    2    0    0 -0.48336611882E+01  0.11086712199E+02 -0.70197123763E+02  0.11611269974E+03  0.91696474246E+02 0.  0.
          5    1    3    3  502    0  0.57356835521E+02 -0.14250396922E+01 -0.23534809654E+03  0.24227677616E+03  0.41800000000E+01 0. -1.
         -5    1    3    3    0  502 -0.52523174333E+02 -0.96616725072E+01 -0.71753123358E+02  0.89543368651E+02  0.41800000000E+01 0. -1.
        -11    1    4    4    0    0  0.32148076223E+02  0.20342144318E+02 -0.68010489208E+02  0.77927711904E+02  0.00000000000E+00 0. -1.
         11    1    4    4    0    0 -0.36981737411E+02 -0.92554321185E+01 -0.21866345558E+01  0.38184987840E+02  0.00000000000E+00 0.  1.
</event>
<event>
 8    1  0.3654190E-009  0.1375114E+03  0.7561462E-02  0.1216717E+00
          3   -1    0    0  501    0  0.00000000000E+00  0.00000000000E+00  0.46209866129E+02  0.46209866129E+02  0.00000000000E+00 0. -1.
         -3   -1    0    0    0  501 -0.00000000000E+00 -0.00000000000E+00 -0.63831889148E+03  0.63831889148E+03  0.00000000000E+00 0.  1.
         25    2    1    2    0    0 -0.19547862052E+02  0.11986691463E+03 -0.42075856833E+03  0.45545136814E+03  0.12509188536E+03 0.  0.
         23    2    1    2    0    0  0.19547862052E+02 -0.11986691463E+03 -0.17135045702E+03  0.22907738947E+03  0.91461877912E+02 0.  0.
          5    1    3    3  502    0 -0.21359539296E+02  0.11174234530E+03 -0.17046078080E+03  0.20498032062E+03  0.41800000000E+01 0. -1.
         -5    1    3    3    0  502  0.18116772437E+01  0.81245693302E+01 -0.25029778754E+03  0.25047104752E+03  0.41800000000E+01 0. -1.
        -11    1    4    4    0    0  0.52535600373E+02 -0.10104474522E+03 -0.13311887080E+03  0.17518750985E+03  0.00000000000E+00 0.  1.
         11    1    4    4    0    0 -0.32987738321E+02 -0.18822169410E+02 -0.38231586213E+02  0.53889879617E+02  0.00000000000E+00 0. -1.
</event>
<event>
 8    1  0.3654190E-009  0.1775314E+03  0.7561462E-02  0.1170214E+00
         -4   -1    0    0    0  501 -0.00000000000E+00  0.00000000000E+00  0.11168257905E+04  0.11168257905E+04  0.00000000000E+00 0.  1.
          4   -1    0    0  501    0  0.00000000000E+00 -0.00000000000E+00 -0.39652270170E+02  0.39652270170E+02  0.00000000000E+00 0. -1.
         25    2    1    2    0    0 -0.10540415250E+03  0.13472658855E+03  0.71237077296E+03  0.74322329353E+03  0.12508979517E+03 0.  0.
         23    2    1    2    0    0  0.10540415250E+03 -0.13472658855E+03  0.36480274741E+03  0.41325476717E+03  0.91854063882E+02 0.  0.
          5    1    3    3  502    0 -0.86754577644E+02  0.10568887988E+03  0.68621912618E+03  0.69972184302E+03  0.41800000000E+01 0.  1.
         -5    1    3    3    0  502 -0.18649574854E+02  0.29037708670E+02  0.26151646785E+02  0.43501450511E+02  0.41800000000E+01 0.  1.
        -11    1    4    4    0    0  0.85962936368E+01 -0.61550645712E+02  0.65527735550E+02  0.90312027871E+02  0.00000000000E+00 0. -1.
         11    1    4    4    0    0  0.96807858861E+02 -0.73175942835E+02  0.29927501186E+03  0.32294273930E+03  0.00000000000E+00 0.  1.
</event>
<event>
 8    1  0.3654190E-009  0.1614573E+03  0.7561462E-02  0.1187061E+00
          2   -1    0    0  501    0  0.00000000000E+00  0.00000000000E+00  0.77203985956E+03  0.77203985956E+03  0.00000000000E+00 0. -1.
         -2   -1    0    0    0  501 -0.00000000000E+00 -0.00000000000E+00 -0.46396436893E+02  0.46396436893E+02  0.00000000000E+00 0.  1.
         25    2    1    2    0    0  0.37703694675E+02 -0.14639503683E+03  0.32903673962E+03  0.38310131506E+03  0.12509342981E+03 0.  0.
         23    2    1    2    0    0 -0.37703694675E+02  0.14639503683E+03  0.39660668304E+03  0.43533498139E+03  0.96781246041E+02 0.  0.
          5    1    3    3  502    0  0.29690239987E+02 -0.38217908255E+02  0.23348414772E+03  0.23848362312E+03  0.41800000000E+01 0. -1.
         -5    1    3    3    0  502  0.80134546886E+01 -0.10817712858E+03  0.95552591906E+02  0.14461769194E+03  0.41800000000E+01 0. -1.
        -11    1    4    4    0    0 -0.50351845607E+02  0.59375156881E+02  0.10470204784E+03  0.13047312533E+03  0.00000000000E+00 0.  1.
         11    1    4    4    0    0  0.12648150932E+02  0.87019879950E+02  0.29190463520E+03  0.30486185606E+03  0.00000000000E+00 0. -1.
</event>
<event>
 8    1  0.3654190E-009  0.9641414E+02  0.7561462E-02  0.1288022E+00
          1   -1    0    0  501    0  0.00000000000E+00  0.00000000000E+00  0.91465648650E+03  0.91465648650E+03  0.00000000000E+00 0. -1.
         -1   -1    0    0    0  501 -0.00000000000E+00 -0.00000000000E+00 -0.21019392110E+02  0.21019392110E+02  0.00000000000E+00 0.  1.
         25    2    1    2    0    0 -0.58378709632E+02 -0.96975200787E+01  0.69398917163E+03  0.70765056243E+03  0.12508490128E+03 0.  0.
         23    2    1    2    0    0  0.58378709632E+02  0.96975200787E+01  0.19964792276E+03  0.22802531618E+03  0.92920052324E+02 0.  0.
          5    1    3    3  502    0  0.16263962878E+02  0.38581738129E+02  0.34228976224E+03  0.34486638099E+03  0.41800000000E+01 0.  1.
         -5    1    3    3    0  502 -0.74642672510E+02 -0.48279258208E+02  0.35169940939E+03  0.36278418144E+03  0.41800000000E+01 0.  1.
        -11    1    4    4    0    0  0.29406875373E+02  0.13821184809E+02  0.19583712317E+03  0.19851440321E+03  0.00000000000E+00 0. -1.
         11    1    4    4    0    0  0.28971834259E+02 -0.41236647306E+01  0.38107995885E+01  0.29510912975E+02  0.00000000000E+00 0.  1.
</event>
<event>
 8    1  0.3654190E-009  0.1467869E+03  0.7561462E-02  0.1204478E+00
          2   -1    0    0  501    0  0.00000000000E+00  0.00000000000E+00  0.65988790688E+03  0.65988790688E+03  0.00000000000E+00 0.  1.
         -2   -1    0    0    0  501 -0.00000000000E+00 -0.00000000000E+00 -0.35943543059E+02  0.35943543059E+02  0.00000000000E+00 0. -1.
         25    2    1    2    0    0 -0.60480296626E+02  0.80324315516E+02  0.43130230672E+03  0.46019516605E+03  0.12509216256E+03 0.  0.
         23    2    1    2    0    0  0.60480296626E+02 -0.80324315516E+02  0.19264205710E+03  0.23563628388E+03  0.91124278742E+02 0.  0.
          5    1    3    3  502    0  0.37812106730E+02  0.36745208832E+02  0.14279932708E+03  0.15227963095E+03  0.41800000000E+01 0.  1.
         -5    1    3    3    0  502 -0.98292403356E+02  0.43579106684E+02  0.28850297964E+03  0.30791553510E+03  0.41800000000E+01 0.  1.
        -11    1    4    4    0    0  0.80346871515E+02 -0.43814219338E+02  0.10969504647E+03  0.14285765222E+03  0.00000000000E+00 0. -1.
         11    1    4    4    0    0 -0.19866574888E+02 -0.36510096178E+02  0.82947010628E+02  0.92778631661E+02  0.00000000000E+00 0.  1.
</event>
<event>
 8    1  0.3654190E-009  0.1108656E+03  0.7561462E-02  0.1258975E+00
          2   -1    0    0  501    0  0.00000000000E+00  0.00000000000E+00  0.56961271530E+03  0.56961271530E+03  0.00000000000E+00 0. -1.
         -2   -1    0    0    0  501 -0.00000000000E+00 -0.00000000000E+00 -0.41651195792E+02  0.41651195792E+02  0.00000000000E+00 0.  1.
         25    2    1    2    0    0 -0.33798640789E+02 -0.50990053321E+02  0.10658875664E+03  0.17536291986E+03  0.12509459206E+03 0.  0.
         23    2    1    2    0    0  0.33798640789E+02  0.50990053321E+02  0.42137276287E+03  0.43590099123E+03  0.93339890794E+02 0.  0.
          5    1    3    3  502    0 -0.61875916013E+02 -0.60268691335E+02  0.11541736735E+03  0.14422061304E+03  0.41800000000E+01 0. -1.
         -5    1    3    3    0  502  0.28077275225E+02  0.92786380133E+01 -0.88286107106E+01  0.31142306827E+02  0.41800000000E+01 0. -1.
        -11    1    4    4    0    0  0.61708581412E+01 -0.24362065438E+02  0.50067049043E+02  0.56020524118E+02  0.00000000000E+00 0.  1.
         11    1    4    4    0    0  0.27627782648E+02  0.75352118760E+02  0.37130571383E+03  0.37988046712E+03  0.00000000000E+00 0. -1.
</event>
<event>
 8    1  0.3654190E-009  0.1367666E+03  0.7561462E-02  0.1217747E+00
         -4   -1    0    0    0  501 -0.00000000000E+00  0.00000000000E+00  0.96975349563E+02  0.96975349563E+02  0.00000000000E+00 0.  1.
          4   -1    0    0  501    0  0.00000000000E+00 -0.00000000000E+00 -0.27270231299E+03  0.27270231299E+03  0.00000000000E+00 0. -1.
         25    2    1    2    0    0 -0.75305617599E+02 -0.62202345422E+02 -0.17530107129E+03  0.23646933617E+03  0.12508882259E+03 0.  0.
         23    2    1    2    0    0  0.75305617599E+02  0.62202345422E+02 -0.42589213858E+00  0.13320832638E+03  0.90577088801E+02 0.  0.
          5    1    3    3  502    0 -0.10993424541E+03 -0.52189196526E+02 -0.14367933006E+03  0.18833606355E+03  0.41800000000E+01 0.  1.
         -5    1    3    3    0  502  0.34628627809E+02 -0.10013148896E+02 -0.31621741232E+02  0.48133272622E+02  0.41800000000E+01 0.  1.
        -11    1    4    4    0    0  0.63862597019E+02  0.13269887436E+02  0.32755443332E+02  0.72989316194E+02  0.00000000000E+00 0.  1.
         11    1    4    4    0    0  0.11443020580E+02  0.48932457986E+02 -0.33181335471E+02  0.60219010189E+02  0.00000000000E+00 0. -1.
</event>
<event>
 8    1  0.3654190E-009  0.9897115E+02  0.7561462E-02  0.1282474E+00
          4   -1    0    0  501    0  0.00000000000E+00  0.00000000000E+00  0.29956091647E+03  0.29956091647E+03  0.00000000000E+00 0. -1.
         -4   -1    0    0    0  501 -0.00000000000E+00 -0.00000000000E+00 -0.52191635760E+02  0.52191635760E+02  0.00000000000E+00 0.  1.
         25    2    1    2    0    0  0.47462771195E+01  0.69915954907E+01  0.22478247757E+03  0.25738275427E+03  0.12508920984E+03 0.  0.
         23    2    1    2    0    0 -0.47462771195E+01 -0.69915954907E+01  0.22586803147E+02  0.94369797968E+02  0.91236426596E+02 0.  0.
          5    1    3    3  502    0  0.49398433182E+02  0.41213760086E+02  0.85284726795E+02  0.10690994456E+03  0.41800000000E+01 0.  1.
         -5    1    3    3    0  502 -0.44652156063E+02 -0.34222164595E+02  0.13949775077E+03  0.15047280971E+03  0.41800000000E+01 0.  1.
        -11    1    4    4    0    0  0.32757920049E+02 -0.18764349995E+02 -0.14391482675E+02  0.40401694645E+02  0.00000000000E+00 0.  1.
         11    1    4    4    0    0 -0.37504197168E+02  0.11772754504E+02  0.36978285823E+02  0.53968103322E+02  0.00000000000E+00 0. -1.
</event>
<event>
 8    1  0.3654190E-009  0.1866133E+03  0.7561462E-02  0.1161552E+00
          2   -1    0    0  501    0  0.00000000000E+00  0.00000000000E+00  0.39066540945E+03  0.39066540945E+03  0.00000000000E+00 0. -1.
         -2   -1    0    0    0  501 -0.00000000000E+00 -0.00000000000E+00 -0.10634622940E+03  0.10634622940E+03  0.00000000000E+00 0.  1.
         25    2    1    2    0    0  0.73913621104E+02  0.14880529990E+03  0.93203341103E+02  0.22790432408E+03  0.12508907817E+03 0.  0.
         23    2    1    2    0    0 -0.73913621104E+02 -0.14880529990E+03  0.19111583894E+03  0.26910731477E+03  0.91034291922E+02 0.  0.
          5    1    3    3  502    0 -0.22753135769E+02 -0.63746502167E+01  0.18760947769E+02  0.30459594776E+02  0.41800000000E+01 0. -1.
         -5    1    3    3    0  502  0.96666756873E+02  0.15517995012E+03  0.74442393334E+02  0.19744472930E+03  0.41800000000E+01 0. -1.
        -11    1    4    4    0    0 -0.21459746343E+02 -0.51996426912E+02  0.99760199420E+01  0.57128540141E+02  0.00000000000E+00 0.  1.
         11    1    4    4    0    0 -0.52453874761E+02 -0.96808872992E+02  0.18113981900E+03  0.21197877463E+03  0.00000000000E+00 0. -1.
</event>
<event>
 8    1  0.3654190E-009  0.1259883E+03  0.7561462E-02  0.1233533E+00
         -2   -1    0    0    0  501 -0.00000000000E+00  0.00000000000E+00  0.39426887996E+03  0.39426887996E+03  0.00000000000E+00 0. -1.
          2   -1    0    0  501    0  0.00000000000E+00 -0.00000000000E+00 -0.61192352425E+02  0.61192352425E+02  0.00000000000E+00 0.  1.
         25    2    1    2    0    0  0.43183523019E+02  0.72055418119E+02  0.72768578370E+02  0.16733273331E+03  0.12509267643E+03 0.  0.
         23    2    1    2    0    0 -0.43183523019E+02 -0.72055418119E+02  0.26030794917E+03  0.28812849908E+03  0.90559392903E+02 0.  0.
          5    1    3    3  502    0 -0.43131193926E+02  0.15072405087E+02  0.12494123035E+02  0.47550528861E+02  0.41800000000E+01 0. -1.
         -5    1    3    3    0  502  0.86314716945E+02  0.56983013032E+02  0.60274455335E+02  0.11978220444E+03  0.41800000000E+01 0. -1.
        -11    1    4    4    0    0 -0.50084163497E+02 -0.26795094459E+02  0.59867943252E+02  0.82526184630E+02  0.00000000000E+00 0.  1.
         11    1    4    4    0    0  0.69006404779E+01 -0.45260323660E+02  0.20044000592E+03  0.20560231445E+03  0.00000000000E+00 0. -1.
</event>
<event>
 8    1  0.3654190E-009  0.9525149E+02  0.7561462E-02  0.1290611E+00
         -1   -1    0    0    0  501 -0.00000000000E+00  0.00000000000E+00  0.32662488969E+03  0.32662488969E+03  0.00000000000E+00 0.  1.
          1   -1    0    0  501    0  0.00000000000E+00 -0.00000000000E+00 -0.47627300283E+02  0.47627300283E+02  0.00000000000E+00 0. -1.
         25    2    1    2    0    0 -0.25394540611E+02  0.38565600621E+02  0.21862974744E+03  0.25608326725E+03  0.12508990789E+03 0.  0.
         23    2    1    2    0    0  0.25394540611E+02 -0.38565600621E+02  0.60367841959E+02  0.11816892271E+03  0.90484416938E+02 0.  0.
          5    1    3    3  502    0  0.24082494814E+02  0.29742517919E+02  0.77663459983E+01  0.39273050032E+02  0.41800000000E+01 0. -1.
         -5    1    3    3    0  502 -0.49477035425E+02  0.88230827020E+01  0.21086340145E+03  0.21681021722E+03  0.41800000000E+01 0. -1.
        -11    1    4    4    0    0  0.59424333172E+02 -0.19356824038E+02  0.36291452885E+02  0.72270378180E+02  0.00000000000E+00 0. -1.
         11    1    4    4    0    0 -0.34029792561E+02 -0.19208776583E+02  0.24076389074E+02  0.45898544535E+02  0.00000000000E+00 0.  1.
</event>
<event>
 8    1  0.3654190E-009  0.1459243E+03  0.7561462E-02  0.1205573E+00
         -2   -1    0    0    0  501 -0.00000000000E+00  0.00000000000E+00  0.18598730302E+03  0.18598730302E+03  0.00000000000E+00 0.  1.
          2   -1    0    0  501    0  0.00000000000E+00 -0.00000000000E+00 -0.12619043200E+03  0.12619043200E+03  0.00000000000E+00 0. -1.
         25    2    1    2    0    0  0.59280946684E+02 -0.89216607291E+02  0.43086201612E+02  0.17023066636E+03  0.12509286687E+03 0.  0.
         23    2    1    2    0    0 -0.59280946684E+02  0.89216607291E+02  0.16710669409E+02  0.14194706866E+03  0.91629090208E+02 0.  0.
          5    1    3    3  502    0  0.84299312551E+02 -0.18857028249E+02  0.58485428459E+01  0.86681252092E+02  0.41800000000E+01 0.  1.
         -5    1    3    3    0  502 -0.25018365866E+02 -0.70359579042E+02  0.37237658766E+02  0.83549414265E+02  0.41800000000E+01 0.  1.
        -11    1    4    4    0    0 -0.60902873385E+02  0.24198130937E+02  0.35122425461E+02  0.74352500279E+02  0.00000000000E+00 0.  1.
         11    1    4    4    0    0  0.16219267004E+01  0.65018476353E+02 -0.18411756053E+02  0.67594568380E+02  0.00000000000E+00 0. -1.
</event>
<event>
 8    1  0.3654190E-009  0.1089351E+03  0.7561462E-02  0.1262555E+00
          1   -1    0    0  501    0  0.00000000000E+00  0.00000000000E+00  0.12266849683E+03  0.12266849683E+03  0.00000000000E+00 0. -1.
         -1   -1    0    0    0  501 -0.00000000000E+00 -0.00000000000E+00 -0.15975370376E+03  0.15975370376E+03  0.00000000000E+00 0.  1.
         25    2    1    2    0    0  0.53319606004E+02 -0.66012317277E+02  0.14937774251E+01  0.15116175467E+03  0.12508812208E+03 0.  0.
         23    2    1    2    0    0 -0.53319606004E+02  0.66012317277E+02 -0.38578984355E+02  0.13126044592E+03  0.92414069340E+02 0.  0.
          5    1    3    3  502    0  0.33983505770E+02 -0.72023434296E+02  0.52937283447E+02  0.95718765824E+02  0.41800000000E+01 0.  1.
         -5    1    3    3    0  502  0.19336100233E+02  0.60111170190E+01 -0.51443506022E+02  0.55442988843E+02  0.41800000000E+01 0.  1.
        -11    1    4    4    0    0  0.19025415037E+02  0.32628840408E+02 -0.35016347290E+02  0.51504875704E+02  0.00000000000E+00 0.  1.
         11    1    4    4    0    0 -0.72345021041E+02  0.33383476869E+02 -0.35626370648E+01  0.79755570214E+02  0.00000000000E+00 0. -1.
</event>
<event>
 8    1  0.3654190E-009  0.1348890E+03  0.7561462E-02  0.1220377E+00
          1   -1    0    0  501    0  0.00000000000E+00  0.00000000000E+00  0.15520408750E+03  0.15520408750E+03  0.00000000000E+00 0. -1.
         -1   -1    0    0    0  501 -0.00000000000E+00 -0.00000000000E+00 -0.17138667688E+03  0.17138667688E+03  0.00000000000E+00 0.  1.
         25    2    1    2    0    0 -0.11645370443E+03  0.15491558378E+02 -0.39989258443E+02  0.17620492637E+03  0.12509029390E+03 0.  0.
         23    2    1    2    0    0  0.11645370443E+03 -0.15491558378E+02  0.23806669067E+02  0.15038583801E+03  0.90816788789E+02 0.  0.
          5    1    3    3  502    0 -0.12131833007E+01  0.20733328014E+02  0.33301079866E+02  0.39468684099E+02  0.41800000000E+01 0.  1.
         -5    1    3    3    0  502 -0.11524052113E+03 -0.52417696358E+01 -0.73290338309E+02  0.13673624227E+03  0.41800000000E+01 0.  1.
        -11    1    4    4    0    0  0.90131303373E+01  0.18407552383E+02 -0.20812664147E+02  0.29210297706E+02  0.00000000000E+00 0.  1.
         11    1    4    4    0    0  0.10744057410E+03 -0.33899110761E+02  0.44619333214E+02  0.12117554031E+03  0.00000000000E+00 0. -1.
</event>
<event>
 8    1  0.3654190E-009  0.6874340E+02  0.7561462E-02  0.1364419E+00
          1   -1    0    0  501    0  0.00000000000E+00  0.00000000000E+00  0.45964067919E+03  0.45964067919E+03  0.00000000000E+00 0. -1.
         -1   -1    0    0    0  501 -0.00000000000E+00 -0.00000000000E+00 -0.10300806618E+03  0.10300806618E+03  0.00000000000E+00 0.  1.
         25    2    1    2    0    0 -0.18913204360E+02  0.27531830814E+02  0.42426051722E+03  0.44357683197E+03  0.12509080057E+03 0.  0.
         23    2    1    2    0    0  0.18913204360E+02 -0.27531830814E+02 -0.67627904209E+02  0.11907191340E+03  0.92135097139E+02 0.  0.
          5    1    3    3  502    0 -0.95852859304E+01  0.29844979492E+02  0.43031371258E+03  0.43147417552E+03  0.41800000000E+01 0. -1.
         -5    1    3    3    0  502 -0.93279184295E+01 -0.23131486779E+01 -0.60531953656E+01  0.12102656451E+02  0.41800000000E+01 0. -1.
        -11    1    4    4    0    0  0.55091505596E+02 -0.18205383152E+02 -0.27384288237E+02  0.64159248801E+02  0.00000000000E+00 0. -1.
         11    1    4    4    0    0 -0.36178301236E+02 -0.93264476614E+01 -0.40243615973E+02  0.54912664594E+02  0.00000000000E+00 0.  1.
</event>
<event>
 8    1  0.3654190E-009  0.8874643E+02  0.7561462E-02  0.1305916E+00
          1   -1    0    0  501    0  0.00000000000E+00  0.00000000000E+00  0.55306272636E+03  0.55306272636E+03  0.00000000000E+00 0. -1.
         -1   -1    0    0    0  501 -0.00000000000E+00 -0.00000000000E+00 -0.50840661832E+02  0.50840661832E+02  0.00000000000E+00 0.  1.
         25    2    1    2    0    0  0.53521605963E+02 -0.24899597862E+02  0.47230518963E+03  0.49214239508E+03  0.12508953835E+03 0.  0.
         23    2    1    2    0    0 -0.53521605963E+02  0.24899597862E+02  0.29916874894E+02  0.11176099311E+03  0.90060801120E+02 0.  0.
          5    1    3    3  502    0  0.44802692126E+02 -0.39444652071E+02  0.82341648689E+02  0.10178792319E+03  0.41800000000E+01 0.  1.
         -5    1    3    3    0  502  0.87189138367E+01  0.14545054209E+02  0.38996354094E+03  0.39035447189E+03  0.41800000000E+01 0.  1.
        -11    1    4    4    0    0 -0.70163464764E+02 -0.91673177399E-01  0.11407933910E+01  0.70172798157E+02  0.00000000000E+00 0.  1.
         11    1    4    4    0    0  0.16641858801E+02  0.24991271040E+02  0.28776081503E+02  0.41588194950E+02  0.00000000000E+00 0. -1.
</event>
<event>
 8    1  0.3654190E-009  0.3094404E+03  0.7561462E-02  0.1080614E+00
          3   -1    0    0  501    0  0.00000000000E+00  0.00000000000E+00  0.90089179894E+03  0.90089179894E+03  0.00000000000E+00 0. -1.
         -3   -1    0    0    0  501 -0.00000000000E+00 -0.00000000000E+00 -0.11543126430E+03  0.11543126430E+03  0.00000000000E+00 0.  1.
         25    2    1    2    0    0  0.28355606191E+03  0.73138754430E+02  0.27689986083E+03  0.42198848815E+03  0.12508970205E+03 0.  0.
         23    2    1    2    0    0 -0.28355606191E+03 -0.73138754430E+02  0.50856067381E+03  0.59433457510E+03  0.94054827441E+02 0.  0.
          5    1    3    3  502    0  0.13723824441E+03 -0.27625257415E+02  0.13574257300E+03  0.19504104466E+03  0.41800000000E+01 0.  1.
         -5    1    3    3    0  502  0.14631781750E+03  0.10076401185E+03  0.14115728783E+03  0.22694744349E+03  0.41800000000E+01 0.  1.
        -11    1    4    4    0    0 -0.23893623118E+03 -0.33190244561E+02  0.35215955471E+03  0.42685883718E+03  0.00000000000E+00 0.  1.
         11    1    4    4    0    0 -0.44619830725E+02 -0.39948509869E+02  0.15640111910E+03  0.16747573792E+03  0.00000000000E+00 0. -1.
</event>
<event>
 8    1  0.3654190E-009  0.1760400E+03  0.7561462E-02  0.1171692E+00
          2   -1    0    0  501    0  0.00000000000E+00  0.00000000000E+00  0.11578281927E+04  0.11578281927E+04  0.00000000000E+00 0. -1.
         -2   -1    0    0    0  501 -0.00000000000E+00 -0.00000000000E+00 -0.40664677537E+02  0.40664677537E+02  0.00000000000E+00 0.  1.
         25    2    1    2    0    0 -0.11730700748E+03 -0.79879451038E+02  0.90276548285E+03  0.92237461185E+03  0.12509095435E+03 0.  0.
         23    2    1    2    0    0  0.11730700748E+03  0.79879451038E+02  0.21439803226E+03  0.27611825834E+03  0.10066337789E+03 0.  0.
          5    1    3    3  502    0  0.90176689306E+01 -0.50389271123E+02  0.39319189157E+03  0.39653213362E+03  0.41800000000E+01 0. -1.
         -5    1    3    3    0  502 -0.12632467641E+03 -0.29490179915E+02  0.50957359128E+03  0.52584247823E+03  0.41800000000E+01 0. -1.
        -11    1    4    4    0    0  0.12639069190E+03  0.43860803694E+02  0.18714380763E+03  0.23004604285E+03  0.00000000000E+00 0. -1.
         11    1    4    4    0    0 -0.90836844220E+01  0.36018647344E+02  0.27254224636E+02  0.46072215485E+02  0.00000000000E+00 0.  1.
</event>
<event>
 8    1  0.3654190E-009  0.1076449E+03  0.7561462E-02  0.1264994E+00
         -1   -1    0    0    0  501 -0.00000000000E+00  0.00000000000E+00  0.77395713429E+02  0.77395713429E+02  0.00000000000E+00 0.  1.
          1   -1    0    0  501    0  0.00000000000E+00 -0.00000000000E+00 -0.20335343930E+03  0.20335343930E+03  0.00000000000E+00 0. -1.
         25    2    1    2    0    0  0.17000813552E+01  0.38676206503E+01  0.64805803760E+00  0.12516435340E+03  0.12509135309E+03 0.  0.
         23    2    1    2    0    0 -0.17000813552E+01 -0.38676206503E+01 -0.12660578390E+03  0.15558479932E+03  0.90331370500E+02 0.  0.
          5    1    3    3  502    0  0.36776790782E+01 -0.60335077284E+02 -0.32404126598E+01  0.60677998883E+02  0.41800000000E+01 0.  1.
         -5    1    3    3    0  502 -0.19775977230E+01  0.64202697934E+02  0.38884706974E+01  0.64486354519E+02  0.41800000000E+01 0.  1.
        -11    1    4    4    0    0  0.16547693140E+02  0.39745527331E+02 -0.64015786738E+02  0.77146315808E+02  0.00000000000E+00 0. -1.
         11    1    4    4    0    0 -0.18247774495E+02 -0.43613147982E+02 -0.62589997166E+02  0.78438483515E+02  0.00000000000E+00 0.  1.
</event>
<event>
 8    1  0.3654190E-009  0.1420038E+03  0.7561462E-02  0.1210658E+00
          2   -1    0    0  501    0  0.00000000000E+00  0.00000000000E+00  0.23758964154E+03  0.23758964154E+03  0.00000000000E+00 0. -1.
         -2   -1    0    0    0  501 -0.00000000000E+00 -0.00000000000E+00 -0.94066148369E+02  0.94066148369E+02  0.00000000000E+00 0.  1.
         25    2    1    2    0    0  0.96085159139E+02  0.29264290872E+02  0.61655852180E+02  0.17186523017E+03  0.12508979457E+03 0.  0.
         23    2    1    2    0    0 -0.96085159139E+02 -0.29264290872E+02  0.81867640987E+02  0.15979055974E+03  0.93498426795E+02 0.  0.
          5    1    3    3  502    0  0.78332647220E+02 -0.34518697538E+02  0.71403184785E+01  0.86000003768E+02  0.41800000000E+01 0.  1.
         -5    1    3    3    0  502  0.17752511920E+02  0.63782988409E+02  0.54515533701E+02  0.85865226400E+02  0.41800000000E+01 0.  1.
        -11    1    4    4    0    0 -0.97088044896E+02 -0.51367464953E+02  0.49247627910E+02  0.12037455617E+03  0.00000000000E+00 0.  1.
         11    1    4    4    0    0  0.10028857567E+01  0.22103174081E+02  0.32620013077E+02  0.39416003570E+02  0.00000000000E+00 0. -1.
</event>
<event>
 8    1  0.3654190E-009  0.2471617E+03  0.7561462E-02  0.1115112E+00
          2   -1    0    0  501    0  0.00000000000E+00  0.00000000000E+00  0.16068433731E+03  0.16068433731E+03  0.00000000000E+00 0. -1.
         -2   -1    0    0    0  501 -0.00000000000E+00 -0.00000000000E+00 -0.42717877329E+03  0.42717877329E+03  0.00000000000E+00 0.  1.
         25    2    1    2    0    0  0.15744479780E+02 -0.22357434887E+03 -0.45435745990E+02  0.26066295260E+03  0.12508952686E+03 0.  0.
         23    2    1    2    0    0 -0.15744479780E+02  0.22357434887E+03 -0.22105868999E+03  0.32720015800E+03  0.89216707290E+02 0.  0.
          5    1    3    3  502    0 -0.45799784840E+02 -0.37760411338E+02 -0.22162590085E+02  0.63498990189E+02  0.41800000000E+01 0. -1.
         -5    1    3    3    0  502  0.61544264620E+02 -0.18581393753E+03 -0.23273155906E+02  0.19716396241E+03  0.41800000000E+01 0. -1.
        -11    1    4    4    0    0  0.33918214896E+02  0.73375528223E+02 -0.96288354250E+02  0.12572136099E+03  0.00000000000E+00 0.  1.
         11    1    4    4    0    0 -0.49662694676E+02  0.15019882065E+03 -0.12477033574E+03  0.20147879702E+03  0.00000000000E+00 0. -1.
</event>
<event>
 8    1  0.3654190E-009  0.6206589E+02  0.7561462E-02  0.1389361E+00
         -1   -1    0    0    0  501 -0.00000000000E+00  0.00000000000E+00  0.30032037834E+02  0.30032037834E+02  0.00000000000E+00 0.  1.
          1   -1    0    0  501    0  0.00000000000E+00 -0.00000000000E+00 -0.50942420797E+03  0.50942420797E+03  0.00000000000E+00 0. -1.
         25    2    1    2    0    0  0.42895746271E+01 -0.35068560271E+02 -0.37164925739E+03  0.39372496339E+03  0.12509185390E+03 0.  0.
         23    2    1    2    0    0 -0.42895746271E+01  0.35068560271E+02 -0.10774291275E+03  0.14573128241E+03  0.91547075625E+02 0.  0.
          5    1    3    3  502    0  0.21670383554E+02 -0.63136960733E+01 -0.35545037483E+03  0.35619083319E+03  0.41800000000E+01 0. -1.
         -5    1    3    3    0  502 -0.17380808927E+02 -0.28754864198E+02 -0.16198882556E+02  0.37534130202E+02  0.41800000000E+01 0. -1.
        -11    1    4    4    0    0  0.24730506749E+02  0.28177518669E+02 -0.39042307646E+01  0.37693680376E+02  0.00000000000E+00 0.  1.
         11    1    4    4    0    0 -0.29020081376E+02  0.68910416017E+01 -0.10383868198E+03  0.10803760203E+03  0.00000000000E+00 0. -1.
</event>
<event>
 8    1  0.3654190E-009  0.1705849E+03  0.7561462E-02  0.1177239E+00
         -4   -1    0    0    0  501 -0.00000000000E+00  0.00000000000E+00  0.25797347876E+03  0.25797347876E+03  0.00000000000E+00 0.  1.
          4   -1    0    0  501    0  0.00000000000E+00 -0.00000000000E+00 -0.14017502441E+03  0.14017502441E+03  0.00000000000E+00 0. -1.
         25    2    1    2    0    0  0.13549143397E+03 -0.75468887461E+02  0.64524960280E+02  0.20943643646E+03  0.12508664501E+03 0.  0.
         23    2    1    2    0    0 -0.13549143397E+03  0.75468887461E+02  0.53273494068E+02  0.18871206671E+03  0.93384673773E+02 0.  0.
          5    1    3    3  502    0  0.63760009359E+02 -0.91572299791E+02  0.75777109744E+02  0.13494616572E+03  0.41800000000E+01 0. -1.
         -5    1    3    3    0  502  0.71731424615E+02  0.16103412330E+02 -0.11252149463E+02  0.74490270731E+02  0.41800000000E+01 0. -1.
        -11    1    4    4    0    0 -0.71023574274E+02  0.30642142130E+02  0.74477263586E+02  0.10737854426E+03  0.00000000000E+00 0.  1.
         11    1    4    4    0    0 -0.64467859700E+02  0.44826745331E+02 -0.21203769518E+02  0.81333522444E+02  0.00000000000E+00 0. -1.
</event>
<event>
 8    1  0.3654190E-009  0.9711649E+02  0.7561462E-02  0.1286479E+00
          1   -1    0    0  501    0  0.00000000000E+00  0.00000000000E+00  0.19943905115E+03  0.19943905115E+03  0.00000000000E+00 0. -1.
         -1   -1    0    0    0  501 -0.00000000000E+00 -0.00000000000E+00 -0.79850047720E+02  0.79850047720E+02  0.00000000000E+00 0.  1.
         25    2    1    2    0    0 -0.62224851633E+02 -0.87779885336E+01  0.52224436097E+02  0.14941162084E+03  0.12508978964E+03 0.  0.
         23    2    1    2    0    0  0.62224851633E+02  0.87779885336E+01  0.67364567331E+02  0.12987747803E+03  0.91548834639E+02 0.  0.
          5    1    3    3  502    0  0.73396779525E+01 -0.45979174263E+02  0.52654897507E+02  0.70412825322E+02  0.41800000000E+01 0.  1.
         -5    1    3    3    0  502 -0.69564529586E+02  0.37201185730E+02 -0.43046141056E+00  0.78998795517E+02  0.41800000000E+01 0.  1.
        -11    1    4    4    0    0  0.30381692134E+02 -0.94224183393E+01  0.83838525641E+02  0.89670104082E+02  0.00000000000E+00 0. -1.
         11    1    4    4    0    0  0.31843159499E+02  0.18200406873E+02 -0.16473958311E+02  0.40207373946E+02  0.00000000000E+00 0.  1.
</event>
<event>
 8    1  0.3654190E-009  0.1190331E+03  0.7561462E-02  0.1244701E+00
          2   -1    0    0  501    0  0.00000000000E+00  0.00000000000E+00  0.28447483982E+03  0.28447483982E+03  0.00000000000E+00 0.  1.
         -2   -1    0    0    0  501 -0.00000000000E+00 -0.00000000000E+00 -0.73188844268E+02  0.73188844268E+02  0.00000000000E+00 0. -1.
         25    2    1    2    0    0  0.35143802673E+02  0.88548855425E+02  0.11662576954E+03  0.19576540542E+03  0.12508611904E+03 0.  0.
         23    2    1    2    0    0 -0.35143802673E+02 -0.88548855425E+02  0.94660226019E+02  0.16189827867E+03  0.90412983488E+02 0.  0.
          5    1    3    3  502    0  0.21169795638E+02  0.48184305096E+01 -0.23255207930E+02  0.32088231734E+02  0.41800000000E+01 0. -1.
         -5    1    3    3    0  502  0.13974007035E+02  0.83730424915E+02  0.13988097747E+03  0.16367717369E+03  0.41800000000E+01 0. -1.
        -11    1    4    4    0    0  0.25341099116E+01 -0.92991481358E+02  0.61566466482E+02  0.11155387538E+03  0.00000000000E+00 0.  1.
         11    1    4    4    0    0 -0.37677912584E+02  0.44426259338E+01  0.33093759537E+02  0.50344403286E+02  0.00000000000E+00 0. -1.
</event>
<event>
 8    1  0.3654190E-009  0.1169806E+03  0.7561462E-02  0.1248163E+00
          1   -1    0    0  501    0  0.00000000000E+00  0.00000000000E+00  0.38175906242E+03  0.38175906242E+03  0.00000000000E+00 0. -1.
         -1   -1    0    0    0  501 -0.00000000000E+00 -0.00000000000E+00 -0.41350903156E+02  0.41350903156E+02  0.00000000000E+00 0.  1.
         25    2    1    2    0    0 -0.23296706282E+02 -0.56854431646E+02  0.19928868518E+03  0.24318056446E+03  0.12508254862E+03 0.  0.
         23    2    1    2    0    0  0.23296706282E+02  0.56854431646E+02  0.14111947408E+03  0.17992940112E+03  0.93191847818E+02 0.  0.
          5    1    3    3  502    0 -0.66250204672E+02 -0.56490483051E+02  0.16993584634E+03  0.19098672354E+03  0.41800000000E+01 0. -1.
         -5    1    3    3    0  502  0.42953498391E+02 -0.36394859465E+00  0.29352838839E+02  0.52193840925E+02  0.41800000000E+01 0. -1.
        -11    1    4    4    0    0 -0.31016289351E+02  0.29586112042E+02  0.27065532765E+02  0.50694095265E+02  0.00000000000E+00 0.  1.
         11    1    4    4    0    0  0.54312995633E+02  0.27268319604E+02  0.11405394132E+03  0.12923530585E+03  0.00000000000E+00 0. -1.
</event>
<event>
 8    1  0.3654190E-009  0.1935503E+03  0.7561462E-02  0.1155298E+00
         -2   -1    0    0    0  501 -0.00000000000E+00  0.00000000000E+00  0.44267959804E+02  0.44267959804E+02  0.00000000000E+00 0.  1.
          2   -1    0    0  501    0  0.00000000000E+00 -0.00000000000E+00 -0.94654127712E+03  0.94654127712E+03  0.00000000000E+00 0. -1.
         25    2    1    2    0    0 -0.13942995507E+03 -0.10052551683E+03 -0.51451847982E+03  0.55670737804E+03  0.12509095403E+03 0.  0.
         23    2    1    2    0    0  0.13942995507E+03  0.10052551683E+03 -0.38775483750E+03  0.43410185889E+03  0.92436561943E+02 0.  0.
          5    1    3    3  502    0 -0.57441581517E+02 -0.11491192262E+03 -0.28962320895E+03  0.31686489362E+03  0.41800000000E+01 0. -1.
         -5    1    3    3    0  502 -0.81988373555E+02  0.14386405796E+02 -0.22489527087E+03  0.23984248441E+03  0.41800000000E+01 0. -1.
        -11    1    4    4    0    0  0.11915899476E+03  0.68874628504E+02 -0.20101946062E+03  0.24362143590E+03  0.00000000000E+00 0. -1.
         11    1    4    4    0    0  0.20270960314E+02  0.31650888322E+02 -0.18673537688E+03  0.19048042299E+03  0.00000000000E+00 0.  1.
</event>
<event>
 8    1  0.3654190E-009  0.1985205E+03  0.7561462E-02  0.1150993E+00
         -2   -1    0    0    0  501 -0.00000000000E+00  0.00000000000E+00  0.22316565793E+03  0.22316565793E+03  0.00000000000E+00 0.  1.
          2   -1    0    0  501    0  0.00000000000E+00 -0.00000000000E+00 -0.44161976615E+03  0.44161976615E+03  0.00000000000E+00 0. -1.
         25    2    1    2    0    0 -0.17116767061E+03  0.42595889349E+02  0.13860820445E+03  0.25685138099E+03  0.12509043258E+03 0.  0.
         23    2    1    2    0    0  0.17116767061E+03 -0.42595889349E+02 -0.35706231267E+03  0.40793404309E+03  0.88339725684E+02 0.  0.
          5    1    3    3  502    0  0.20167064918E+02  0.32656426578E+01  0.14047377821E+02  0.25143113431E+02  0.41800000000E+01 0.  1.
         -5    1    3    3    0  502 -0.19133473552E+03  0.39330246691E+02  0.12456082663E+03  0.23170826756E+03  0.41800000000E+01 0.  1.
        -11    1    4    4    0    0  0.12466745213E+03 -0.48835012064E+02 -0.17745236926E+03  0.22229749297E+03  0.00000000000E+00 0.  1.
         11    1    4    4    0    0  0.46500218479E+02  0.62391227149E+01 -0.17960994341E+03  0.18563655013E+03  0.00000000000E+00 0. -1.
</event>
<event>
 8    1  0.3654190E-009  0.1152569E+03  0.7561462E-02  0.1251133E+00
          1   -1    0    0  501    0  0.00000000000E+00  0.00000000000E+00  0.11033167871E+03  0.11033167871E+03  0.00000000000E+00 0. -1.
         -1   -1    0    0    0  501 -0.00000000000E+00 -0.00000000000E+00 -0.16835219579E+03  0.16835219579E+03  0.00000000000E+00 0.  1.
         25    2    1    2    0    0  0.17816566849E+02  0.46520258591E+02  0.34754064791E+02  0.13905880922E+03  0.12509173789E+03 0.  0.
         23    2    1    2    0    0 -0.17816566849E+02 -0.46520258591E+02 -0.92774581869E+02  0.13962506529E+03  0.91686810950E+02 0.  0.
          5    1    3    3  502    0  0.67396072783E+02  0.27546487429E+02  0.43763728539E+02  0.85051607461E+02  0.41800000000E+01 0.  1.
         -5    1    3    3    0  502 -0.49579505934E+02  0.18973771162E+02 -0.90096637478E+01  0.54007201757E+02  0.41800000000E+01 0.  1.
        -11    1    4    4    0    0  0.36890319356E+02 -0.28894411455E+02 -0.42646997282E+02  0.63360469164E+02  0.00000000000E+00 0. -1.
         11    1    4    4    0    0 -0.54706886205E+02 -0.17625847137E+02 -0.50127584587E+02  0.76264596125E+02  0.00000000000E+00 0.  1.
</event>
<event>
 8    1  0.3654190E-009  0.1835854E+03  0.7561462E-02  0.1164377E+00
         -2   -1    0    0    0  501 -0.00000000000E+00  0.00000000000E+00  0.57693705321E+03  0.57693705321E+03  0.00000000000E+00 0.  1.
          2   -1    0    0  501    0  0.00000000000E+00 -0.00000000000E+00 -0.72218462784E+02  0.72218462784E+02  0.00000000000E+00 0. -1.
         25    2    1    2    0    0  0.57482013241E+02  0.15951509799E+03  0.32265618941E+03  0.38536022242E+03  0.12508491569E+03 0.  0.
         23    2    1    2    0    0 -0.57482013241E+02 -0.15951509799E+03  0.18206240102E+03  0.26379529357E+03  0.87703994848E+02 0.  0.
          5    1    3    3  502    0 -0.13855728670E+00  0.13394839079E+03  0.14814957729E+03  0.19976976810E+03  0.41800000000E+01 0. -1.
         -5    1    3    3    0  502  0.57620570527E+02  0.25566707191E+02  0.17450661212E+03  0.18559045433E+03  0.41800000000E+01 0. -1.
        -11    1    4    4    0    0 -0.12243242599E+02 -0.50266865694E+02  0.11905740819E+03  0.12981263891E+03  0.00000000000E+00 0.  1.
         11    1    4    4    0    0 -0.45238770641E+02 -0.10924823229E+03  0.63004992830E+02  0.13398265466E+03  0.00000000000E+00 0. -1.
</event>
<event>
 8    1  0.3654190E-009  0.1248008E+03  0.7561462E-02  0.1235381E+00
          3   -1    0    0  501    0  0.00000000000E+00  0.00000000000E+00  0.18249123947E+03  0.18249123947E+03  0.00000000000E+00 0. -1.
         -3   -1    0    0    0  501 -0.00000000000E+00 -0.00000000000E+00 -0.11383332616E+03  0.11383332616E+03  0.00000000000E+00 0.  1.
         25    2    1    2    0    0  0.30836798015E+02 -0.90416399206E+02  0.34150444969E+02  0.16106053459E+03  0.12509280377E+03 0.  0.
         23    2    1    2    0    0 -0.30836798015E+02  0.90416399206E+02  0.34507468342E+02  0.13526403104E+03  0.89328379391E+02 0.  0.
          5    1    3    3  502    0 -0.39325444613E+02 -0.37027689192E+02 -0.19722720156E+02  0.57654127790E+02  0.41800000000E+01 0. -1.
         -5    1    3    3    0  502  0.70162242628E+02 -0.53388710015E+02  0.53873165125E+02  0.10340640680E+03  0.41800000000E+01 0. -1.
        -11    1    4    4    0    0 -0.31781534608E+02  0.21801921582E+02  0.51735752569E+02  0.64513392567E+02  0.00000000000E+00 0. -1.
         11    1    4    4    0    0  0.94473659297E+00  0.68614477624E+02 -0.17228284227E+02  0.70750638473E+02  0.00000000000E+00 0.  1.
</event>
<event>
 8    1  0.3654190E-009  0.9346183E+02  0.7561462E-02  0.1294678E+00
          1   -1    0    0  501    0  0.00000000000E+00  0.00000000000E+00  0.28216927597E+03  0.28216927597E+03  0.00000000000E+00 0. -1.
         -1   -1    0    0    0  501 -0.00000000000E+00 -0.00000000000E+00 -0.58521075013E+02  0.58521075013E+02  0.00000000000E+00 0.  1.
         25    2    1    2    0    0  0.50967947837E+01 -0.44008785934E+02  0.17833896510E+03  0.22229769209E+03  0.12509487152E+03 0.  0.
         23    2    1    2    0    0 -0.50967947837E+01  0.44008785934E+02  0.45309235857E+02  0.11839265889E+03  0.10000572118E+03 0.  0.
          5    1    3    3  502    0 -0.17092999540E+02 -0.77461976098E+02  0.67166794420E+02  0.10402585759E+03  0.41800000000E+01 0. -1.
         -5    1    3    3    0  502  0.22189794324E+02  0.33453190164E+02  0.11117217068E+03  0.11827183451E+03  0.41800000000E+01 0. -1.
        -11    1    4    4    0    0 -0.13350477780E+02 -0.72612730866E+01 -0.26037463144E+02  0.30148148048E+02  0.00000000000E+00 0.  1.
         11    1    4    4    0    0  0.82536829960E+01  0.51270059020E+02  0.71346699001E+02  0.88244510839E+02  0.00000000000E+00 0. -1.
</event>
<event>
 8    1  0.3654190E-009  0.2915203E+03  0.7561462E-02  0.1089558E+00
         -2   -1    0    0    0  501 -0.00000000000E+00  0.00000000000E+00  0.16372475013E+03  0.16372475013E+03  0.00000000000E+00 0.  1.
          2   -1    0    0  501    0  0.00000000000E+00 -0.00000000000E+00 -0.56261110189E+03  0.56261110189E+03  0.00000000000E+00 0. -1.
         25    2    1    2    0    0  0.20986457523E+02  0.27985435732E+03 -0.15282115077E+03  0.34316068684E+03  0.12508421227E+03 0.  0.
         23    2    1    2    0    0 -0.20986457523E+02 -0.27985435732E+03 -0.24606520099E+03  0.38317516519E+03  0.86696201583E+02 0.  0.
          5    1    3    3  502    0  0.49249954906E+02  0.26217568389E+03 -0.15658743469E+03  0.30935213654E+03  0.41800000000E+01 0.  1.
         -5    1    3    3    0  502 -0.28263497383E+02  0.17678673432E+02  0.37662839207E+01  0.33808550298E+02  0.41800000000E+01 0.  1.
        -11    1    4    4    0    0  0.93047543189E+01 -0.71855539304E+02 -0.11354894218E+03  0.13469654506E+03  0.00000000000E+00 0. -1.
         11    1    4    4    0    0 -0.30291211842E+02 -0.20799881801E+03 -0.13251625881E+03  0.24847862013E+03  0.00000000000E+00 0.  1.
</event>
<event>
 8    1  0.3654190E-009  0.1144498E+03  0.7561462E-02  0.1252545E+00
          2   -1    0    0  501    0  0.00000000000E+00  0.00000000000E+00  0.57577482396E+03  0.57577482396E+03  0.00000000000E+00 0. -1.
         -2   -1    0    0    0  501 -0.00000000000E+00 -0.00000000000E+00 -0.32238237108E+02  0.32238237108E+02  0.00000000000E+00 0.  1.
         25    2    1    2    0    0 -0.55145352350E+02  0.16340710019E+02  0.42790625280E+03  0.44950965015E+03  0.12508851147E+03 0.  0.
         23    2    1    2    0    0  0.55145352350E+02 -0.16340710019E+02  0.11563033405E+03  0.15850341092E+03  0.91896291714E+02 0.  0.
          5    1    3    3  502    0 -0.69086520452E+02  0.59661130145E+02  0.30440297859E+03  0.31782234586E+03  0.41800000000E+01 0. -1.
         -5    1    3    3    0  502  0.13941168101E+02 -0.43320420126E+02  0.12350327421E+03  0.13168730428E+03  0.41800000000E+01 0. -1.
        -11    1    4    4    0    0 -0.17537292525E+02 -0.51890075712E+01  0.69113218854E+02  0.71492093612E+02  0.00000000000E+00 0. -1.
         11    1    4    4    0    0  0.72682644875E+02 -0.11151702448E+02  0.46517115200E+02  0.87011317310E+02  0.00000000000E+00 0.  1.
</event>
<event>
 8    1  0.3654190E-009  0.1529155E+03  0.7561462E-02  0.1196936E+00
          4   -1    0    0  501    0  0.00000000000E+00  0.00000000000E+00  0.17697378128E+03  0.17697378128E+03  0.00000000000E+00 0. -1.
         -4   -1    0    0    0  501 -0.00000000000E+00 -0.00000000000E+00 -0.15361476007E+03  0.15361476007E+03  0.00000000000E+00 0.  1.
         25    2    1    2    0    0  0.35770066597E+02 -0.11517614593E+03  0.35553425919E+02  0.17736649314E+03  0.12509909886E+03 0.  0.
         23    2    1    2    0    0 -0.35770066597E+02  0.11517614593E+03 -0.12194404709E+02  0.15322204822E+03  0.93718996466E+02 0.  0.
          5    1    3    3  502    0 -0.37634845641E+02 -0.35679155689E+02  0.44840840213E+02  0.68684475015E+02  0.41800000000E+01 0.  1.
         -5    1    3    3    0  502  0.73404912238E+02 -0.79496990245E+02 -0.92874142941E+01  0.10868201812E+03  0.41800000000E+01 0.  1.
        -11    1    4    4    0    0 -0.61993268426E+02  0.72083442663E+02 -0.30050331212E+02  0.99710633546E+02  0.00000000000E+00 0.  1.
         11    1    4    4    0    0  0.26223201829E+02  0.43092703271E+02  0.17855926503E+02  0.53511414676E+02  0.00000000000E+00 0. -1.
</event>
<event>
 8    1  0.3654190E-009  0.8953048E+02  0.7561462E-02  0.1303993E+00
          1   -1    0    0  501    0  0.00000000000E+00  0.00000000000E+00  0.33084982967E+03  0.33084982967E+03  0.00000000000E+00 0. -1.
         -1   -1    0    0    0  501 -0.00000000000E+00 -0.00000000000E+00 -0.47994550148E+02  0.47994550148E+02  0.00000000000E+00 0.  1.
         25    2    1    2    0    0 -0.22831316011E+02 -0.49781376452E+02  0.10203389108E+03  0.17046467809E+03  0.12509131511E+03 0.  0.
         23    2    1    2    0    0  0.22831316011E+02  0.49781376452E+02  0.18082138845E+03  0.20837970173E+03  0.87899210130E+02 0.  0.
          5    1    3    3  502    0  0.10602182619E+02 -0.68752532387E+02  0.11072615491E+03  0.13083222373E+03  0.41800000000E+01 0. -1.
         -5    1    3    3    0  502 -0.33433498631E+02  0.18971155935E+02 -0.86922638262E+01  0.39632454361E+02  0.41800000000E+01 0. -1.
        -11    1    4    4    0    0  0.20451154813E+02 -0.40973622031E+00 -0.25916330494E+00  0.20456900610E+02  0.00000000000E+00 0.  1.
         11    1    4    4    0    0  0.23801611988E+01  0.50191112672E+02  0.18108055175E+03  0.18792280112E+03  0.00000000000E+00 0. -1.
</event>
<event>
 8    1  0.3654190E-009  0.1835722E+03  0.7561462E-02  0.1164390E+00
         -4   -1    0    0    0  501 -0.00000000000E+00  0.00000000000E+00  0.14674859806E+04  0.14674859806E+04  0.00000000000E+00 0.  1.
          4   -1    0    0  501    0  0.00000000000E+00 -0.00000000000E+00 -0.25983229698E+02  0.25983229698E+02  0.00000000000E+00 0. -1.
         25    2    1    2    0    0  0.50505704977E+02 -0.15263157002E+03  0.80896322718E+03  0.83421530762E+03  0.12508578714E+03 0.  0.
         23    2    1    2    0    0 -0.50505704977E+02  0.15263157002E+03  0.63253952368E+03  0.65925390263E+03  0.93071137924E+02 0.  0.
          5    1    3    3  502    0  0.50447581435E+02 -0.17211584382E+03  0.66091906303E+03  0.68483596755E+03  0.41800000000E+01 0.  1.
         -5    1    3    3    0  502  0.58123541848E-01  0.19484273802E+02  0.14804416414E+03  0.14937934007E+03  0.41800000000E+01 0.  1.
        -11    1    4    4    0    0 -0.37516711077E+02  0.41583184331E+02  0.95598286015E+02  0.11079574504E+03  0.00000000000E+00 0. -1.
         11    1    4    4    0    0 -0.12988993900E+02  0.11104838569E+03  0.53694123766E+03  0.54845815759E+03  0.00000000000E+00 0.  1.
</event>
<event>
 8    1  0.3654190E-009  0.3229288E+03  0.7561462E-02  0.1074309E+00
         -2   -1    0    0    0  501 -0.00000000000E+00  0.00000000000E+00  0.73369700157E+02  0.73369700157E+02  0.00000000000E+00 0.  1.
          2   -1    0    0  501    0  0.00000000000E+00 -0.00000000000E+00 -0.21522602833E+04  0.21522602833E+04  0.00000000000E+00 0. -1.
         25    2    1    2    0    0  0.29231383475E+03  0.97741171030E+02 -0.16863944767E+04  0.17188874020E+04  0.12508738991E+03 0.  0.
         23    2    1    2    0    0 -0.29231383475E+03 -0.97741171030E+02 -0.39249610647E+03  0.50674258151E+03  0.87943935689E+02 0.  0.
          5    1    3    3  502    0 -0.92699191385E+01  0.19926876239E+01 -0.14362441859E+03  0.14399773686E+03  0.41800000000E+01 0.  1.
         -5    1    3    3    0  502  0.30158375389E+03  0.95748483406E+02 -0.15427700581E+04  0.15748896651E+04  0.41800000000E+01 0.  1.
        -11    1    4    4    0    0 -0.23438439595E+03 -0.40966857814E+02 -0.31298907423E+03  0.39316216641E+03  0.00000000000E+00 0. -1.
         11    1    4    4    0    0 -0.57929438793E+02 -0.56774313216E+02 -0.79507032242E+02  0.11358041511E+03  0.00000000000E+00 0.  1.
</event>
<event>
 8    1  0.3654190E-009  0.1287750E+03  0.7561462E-02  0.1229285E+00
          4   -1    0    0  501    0  0.00000000000E+00  0.00000000000E+00  0.22794849172E+03  0.22794849172E+03  0.00000000000E+00 0. -1.
         -4   -1    0    0    0  501 -0.00000000000E+00 -0.00000000000E+00 -0.92111471048E+02  0.92111471048E+02  0.00000000000E+00 0.  1.
         25    2    1    2    0    0 -0.92291424326E+02 -0.21783528175E+02  0.60221143413E+02  0.16812645658E+03  0.12509072781E+03 0.  0.
         23    2    1    2    0    0  0.92291424326E+02  0.21783528175E+02  0.75615877257E+02  0.15193350619E+03  0.91508471224E+02 0.  0.
          5    1    3    3  502    0  0.15747634765E+02 -0.22407804032E+01  0.55791795175E+02  0.58165332513E+02  0.41800000000E+01 0.  1.
         -5    1    3    3    0  502 -0.10803905909E+03 -0.19542747772E+02  0.44293482384E+01  0.10996112406E+03  0.41800000000E+01 0.  1.
        -11    1    4    4    0    0  0.26973343841E+02  0.52521266283E+02  0.27162994878E+02  0.64991330043E+02  0.00000000000E+00 0.  1.
         11    1    4    4    0    0  0.65318080485E+02 -0.30737738108E+02  0.48452882379E+02  0.86942176146E+02  0.00000000000E+00 0. -1.
</event>
<event>
 8    1  0.3654190E-009  0.1124063E+03  0.7561462E-02  0.1256178E+00
         -3   -1    0    0    0  501 -0.00000000000E+00  0.00000000000E+00  0.90647252287E+02  0.90647252287E+02  0.00000000000E+00 0.  1.
          3   -1    0    0  501    0  0.00000000000E+00 -0.00000000000E+00 -0.16790024512E+03  0.16790024512E+03  0.00000000000E+00 0. -1.
         25    2    1    2    0    0 -0.38206286613E+02 -0.21551673733E+02 -0.15971927817E+01  0.13255131817E+03  0.12507240282E+03 0.  0.
         23    2    1    2    0    0  0.38206286613E+02  0.21551673733E+02 -0.75655800048E+02  0.12599617923E+03  0.90703043623E+02 0.  0.
          5    1    3    3  502    0 -0.80335283902E+02 -0.15438809475E+02  0.20453749351E+02  0.84427145754E+02  0.41800000000E+01 0.  1.
         -5    1    3    3    0  502  0.42128997288E+02 -0.61128642585E+01 -0.22050942133E+02  0.48124172418E+02  0.41800000000E+01 0.  1.
        -11    1    4    4    0    0  0.40531338696E+02 -0.28799253686E+02 -0.44593809441E+02  0.66789177790E+02  0.00000000000E+00 0.  1.
         11    1    4    4    0    0 -0.23250520831E+01  0.50350927420E+02 -0.31061990607E+02  0.59207001441E+02  0.00000000000E+00 0. -1.
</event>
<event>
 8    1  0.3654190E-009  0.1368807E+03  0.7561462E-02  0.1217589E+00
          2   -1    0    0  501    0  0.00000000000E+00  0.00000000000E+00  0.63622056793E+03  0.63622056793E+03  0.00000000000E+00 0.  1.
         -2   -1    0    0    0  501 -0.00000000000E+00 -0.00000000000E+00 -0.36622360458E+02  0.36622360458E+02  0.00000000000E+00 0. -1.
         25    2    1    2    0    0 -0.50821550799E+02  0.93933142333E+02  0.36301474773E+03  0.39853896898E+03  0.12508931798E+03 0.  0.
         23    2    1    2    0    0  0.50821550799E+02 -0.93933142333E+02  0.23658345974E+03  0.27430395941E+03  0.88682937874E+02 0.  0.
          5    1    3    3  502    0  0.18232914286E+02  0.50422679898E+02  0.26740639366E+03  0.27276095318E+03  0.41800000000E+01 0.  1.
         -5    1    3    3    0  502 -0.69054465085E+02  0.43510462435E+02  0.95608354069E+02  0.12577801579E+03  0.41800000000E+01 0.  1.
        -11    1    4    4    0    0  0.75217332801E+02 -0.58755726135E+02  0.15152240866E+03  0.17907797976E+03  0.00000000000E+00 0.  1.
         11    1    4    4    0    0 -0.24395782002E+02 -0.35177416198E+02  0.85061051081E+02  0.95225979652E+02  0.00000000000E+00 0. -1.
</event>
<event>
 8    1  0.3654190E-009  0.1116118E+03  0.7561462E-02  0.1257614E+00
          3   -1    0    0  501    0  0.00000000000E+00  0.00000000000E+00  0.34233740786E+02  0.34233740786E+02  0.00000000000E+00 0. -1.
         -3   -1    0    0    0  501 -0.00000000000E+00 -0.00000000000E+00 -0.37377754158E+03  0.37377754158E+03  0.00000000000E+00 0.  1.
         25    2    1    2    0    0 -0.98155057504E+01 -0.28296360355E+02 -0.19480828895E+03  0.23344099664E+03  0.12508957314E+03 0.  0.
         23    2    1    2    0    0  0.98155057504E+01  0.28296360355E+02 -0.14473551184E+03  0.17457028572E+03  0.92894499869E+02 0.  0.
          5    1    3    3  502    0 -0.51735084277E+01  0.49688606628E+02 -0.83384661361E+02  0.97294383026E+02  0.41800000000E+01 0.  1.
         -5    1    3    3    0  502 -0.46419973228E+01 -0.77984966983E+02 -0.11142362759E+03  0.13614661361E+03  0.41800000000E+01 0.  1.
        -11    1    4    4    0    0  0.41932382279E+02 -0.11726374042E+02 -0.46270606941E+02  0.63535829250E+02  0.00000000000E+00 0.  1.
         11    1    4    4    0    0 -0.32116876529E+02  0.40022734397E+02 -0.98464904903E+02  0.11103445647E+03  0.00000000000E+00 0. -1.
</event>
<event>
 8    1  0.3654190E-009  0.1185978E+03  0.7561462E-02  0.1245428E+00
          2   -1    0    0  501    0  0.00000000000E+00  0.00000000000E+00  0.63154445127E+03  0.63154445127E+03  0.00000000000E+00 0. -1.
         -2   -1    0    0    0  501 -0.00000000000E+00 -0.00000000000E+00 -0.33436841804E+02  0.33436841804E+02  0.00000000000E+00 0.  1.
         25    2    1    2    0    0  0.10424957112E+02  0.51705441271E+02  0.14238028164E+03  0.19673712377E+03  0.12510483157E+03 0.  0.
         23    2    1    2    0    0 -0.10424957112E+02 -0.51705441271E+02  0.45572732782E+03  0.46824416929E+03  0.93718047187E+02 0.  0.
          5    1    3    3  502    0 -0.52135297254E+02  0.44063238857E+02  0.98150914743E+02  0.11962747470E+03  0.41800000000E+01 0.  1.
         -5    1    3    3    0  502  0.62560254366E+02  0.76422024138E+01  0.44229366898E+02  0.77109649074E+02  0.41800000000E+01 0.  1.
        -11    1    4    4    0    0  0.35044402281E+02  0.22092102065E+01  0.11278825392E+03  0.11812781622E+03  0.00000000000E+00 0.  1.
         11    1    4    4    0    0 -0.45469359393E+02 -0.53914651477E+02  0.34293907390E+03  0.35011635308E+03  0.00000000000E+00 0. -1.
</event>
<event>
 8    1  0.3654190E-009  0.8806693E+02  0.7561462E-02  0.1307602E+00
          2   -1    0    0  501    0  0.00000000000E+00  0.00000000000E+00  0.41615394305E+03  0.41615394305E+03  0.00000000000E+00 0.  1.
         -2   -1    0    0    0  501 -0.00000000000E+00 -0.00000000000E+00 -0.48852020822E+02  0.48852020822E+02  0.00000000000E+00 0. -1.
         25    2    1    2    0    0 -0.41109114524E+02 -0.18104354880E+02  0.69058889909E+02  0.14978608707E+03  0.12509602169E+03 0.  0.
         23    2    1    2    0    0  0.41109114524E+02  0.18104354880E+02  0.29824303232E+03  0.31521987680E+03  0.91634804748E+02 0.  0.
          5    1    3    3  502    0 -0.15570511979E+02  0.33897191942E+02 -0.20705553535E+02  0.42867852897E+02  0.41800000000E+01 0. -1.
         -5    1    3    3    0  502 -0.25538602545E+02 -0.52001546822E+02  0.89764443445E+02  0.10691823417E+03  0.41800000000E+01 0. -1.
        -11    1    4    4    0    0  0.64480799095E+00 -0.22897570919E+02  0.18042605832E+02  0.29159049309E+02  0.00000000000E+00 0. -1.
         11    1    4    4    0    0  0.40464306533E+02  0.41001925800E+02  0.28020042649E+03  0.28606082749E+03  0.00000000000E+00 0.  1.
</event>
<event>
 8    1  0.3654190E-009  0.1508675E+03  0.7561462E-02  0.1199411E+00
          1   -1    0    0  501    0  0.00000000000E+00  0.00000000000E+00  0.34751286904E+03  0.34751286904E+03  0.00000000000E+00 0. -1.
         -1   -1    0    0    0  501 -0.00000000000E+00 -0.00000000000E+00 -0.76614509454E+02  0.76614509454E+02  0.00000000000E+00 0.  1.
         25    2    1    2    0    0  0.87575851727E+02  0.76419162908E+02  0.96590651852E+02  0.19617944534E+03  0.12508877840E+03 0.  0.
         23    2    1    2    0    0 -0.87575851727E+02 -0.76419162908E+02  0.17430770773E+03  0.22794793315E+03  0.89820181413E+02 0.  0.
          5    1    3    3  502    0  0.84859857792E+02  0.99750351261E+02  0.43646252460E+02  0.13810791359E+03  0.41800000000E+01 0.  1.
         -5    1    3    3    0  502  0.27159939354E+01 -0.23331188353E+02  0.52944399392E+02  0.58071531752E+02  0.41800000000E+01 0.  1.
        -11    1    4    4    0    0 -0.59265334204E+02 -0.95721237676E+02  0.13596502162E+03  0.17652598190E+03  0.00000000000E+00 0. -1.
         11    1    4    4    0    0 -0.28310517524E+02  0.19302074768E+02  0.38342686108E+02  0.51421951254E+02  0.00000000000E+00 0.  1.
</event>
<event>
 8    1  0.3654190E-009  0.9656237E+02  0.7561462E-02  0.1287696E+00
          1   -1    0    0  501    0  0.00000000000E+00  0.00000000000E+00  0.56331589081E+02  0.56331589081E+02  0.00000000000E+00 0.  1.
         -1   -1    0    0    0  501 -0.00000000000E+00 -0.00000000000E+00 -0.22431261129E+03  0.22431261129E+03  0.00000000000E+00 0. -1.
         25    2    1    2    0    0  0.80934862096E+01  0.21434729623E+01 -0.13250096351E+03  0.18241130437E+03  0.12508908679E+03 0.  0.
         23    2    1    2    0    0 -0.80934862096E+01 -0.21434729623E+01 -0.35480058703E+02  0.98232896007E+02  0.91218245417E+02 0.  0.
          5    1    3    3  502    0 -0.34515226977E+01  0.62636905599E+02 -0.76950398163E+02  0.99368662713E+02  0.41800000000E+01 0. -1.
         -5    1    3    3    0  502  0.11545008907E+02 -0.60493432636E+02 -0.55550565347E+02  0.83042641656E+02  0.41800000000E+01 0. -1.
        -11    1    4    4    0    0  0.24383657737E+02  0.18001921313E+02  0.15877356792E+02  0.34215820818E+02  0.00000000000E+00 0.  1.
         11    1    4    4    0    0 -0.32477143947E+02 -0.20145394275E+02 -0.51357415495E+02  0.64017075189E+02  0.00000000000E+00 0. -1.
</event>
<event>
 8    1  0.3654190E-009  0.1010837E+03  0.7561462E-02  0.1278033E+00
          2   -1    0    0  501    0  0.00000000000E+00  0.00000000000E+00  0.15757690044E+03  0.15757690044E+03  0.00000000000E+00 0. -1.
         -2   -1    0    0    0  501 -0.00000000000E+00 -0.00000000000E+00 -0.90752743623E+02  0.90752743623E+02  0.00000000000E+00 0.  1.
         25    2    1    2    0    0 -0.17224256455E+02 -0.36059566305E+02  0.34488107275E+01  0.13136123688E+03  0.12508762100E+03 0.  0.
         23    2    1    2    0    0  0.17224256455E+02  0.36059566305E+02  0.63375346084E+02  0.11696840717E+03  0.89823195517E+02 0.  0.
          5    1    3    3  502    0 -0.59653594678E+02 -0.56570868293E+02  0.12288681797E+02  0.83230394675E+02  0.41800000000E+01 0. -1.
         -5    1    3    3    0  502  0.42429338223E+02  0.20511301988E+02 -0.88398710693E+01  0.48130842210E+02  0.41800000000E+01 0. -1.
        -11    1    4    4    0    0 -0.13580494019E+02  0.39283020082E+02  0.73452807074E+02  0.84397276920E+02  0.00000000000E+00 0. -1.
         11    1    4    4    0    0  0.30804750474E+02 -0.32234537772E+01 -0.10077460989E+02  0.32571130254E+02  0.00000000000E+00 0.  1.
</event>
<event>
 8    1  0.3654190E-009  0.1352033E+03  0.7561462E-02  0.1219933E+00
         -1   -1    0    0    0  501 -0.00000000000E+00  0.00000000000E+00  0.24573223995E+03  0.24573223995E+03  0.00000000000E+00 0.  1.
          1   -1    0    0  501    0  0.00000000000E+00 -0.00000000000E+00 -0.24515437830E+03  0.24515437830E+03  0.00000000000E+00 0. -1.
         25    2    1    2    0    0  0.46292971702E+02  0.10229018968E+03  0.18941313543E+03  0.25324086185E+03  0.12508907268E+03 0.  0.
         23    2    1    2    0    0 -0.46292971702E+02 -0.10229018968E+03 -0.18883527379E+03  0.23764575640E+03  0.90611383257E+02 0.  0.
          5    1    3    3  502    0  0.55839381670E+02  0.11724178555E+03  0.10548468911E+03  0.16735640072E+03  0.41800000000E+01 0.  1.
         -5    1    3    3    0  502 -0.95464099678E+01 -0.14951595873E+02  0.83928446323E+02  0.85884461136E+02  0.41800000000E+01 0.  1.
        -11    1    4    4    0    0 -0.45262901914E+02 -0.41356229671E+02 -0.15772329699E+03  0.16922088062E+03  0.00000000000E+00 0. -1.
         11    1    4    4    0    0 -0.10300697883E+01 -0.60933960007E+02 -0.31111976791E+02  0.68424875782E+02  0.00000000000E+00 0.  1.
</event>
<event>
 8    1  0.3654190E-009  0.1873814E+03  0.7561462E-02  0.1160845E+00
         -2   -1    0    0    0  501 -0.00000000000E+00  0.00000000000E+00  0.15135666376E+04  0.15135666376E+04  0.00000000000E+00 0.  1.
          2   -1    0    0  501    0  0.00000000000E+00 -0.00000000000E+00 -0.24564367465E+02  0.24564367465E+02  0.00000000000E+00 0. -1.
         25    2    1    2    0    0  0.15552184979E+03  0.28875791973E+02  0.72415086291E+03  0.75170649514E+03  0.12508926997E+03 0.  0.
         23    2    1    2    0    0 -0.15552184979E+03 -0.28875791973E+02  0.76485140721E+03  0.78642450991E+03  0.91896558960E+02 0.  0.
          5    1    3    3  502    0  0.79661347838E+02 -0.41654531436E+02  0.23389348673E+03  0.25060859096E+03  0.41800000000E+01 0. -1.
         -5    1    3    3    0  502  0.75860501953E+02  0.70530323410E+02  0.49025737618E+03  0.50109790418E+03  0.41800000000E+01 0. -1.
        -11    1    4    4    0    0 -0.79811335526E+02  0.29929998564E+02  0.41585376469E+03  0.42449971461E+03  0.00000000000E+00 0.  1.
         11    1    4    4    0    0 -0.75710514265E+02 -0.58805790538E+02  0.34899764251E+03  0.36192479530E+03  0.00000000000E+00 0. -1.
</event>
<event>
 8    1  0.3654190E-009  0.1079443E+03  0.7561462E-02  0.1264425E+00
         -2   -1    0    0    0  501 -0.00000000000E+00  0.00000000000E+00  0.80153645773E+02  0.80153645773E+02  0.00000000000E+00 0.  1.
          2   -1    0    0  501    0  0.00000000000E+00 -0.00000000000E+00 -0.17239375450E+03  0.17239375450E+03  0.00000000000E+00 0. -1.
         25    2    1    2    0    0  0.54007042416E+01 -0.17319856104E+02 -0.98408583713E+02  0.16018975537E+03  0.12508942144E+03 0.  0.
         23    2    1    2    0    0 -0.54007042416E+01  0.17319856104E+02  0.61684749851E+01  0.92357644899E+02  0.90347880251E+02 0.  0.
          5    1    3    3  502    0  0.28365579408E+02 -0.65751087695E+02 -0.65617669652E+02  0.97216061424E+02  0.41800000000E+01 0. -1.
         -5    1    3    3    0  502 -0.22964875166E+02  0.48431231591E+02 -0.32790914061E+02  0.62973693950E+02  0.41800000000E+01 0. -1.
        -11    1    4    4    0    0 -0.44111300220E+02  0.25327046295E+02 -0.54479781229E+01  0.51156099800E+02  0.00000000000E+00 0.  1.
         11    1    4    4    0    0  0.38710595978E+02 -0.80071901906E+01  0.11616453108E+02  0.41201545099E+02  0.00000000000E+00 0. -1.
</event>
<event>
 8    1  0.3654190E-009  0.1436106E+03  0.7561462E-02  0.1208552E+00
         -2   -1    0    0    0  501 -0.00000000000E+00  0.00000000000E+00  0.19095910439E+02  0.19095910439E+02  0.00000000000E+00 0.  1.
          2   -1    0    0  501    0  0.00000000000E+00 -0.00000000000E+00 -0.11541653297E+04  0.11541653297E+04  0.00000000000E+00 0. -1.
         25    2    1    2    0    0  0.56904072189E+02  0.80023310309E+02 -0.69192149019E+03  0.70996110346E+03  0.12509043216E+03 0.  0.
         23    2    1    2    0    0 -0.56904072189E+02 -0.80023310309E+02 -0.44314792911E+03  0.46330013671E+03  0.92871556364E+02 0.  0.
          5    1    3    3  502    0  0.87790330020E+02  0.89776046172E+02 -0.57491260122E+03  0.58848012027E+03  0.41800000000E+01 0.  1.
         -5    1    3    3    0  502 -0.30886257831E+02 -0.97527358628E+01 -0.11700888897E+03  0.12148098319E+03  0.41800000000E+01 0.  1.
        -11    1    4    4    0    0  0.10031812735E+02 -0.57402493104E+02 -0.13299349255E+03  0.14519969884E+03  0.00000000000E+00 0.  1.
         11    1    4    4    0    0 -0.66935884924E+02 -0.22620817205E+02 -0.31015443655E+03  0.31810043787E+03  0.00000000000E+00 0. -1.
</event>
<event>
 8    1  0.3654190E-009  0.4948977E+03  0.7561462E-02  0.1015119E+00
          2   -1    0    0  501    0  0.00000000000E+00  0.00000000000E+00  0.14249456527E+04  0.14249456527E+04  0.00000000000E+00 0. -1.
         -2   -1    0    0    0  501 -0.00000000000E+00 -0.00000000000E+00 -0.20536950867E+03  0.20536950867E+03  0.00000000000E+00 0.  1.
         25    2    1    2    0    0  0.42708532066E+03 -0.24679681332E+03  0.32249879196E+03  0.60246408548E+03  0.12508783031E+03 0.  0.
         23    2    1    2    0    0 -0.42708532066E+03  0.24679681332E+03  0.89707735203E+03  0.10278510759E+04  0.91757944747E+02 0.  0.
          5    1    3    3  502    0  0.32926278143E+03 -0.19983382595E+03  0.18514321725E+03  0.42736754735E+03  0.41800000000E+01 0. -1.
         -5    1    3    3    0  502  0.97822539229E+02 -0.46962987365E+02  0.13735557470E+03  0.17509653813E+03  0.41800000000E+01 0. -1.
        -11    1    4    4    0    0 -0.31561504017E+03  0.15501754465E+03  0.70208365252E+03  0.78521637009E+03  0.00000000000E+00 0. -1.
         11    1    4    4    0    0 -0.11147028049E+03  0.91779268671E+02  0.19499369951E+03  0.24263470576E+03  0.00000000000E+00 0.  1.
</event>
<event>
 8    1  0.3654190E-009  0.9483406E+02  0.7561462E-02  0.1291550E+00
          1   -1    0    0  501    0  0.00000000000E+00  0.00000000000E+00  0.15317731088E+03  0.15317731088E+03  0.00000000000E+00 0. -1.
         -1   -1    0    0    0  501 -0.00000000000E+00 -0.00000000000E+00 -0.98892198002E+02  0.98892198002E+02  0.00000000000E+00 0.  1.
         25    2    1    2    0    0  0.41162447616E+02  0.30568278342E+02  0.44527221883E+02  0.14232462874E+03  0.12507941366E+03 0.  0.
         23    2    1    2    0    0 -0.41162447616E+02 -0.30568278342E+02  0.97578909945E+01  0.10974488014E+03  0.96539916857E+02 0.  0.
          5    1    3    3  502    0 -0.27976884999E+02  0.47901135257E+01  0.60278438502E+02  0.66757874667E+02  0.41800000000E+01 0.  1.
         -5    1    3    3    0  502  0.69139332615E+02  0.25778164817E+02 -0.15751216619E+02  0.75566754070E+02  0.41800000000E+01 0.  1.
        -11    1    4    4    0    0 -0.22511423087E+02 -0.53186737766E+02  0.37922036674E+02  0.69091780330E+02  0.00000000000E+00 0. -1.
         11    1    4    4    0    0 -0.18651024529E+02  0.22618459424E+02 -0.28164145680E+02  0.40653099815E+02  0.00000000000E+00 0.  1.
</event>
<event>
 8    1  0.3654190E-009  0.1114278E+03  0.7561462E-02  0.1257948E+00
          2   -1    0    0  501    0  0.00000000000E+00  0.00000000000E+00  0.82289280925E+02  0.82289280925E+02  0.00000000000E+00 0. -1.
         -2   -1    0    0    0  501 -0.00000000000E+00 -0.00000000000E+00 -0.20912908684E+03  0.20912908684E+03  0.00000000000E+00 0.  1.
         25    2    1    2    0    0  0.26145971970E+02 -0.70222488121E+02 -0.71386646926E+02  0.16235291069E+03  0.12509038557E+03 0.  0.
         23    2    1    2    0    0 -0.26145971970E+02  0.70222488121E+02 -0.55453158991E+02  0.12906545708E+03  0.89263820666E+02 0.  0.
          5    1    3    3  502    0  0.26931336598E+02  0.18649410476E+02  0.16825055307E+02  0.37062815437E+02  0.41800000000E+01 0. -1.
         -5    1    3    3    0  502 -0.78536462823E+00 -0.88871898598E+02 -0.88211702232E+02  0.12529009525E+03  0.41800000000E+01 0. -1.
        -11    1    4    4    0    0 -0.35786028108E+01  0.77164340705E+02 -0.10060876273E+02  0.77899699011E+02  0.00000000000E+00 0. -1.
         11    1    4    4    0    0 -0.22567369159E+02 -0.69418525839E+01 -0.45392282718E+02  0.51165758065E+02  0.00000000000E+00 0.  1.
</event>
<event>
 8    1  0.3654190E-009  0.1309231E+03  0.7561462E-02  0.1226092E+00
         -1   -1    0    0    0  501 -0.00000000000E+00  0.00000000000E+00  0.77315407643E+03  0.77315407643E+03  0.00000000000E+00 0.  1.
          1   -1    0    0  501    0  0.00000000000E+00 -0.00000000000E+00 -0.29441676837E+02  0.29441676837E+02  0.00000000000E+00 0. -1.
         25    2    1    2    0    0  0.10302405744E+03  0.14467943329E+02  0.41661709134E+03  0.44725891100E+03  0.12508978724E+03 0.  0.
         23    2    1    2    0    0 -0.10302405744E+03 -0.14467943329E+02  0.32709530825E+03  0.35533684227E+03  0.91921994088E+02 0.  0.
          5    1    3    3  502    0  0.78889765241E+02 -0.40350167196E+02  0.15268849035E+03  0.17658702822E+03  0.41800000000E+01 0.  1.
         -5    1    3    3    0  502  0.24134292204E+02  0.54818110524E+02  0.26392860100E+03  0.27067188278E+03  0.41800000000E+01 0.  1.
        -11    1    4    4    0    0 -0.59058644926E+02  0.14030553806E+02  0.68668464768E+02  0.91652266934E+02  0.00000000000E+00 0. -1.
         11    1    4    4    0    0 -0.43965412519E+02 -0.28498497134E+02  0.25842684348E+03  0.26368457533E+03  0.00000000000E+00 0.  1.
</event>
<event>
 8    1  0.3654190E-009  0.1303962E+03  0.7561462E-02  0.1226869E+00
         -2   -1    0    0    0  501 -0.00000000000E+00  0.00000000000E+00  0.61697639334E+02  0.61697639334E+02  0.00000000000E+00 0.  1.
          2   -1    0    0  501    0  0.00000000000E+00 -0.00000000000E+00 -0.40208665698E+03  0.40208665698E+03  0.00000000000E+00 0. -1.
         25    2    1    2    0    0 -0.12133715637E+02 -0.76838626544E+02 -0.30570054895E+03  0.33934046869E+03  0.12509087290E+03 0.  0.
         23    2    1    2    0    0  0.12133715637E+02  0.76838626544E+02 -0.34688468697E+02  0.12444382762E+03  0.90728026469E+02 0.  0.
          5    1    3    3  502    0 -0.64193512834E+02 -0.55922662294E+02 -0.22798501927E+03  0.24339842370E+03  0.41800000000E+01 0. -1.
         -5    1    3    3    0  502  0.52059797197E+02 -0.20915964250E+02 -0.77715529675E+02  0.95942044993E+02  0.41800000000E+01 0. -1.
        -11    1    4    4    0    0 -0.37666422324E+02  0.50372314414E+02 -0.22033092191E+02  0.66645229249E+02  0.00000000000E+00 0.  1.
         11    1    4    4    0    0  0.49800137961E+02  0.26466312130E+02 -0.12655376506E+02  0.57798598368E+02  0.00000000000E+00 0. -1.
</event>
<event>
 8    1  0.3654190E-009  0.1702278E+03  0.7561462E-02  0.1177610E+00
         -2   -1    0    0    0  501 -0.00000000000E+00  0.00000000000E+00  0.35226938777E+02  0.35226938777E+02  0.00000000000E+00 0. -1.
          2   -1    0    0  501    0  0.00000000000E+00 -0.00000000000E+00 -0.17230259970E+04  0.17230259970E+04  0.00000000000E+00 0.  1.
         25    2    1    2    0    0 -0.13854300802E+03  0.23333623369E+01 -0.14649066210E+04  0.14767528844E+04  0.12509222127E+03 0.  0.
         23    2    1    2    0    0  0.13854300802E+03 -0.23333623369E+01 -0.22289243727E+03  0.28150005138E+03  0.10179209539E+03 0.  0.
          5    1    3    3  502    0 -0.69801147435E+01  0.39483587646E+02 -0.17340445482E+03  0.17802879836E+03  0.41800000000E+01 0. -1.
         -5    1    3    3    0  502 -0.13156289328E+03 -0.37150225309E+02 -0.12915021662E+04  0.12987240861E+04  0.41800000000E+01 0. -1.
        -11    1    4    4    0    0  0.12025886769E+03  0.32025565851E+02 -0.12607258554E+03  0.17715001820E+03  0.00000000000E+00 0.  1.
         11    1    4    4    0    0  0.18284140333E+02 -0.34358928188E+02 -0.96819851738E+02  0.10435003318E+03  0.00000000000E+00 0. -1.
</event>
<event>
 8    1  0.3654190E-009  0.1317117E+03  0.7561462E-02  0.1224938E+00
          3   -1    0    0  501    0  0.00000000000E+00  0.00000000000E+00  0.34777591612E+03  0.34777591612E+03  0.00000000000E+00 0. -1.
         -3   -1    0    0    0  501 -0.00000000000E+00 -0.00000000000E+00 -0.65747642451E+02  0.65747642451E+02  0.00000000000E+00 0.  1.
         25    2    1    2    0    0  0.10015268948E+03  0.20906729264E+02  0.12188634504E+03  0.20241723720E+03  0.12509518084E+03 0.  0.
         23    2    1    2    0    0 -0.10015268948E+03 -0.20906729264E+02  0.16014192862E+03  0.21110632137E+03  0.91939050897E+02 0.  0.
          5    1    3    3  502    0  0.41438975910E+02 -0.28083625506E+02 -0.87491171359E+01  0.50989196863E+02  0.41800000000E+01 0. -1.
         -5    1    3    3    0  502  0.58713713570E+02  0.48990354770E+02  0.13063546218E+03  0.15142804034E+03  0.41800000000E+01 0. -1.
        -11    1    4    4    0    0  0.70448902709E+01 -0.28292559712E+02  0.44953550744E+02  0.53580977394E+02  0.00000000000E+00 0. -1.
         11    1    4    4    0    0 -0.10719757975E+03  0.73858304477E+01  0.11518837788E+03  0.15752534398E+03  0.00000000000E+00 0.  1.
</event>
<event>
 8    1  0.3654190E-009  0.1915259E+03  0.7561462E-02  0.1157092E+00
          1   -1    0    0  501    0  0.00000000000E+00  0.00000000000E+00  0.98696478231E+03  0.98696478231E+03  0.00000000000E+00 0. -1.
         -1   -1    0    0    0  501 -0.00000000000E+00 -0.00000000000E+00 -0.41727528848E+02  0.41727528848E+02  0.00000000000E+00 0.  1.
         25    2    1    2    0    0  0.16309276838E+03  0.24017947680E+02  0.60304068881E+03  0.63755900301E+03  0.12508915643E+03 0.  0.
         23    2    1    2    0    0 -0.16309276838E+03 -0.24017947680E+02  0.34219656466E+03  0.39113330815E+03  0.93330932560E+02 0.  0.
          5    1    3    3  502    0 -0.18051041567E+02  0.97208799927E+01  0.31515133283E+02  0.37828714429E+02  0.41800000000E+01 0.  1.
         -5    1    3    3    0  502  0.18114380994E+03  0.14297067687E+02  0.57152555552E+03  0.59973028858E+03  0.41800000000E+01 0.  1.
        -11    1    4    4    0    0 -0.90022371864E+02  0.23714528080E+02  0.23584348072E+03  0.25355187571E+03  0.00000000000E+00 0. -1.
         11    1    4    4    0    0 -0.73070396514E+02 -0.47732475760E+02  0.10635308394E+03  0.13758143244E+03  0.00000000000E+00 0.  1.
</event>
<event>
 8    1  0.3654190E-009  0.1541211E+03  0.7561462E-02  0.1195499E+00
          1   -1    0    0  501    0  0.00000000000E+00  0.00000000000E+00  0.13721712150E+04  0.13721712150E+04  0.00000000000E+00 0. -1.
         -1   -1    0    0    0  501 -0.00000000000E+00 -0.00000000000E+00 -0.20013735500E+02  0.20013735500E+02  0.00000000000E+00 0.  1.
         25    2    1    2    0    0 -0.19361659289E+02 -0.12038995248E+03  0.84071196554E+03  0.85866916931E+03  0.12509004283E+03 0.  0.
         23    2    1    2    0    0  0.19361659289E+02  0.12038995248E+03  0.51144551400E+03  0.53351578123E+03  0.90520497791E+02 0.  0.
          5    1    3    3  502    0 -0.51218214092E+02 -0.12770124839E+03  0.74029453069E+03  0.75298365113E+03  0.41800000000E+01 0. -1.
         -5    1    3    3    0  502  0.31856554803E+02  0.73112959156E+01  0.10041743484E+03  0.10568551818E+03  0.41800000000E+01 0. -1.
        -11    1    4    4    0    0  0.35914131021E+02  0.33259236438E+02  0.86274845389E+02  0.99193500606E+02  0.00000000000E+00 0.  1.
         11    1    4    4    0    0 -0.16552471732E+02  0.87130716040E+02  0.42517066861E+03  0.43432228062E+03  0.00000000000E+00 0. -1.
</event>
<event>
 8    1  0.3654190E-009  0.7836463E+02  0.7561462E-02  0.1333757E+00
         -1   -1    0    0    0  501 -0.00000000000E+00  0.00000000000E+00  0.12289311753E+02  0.12289311753E+02  0.00000000000E+00 0.  1.
          1   -1    0    0  501    0  0.00000000000E+00 -0.00000000000E+00 -0.11946384984E+04  0.11946384984E+04  0.00000000000E+00 0. -1.
         25    2    1    2    0    0 -0.44202229835E+02  0.14242583688E+02 -0.79862182873E+03  0.80969409627E+03  0.12510402028E+03 0.  0.
         23    2    1    2    0    0  0.44202229835E+02 -0.14242583688E+02 -0.38372735788E+03  0.39723371385E+03  0.91603765872E+02 0.  0.
          5    1    3    3  502    0 -0.37644145159E+02 -0.25161134797E+01 -0.78689793746E+03  0.78781295297E+03  0.41800000000E+01 0.  1.
         -5    1    3    3    0  502 -0.65580846765E+01  0.16758697168E+02 -0.11723891276E+02  0.21881143298E+02  0.41800000000E+01 0.  1.
        -11    1    4    4    0    0  0.68279655956E+02  0.64015015152E+01 -0.21920545551E+03  0.22968265577E+03  0.00000000000E+00 0.  1.
         11    1    4    4    0    0 -0.24077426121E+02 -0.20644085204E+02 -0.16452190237E+03  0.16755105808E+03  0.00000000000E+00 0. -1.
</event>
<event>
 8    1  0.3654190E-009  0.1433861E+03  0.7561462E-02  0.1208844E+00
         -2   -1    0    0    0  501 -0.00000000000E+00  0.00000000000E+00  0.92915046814E+02  0.92915046814E+02  0.00000000000E+00 0.  1.
          2   -1    0    0  501    0  0.00000000000E+00 -0.00000000000E+00 -0.29984534684E+03  0.29984534684E+03  0.00000000000E+00 0. -1.
         25    2    1    2    0    0  0.87956174503E+02  0.60402442021E+02 -0.19062084738E+03  0.25173058160E+03  0.12508890687E+03 0.  0.
         23    2    1    2    0    0 -0.87956174503E+02 -0.60402442021E+02 -0.16309452648E+02  0.14102981206E+03  0.90767097604E+02 0.  0.
          5    1    3    3  502    0  0.58248693741E+02  0.88280755465E+02 -0.76825163761E+02  0.13078983254E+03  0.41800000000E+01 0. -1.
         -5    1    3    3    0  502  0.29707480762E+02 -0.27878313444E+02 -0.11379568362E+03  0.12094074906E+03  0.41800000000E+01 0. -1.
        -11    1    4    4    0    0 -0.79967076374E+02 -0.93927904199E+00 -0.12126134717E+02  0.80886702813E+02  0.00000000000E+00 0. -1.
         11    1    4    4    0    0 -0.79890981295E+01 -0.59463162979E+02 -0.41833179308E+01  0.60143109242E+02  0.00000000000E+00 0.  1.
</event>
<event>
 8    1  0.3654190E-009  0.1406411E+03  0.7561462E-02  0.1212469E+00
         -2   -1    0    0    0  501 -0.00000000000E+00  0.00000000000E+00  0.36248262109E+02  0.36248262109E+02  0.00000000000E+00 0. -1.
          2   -1    0    0  501    0  0.00000000000E+00 -0.00000000000E+00 -0.96939875272E+03  0.96939875272E+03  0.00000000000E+00 0.  1.
         25    2    1    2    0    0  0.11414299198E+03 -0.42238708364E+02 -0.73662008975E+03  0.75701340343E+03  0.12508958889E+03 0.  0.
         23    2    1    2    0    0 -0.11414299198E+03  0.42238708364E+02 -0.19653040086E+03  0.24863361139E+03  0.91551860444E+02 0.  0.
          5    1    3    3  502    0  0.12219642245E+03 -0.60385371723E+02 -0.71278633244E+03  0.72571357083E+03  0.41800000000E+01 0. -1.
         -5    1    3    3    0  502 -0.80534304642E+01  0.18146663359E+02 -0.23833757318E+02  0.31299832606E+02  0.41800000000E+01 0. -1.
        -11    1    4    4    0    0 -0.35857052846E+02  0.39362799375E+00 -0.33264896679E+01  0.36013174191E+02  0.00000000000E+00 0. -1.
         11    1    4    4    0    0 -0.78285939138E+02  0.41845080371E+02 -0.19320391119E+03  0.21262043720E+03  0.00000000000E+00 0.  1.
</event>
<event>
 8    1  0.3654190E-009  0.8100229E+02  0.7561462E-02  0.1326231E+00
         -2   -1    0    0    0  501 -0.00000000000E+00  0.00000000000E+00  0.13135940572E+02  0.13135940572E+02  0.00000000000E+00 0.  1.
          2   -1    0    0  501    0  0.00000000000E+00 -0.00000000000E+00 -0.11325112413E+04  0.11325112413E+04  0.00000000000E+00 0. -1.
         25    2    1    2    0    0 -0.56272381054E+02 -0.43545732998E+01 -0.76858678072E+03  0.78074246910E+03  0.12509044882E+03 0.  0.
         23    2    1    2    0    0  0.56272381054E+02  0.43545732998E+01 -0.35078852006E+03  0.36490471282E+03  0.83170430170E+02 0.  0.
          5    1    3    3  502    0 -0.38351951515E+02  0.13131717808E+02 -0.74492832946E+03  0.74604222576E+03  0.41800000000E+01 0. -1.
         -5    1    3    3    0  502 -0.17920429539E+02 -0.17486291108E+02 -0.23658451263E+02  0.34700243338E+02  0.41800000000E+01 0. -1.
        -11    1    4    4    0    0 -0.19662206905E+02 -0.14189594096E+01 -0.36089645154E+02  0.41122722594E+02  0.00000000000E+00 0.  1.
         11    1    4    4    0    0  0.75934587958E+02  0.57735327094E+01 -0.31469887490E+03  0.32378199022E+03  0.00000000000E+00 0. -1.
</event>
<event>
 8    1  0.3654190E-009  0.8686065E+02  0.7561462E-02  0.1310637E+00
         -1   -1    0    0    0  501 -0.00000000000E+00  0.00000000000E+00  0.29989241046E+03  0.29989241046E+03  0.00000000000E+00 0.  1.
          1   -1    0    0  501    0  0.00000000000E+00 -0.00000000000E+00 -0.47143244721E+02  0.47143244721E+02  0.00000000000E+00 0. -1.
         25    2    1    2    0    0 -0.12828674467E+02 -0.17513693622E+02  0.20645982944E+03  0.24237332059E+03  0.12509141061E+03 0.  0.
         23    2    1    2    0    0  0.12828674467E+02  0.17513693622E+02  0.46289336304E+02  0.10466233460E+03  0.91324680533E+02 0.  0.
          5    1    3    3  502    0  0.13228121258E+02  0.43375201027E+02  0.31834288359E+02  0.55563347374E+02  0.41800000000E+01 0. -1.
         -5    1    3    3    0  502 -0.26056795726E+02 -0.60888894649E+02  0.17462554108E+03  0.18680997321E+03  0.41800000000E+01 0. -1.
        -11    1    4    4    0    0 -0.52382747139E+01  0.35760316956E+02  0.63978523309E+02  0.73481230498E+02  0.00000000000E+00 0.  1.
         11    1    4    4    0    0  0.18066949181E+02 -0.18246623334E+02 -0.17689187005E+02  0.31181104097E+02  0.00000000000E+00 0. -1.
</event>
<event>
 8    1  0.3654190E-009  0.1425489E+03  0.7561462E-02  0.1209940E+00
          1   -1    0    0  501    0  0.00000000000E+00  0.00000000000E+00  0.97167187694E+02  0.97167187694E+02  0.00000000000E+00 0. -1.
         -1   -1    0    0    0  501 -0.00000000000E+00 -0.00000000000E+00 -0.23369695884E+03  0.23369695884E+03  0.00000000000E+00 0.  1.
         25    2    1    2    0    0  0.44431542685E+02  0.92292631240E+02 -0.55587067833E+02  0.17096521249E+03  0.12508832881E+03 0.  0.
         23    2    1    2    0    0 -0.44431542685E+02 -0.92292631240E+02 -0.80942703319E+02  0.15989893405E+03  0.92324731919E+02 0.  0.
          5    1    3    3  502    0 -0.22646281915E-01 -0.29305842421E+02  0.97326508412E+00  0.29618449619E+02  0.41800000000E+01 0.  1.
         -5    1    3    3    0  502  0.44454188967E+02  0.12159847366E+03 -0.56560332917E+02  0.14134676287E+03  0.41800000000E+01 0.  1.
        -11    1    4    4    0    0 -0.54157956199E+02 -0.28063940040E+02 -0.68802566936E+01  0.61384093073E+02  0.00000000000E+00 0.  1.
         11    1    4    4    0    0  0.97264135140E+01 -0.64228691200E+02 -0.74062446625E+02  0.98514840979E+02  0.00000000000E+00 0. -1.
</event>
<event>
 8    1  0.3654190E-009  0.1799985E+03  0.7561462E-02  0.1167804E+00
          1   -1    0    0  501    0  0.00000000000E+00  0.00000000000E+00  0.57007750442E+03  0.57007750442E+03  0.00000000000E+00 0. -1.
         -1   -1    0    0    0  501 -0.00000000000E+00 -0.00000000000E+00 -0.70659114611E+02  0.70659114611E+02  0.00000000000E+00 0.  1.
         25    2    1    2    0    0 -0.18829450541E+02 -0.16480333523E+03  0.31104395238E+03  0.37404603940E+03  0.12508961495E+03 0.  0.
         23    2    1    2    0    0  0.18829450541E+02  0.16480333523E+03  0.18837443743E+03  0.26669057963E+03  0.90134616417E+02 0.  0.
          5    1    3    3  502    0  0.12386624623E+02 -0.16179720090E+03  0.19476697188E+03  0.25354172916E+03  0.41800000000E+01 0. -1.
         -5    1    3    3    0  502 -0.31216075165E+02 -0.30061343259E+01  0.11627698050E+03  0.12050431024E+03  0.41800000000E+01 0. -1.
        -11    1    4    4    0    0  0.15647522916E+02  0.10635755530E+03  0.54388999754E+02  0.12047795581E+03  0.00000000000E+00 0.  1.
         11    1    4    4    0    0  0.31819276255E+01  0.58445779935E+02  0.13398543768E+03  0.14621262382E+03  0.00000000000E+00 0. -1.
</event>
<event>
 8    1  0.3654190E-009  0.1328491E+03  0.7561462E-02  0.1223288E+00
         -1   -1    0    0    0  501 -0.00000000000E+00  0.00000000000E+00  0.32496588829E+02  0.32496588829E+02  0.00000000000E+00 0.  1.
          1   -1    0    0  501    0  0.00000000000E+00 -0.00000000000E+00 -0.71612283502E+03  0.71612283502E+03  0.00000000000E+00 0. -1.
         25    2    1    2    0    0 -0.31760764701E+02  0.10068841481E+03 -0.37055249785E+03  0.40510065371E+03  0.12510189016E+03 0.  0.
         23    2    1    2    0    0  0.31760764701E+02 -0.10068841481E+03 -0.31307374834E+03  0.34351877013E+03  0.94037601441E+02 0.  0.
          5    1    3    3  502    0  0.17385679071E+02  0.96810339580E+02 -0.31814237838E+03  0.33302634882E+03  0.41800000000E+01 0. -1.
         -5    1    3    3    0  502 -0.49146443772E+02  0.38780752332E+01 -0.52410119476E+02  0.72074304897E+02  0.41800000000E+01 0. -1.
        -11    1    4    4    0    0 -0.71795882082E+01 -0.63579991553E+02 -0.26072113594E+03  0.26845758052E+03  0.00000000000E+00 0. -1.
         11    1    4    4    0    0  0.38940352909E+02 -0.37108423260E+02 -0.52352612397E+02  0.75061189614E+02  0.00000000000E+00 0.  1.
</event>
<event>
 8    1  0.3654190E-009  0.8676101E+02  0.7561462E-02  0.1310891E+00
         -1   -1    0    0    0  501 -0.00000000000E+00  0.00000000000E+00  0.16815112241E+03  0.16815112241E+03  0.00000000000E+00 0.  1.
          1   -1    0    0  501    0  0.00000000000E+00 -0.00000000000E+00 -0.10725745998E+03  0.10725745998E+03  0.00000000000E+00 0. -1.
         25    2    1    2    0    0  0.85599490447E+01  0.68288519062E+02  0.72134279631E+02  0.15995907922E+03  0.12508780182E+03 0.  0.
         23    2    1    2    0    0 -0.85599490447E+01 -0.68288519062E+02 -0.11240617200E+02  0.11544950317E+03  0.92008922083E+02 0.  0.
          5    1    3    3  502    0  0.22778105016E+02  0.47293606222E+02 -0.25849223265E+02  0.58661588804E+02  0.41800000000E+01 0.  1.
         -5    1    3    3    0  502 -0.14218155971E+02  0.20994912839E+02  0.97983502896E+02  0.10129749041E+03  0.41800000000E+01 0.  1.
        -11    1    4    4    0    0  0.12149632106E+02  0.90187096267E+01  0.23702727254E+02  0.28120632335E+02  0.00000000000E+00 0.  1.
         11    1    4    4    0    0 -0.20709581151E+02 -0.77307228688E+02 -0.34943344454E+02  0.87328870831E+02  0.00000000000E+00 0. -1.
</event>
<event>
 8    1  0.3654190E-009  0.6885886E+02  0.7561462E-02  0.1364017E+00
          4   -1    0    0  501    0  0.00000000000E+00  0.00000000000E+00  0.86342670222E+02  0.86342670222E+02  0.00000000000E+00 0. -1.
         -4   -1    0    0    0  501 -0.00000000000E+00 -0.00000000000E+00 -0.16236020875E+03  0.16236020875E+03  0.00000000000E+00 0.  1.
         25    2    1    2    0    0  0.64783960348E+01  0.43974806913E+01 -0.96170144584E+02  0.15797819604E+03  0.12508839379E+03 0.  0.
         23    2    1    2    0    0 -0.64783960348E+01 -0.43974806913E+01  0.20152606054E+02  0.90724682939E+02  0.88110913694E+02 0.  0.
          5    1    3    3  502    0  0.54478197385E+02  0.20565318896E+01 -0.95135884166E+02  0.10972881194E+03  0.41800000000E+01 0. -1.
         -5    1    3    3    0  502 -0.47999801351E+02  0.23409488017E+01 -0.10342604180E+01  0.48249384096E+02  0.41800000000E+01 0. -1.
        -11    1    4    4    0    0  0.75905033147E+01  0.11369922123E+02  0.51297341679E+02  0.53087739950E+02  0.00000000000E+00 0. -1.
         11    1    4    4    0    0 -0.14068899350E+02 -0.15767402814E+02 -0.31144735625E+02  0.37636942989E+02  0.00000000000E+00 0.  1.
</event>
<event>
 8    1  0.3654190E-009  0.9580336E+02  0.7561462E-02  0.1289377E+00
         -2   -1    0    0    0  501 -0.00000000000E+00  0.00000000000E+00  0.16240068633E+02  0.16240068633E+02  0.00000000000E+00 0.  1.
          2   -1    0    0  501    0  0.00000000000E+00 -0.00000000000E+00 -0.12288733755E+04  0.12288733755E+04  0.00000000000E+00 0. -1.
         25    2    1    2    0    0  0.20973129931E+02 -0.17025307197E+02 -0.10384908051E+04  0.10463458562E+04  0.12508703057E+03 0.  0.
         23    2    1    2    0    0 -0.20973129931E+02  0.17025307197E+02 -0.17414250174E+03  0.19876758792E+03  0.91941339074E+02 0.  0.
          5    1    3    3  502    0 -0.64490372613E+00 -0.70178712259E+02 -0.54745035467E+03  0.55194640210E+03  0.41800000000E+01 0.  1.
         -5    1    3    3    0  502  0.21618033657E+02  0.53153405062E+02 -0.49104045046E+03  0.49439945412E+03  0.41800000000E+01 0.  1.
        -11    1    4    4    0    0 -0.13959254817E+02  0.38618244428E+02 -0.17098350912E+03  0.17584535816E+03  0.00000000000E+00 0. -1.
         11    1    4    4    0    0 -0.70138751144E+01 -0.21592937232E+02 -0.31589926182E+01  0.22922229751E+02  0.00000000000E+00 0.  1.
</event>
<event>
 8    1  0.3654190E-009  0.6471111E+02  0.7561462E-02  0.1379061E+00
         -1   -1    0    0    0  501 -0.00000000000E+00  0.00000000000E+00  0.65401039862E+02  0.65401039862E+02  0.00000000000E+00 0.  1.
          1   -1    0    0  501    0  0.00000000000E+00 -0.00000000000E+00 -0.21663638945E+03  0.21663638945E+03  0.00000000000E+00 0. -1.
         25    2    1    2    0    0  0.13484547923E+01  0.30431046721E+02 -0.44073318879E+02  0.13608260211E+03  0.12509256663E+03 0.  0.
         23    2    1    2    0    0 -0.13484547923E+01 -0.30431046721E+02 -0.10716203071E+03  0.14595482720E+03  0.94293392249E+02 0.  0.
          5    1    3    3  502    0 -0.17457067956E+02 -0.13779117146E+02  0.36051057589E+02  0.42564826374E+02  0.41800000000E+01 0.  1.
         -5    1    3    3    0  502  0.18805522749E+02  0.44210163867E+02 -0.80124376468E+02  0.93517775740E+02  0.41800000000E+01 0.  1.
        -11    1    4    4    0    0 -0.12223453875E+02 -0.41372956172E+02 -0.11895525704E+03  0.12653650661E+03  0.00000000000E+00 0. -1.
         11    1    4    4    0    0  0.10874999083E+02  0.10941909451E+02  0.11793226326E+02  0.19418320594E+02  0.00000000000E+00 0.  1.
</event>
<event>
 8    1  0.3654190E-009  0.1246613E+03  0.7561462E-02  0.1235600E+00
          2   -1    0    0  501    0  0.00000000000E+00  0.00000000000E+00  0.96365527237E+02  0.96365527237E+02  0.00000000000E+00 0.  1.
         -2   -1    0    0    0  501 -0.00000000000E+00 -0.00000000000E+00 -0.21691971154E+03  0.21691971154E+03  0.00000000000E+00 0. -1.
         25    2    1    2    0    0 -0.44052888484E+02 -0.59510588620E+02 -0.12221711474E+01  0.14536730481E+03  0.12509193605E+03 0.  0.
         23    2    1    2    0    0  0.44052888484E+02  0.59510588620E+02 -0.11933201315E+03  0.16791793396E+03  0.92055070696E+02 0.  0.
          5    1    3    3  502    0 -0.22524672765E+01  0.31393575611E+02  0.26613417630E+02  0.41429175667E+02  0.41800000000E+01 0.  1.
         -5    1    3    3    0  502 -0.41800421208E+02 -0.90904164232E+02 -0.27835588778E+02  0.10393812915E+03  0.41800000000E+01 0.  1.
        -11    1    4    4    0    0  0.41201918907E+02  0.83584814024E+02 -0.10172326940E+03  0.13795522025E+03  0.00000000000E+00 0. -1.
         11    1    4    4    0    0  0.28509695775E+01 -0.24074225403E+02 -0.17608743749E+02  0.29962713707E+02  0.00000000000E+00 0.  1.
</event>
<event>
 8    1  0.3654190E-009  0.1625612E+03  0.7561462E-02  0.1185835E+00
         -2   -1    0    0    0  501 -0.00000000000E+00  0.00000000000E+00  0.89329129712E+02  0.89329129712E+02  0.00000000000E+00 0.  1.
          2   -1    0    0  501    0  0.00000000000E+00 -0.00000000000E+00 -0.39122472718E+03  0.39122472718E+03  0.00000000000E+00 0. -1.
         25    2    1    2    0    0  0.13068946673E+03  0.17839742722E+02 -0.25598632068E+03  0.31395855031E+03  0.12507190655E+03 0.  0.
         23    2    1    2    0    0 -0.13068946673E+03 -0.17839742722E+02 -0.45909276790E+02  0.16659530658E+03  0.90820379569E+02 0.  0.
          5    1    3    3  502    0  0.90196492314E+02 -0.49564680311E+02 -0.14769605801E+03  0.18006571776E+03  0.41800000000E+01 0. -1.
         -5    1    3    3    0  502  0.40492974412E+02  0.67404423033E+02 -0.10829026267E+03  0.13389283255E+03  0.41800000000E+01 0. -1.
        -11    1    4    4    0    0 -0.31305756732E+02 -0.29867025617E+02  0.19030899017E+02  0.47268009702E+02  0.00000000000E+00 0.  1.
         11    1    4    4    0    0 -0.99383709994E+02  0.12027282895E+02 -0.64940175807E+02  0.11932729688E+03  0.00000000000E+00 0. -1.
</event>
<event>
 8    1  0.3654190E-009  0.9074576E+02  0.7561462E-02  0.1301056E+00
         -2   -1    0    0    0  501 -0.00000000000E+00  0.00000000000E+00  0.13623802216E+03  0.13623802216E+03  0.00000000000E+00 0.  1.
          2   -1    0    0  501    0  0.00000000000E+00 -0.00000000000E+00 -0.14243064950E+03  0.14243064950E+03  0.00000000000E+00 0. -1.
         25    2    1    2    0    0  0.56684115930E+02  0.66339635071E+02 -0.63611419423E+01  0.15265235351E+03  0.12509292835E+03 0.  0.
         23    2    1    2    0    0 -0.56684115930E+02 -0.66339635071E+02  0.16851459818E+00  0.12601631815E+03  0.90917808281E+02 0.  0.
          5    1    3    3  502    0  0.24364381703E+02  0.23376583159E+02  0.58884464100E+02  0.68006913239E+02  0.41800000000E+01 0.  1.
         -5    1    3    3    0  502  0.32319734227E+02  0.42963051912E+02 -0.65245606043E+02  0.84645440267E+02  0.41800000000E+01 0.  1.
        -11    1    4    4    0    0 -0.17384082220E+01 -0.24295799147E+02 -0.39394899495E+02  0.46317016588E+02  0.00000000000E+00 0. -1.
         11    1    4    4    0    0 -0.54945707708E+02 -0.42043835923E+02  0.39563414094E+02  0.79699301561E+02  0.00000000000E+00 0.  1.
</event>
<event>
 8    1  0.3654190E-009  0.1020355E+03  0.7561462E-02  0.1276073E+00
          1   -1    0    0  501    0  0.00000000000E+00  0.00000000000E+00  0.23965911144E+03  0.23965911144E+03  0.00000000000E+00 0. -1.
         -1   -1    0    0    0  501 -0.00000000000E+00 -0.00000000000E+00 -0.82490673587E+02  0.82490673587E+02  0.00000000000E+00 0.  1.
         25    2    1    2    0    0  0.49421916043E+02 -0.17905633931E+02  0.36449446207E+01  0.13573484339E+03  0.12509006586E+03 0.  0.
         23    2    1    2    0    0 -0.49421916043E+02  0.17905633931E+02  0.15352349323E+03  0.18641494163E+03  0.91749277816E+02 0.  0.
          5    1    3    3  502    0 -0.18584040470E+02  0.14217643670E+02 -0.41565407080E+02  0.47881764979E+02  0.41800000000E+01 0. -1.
         -5    1    3    3    0  502  0.68005956513E+02 -0.32123277601E+02  0.45210351701E+02  0.87853078409E+02  0.41800000000E+01 0. -1.
        -11    1    4    4    0    0 -0.42669120421E+01 -0.35091139078E+02  0.41465731825E+02  0.54488544631E+02  0.00000000000E+00 0.  1.
         11    1    4    4    0    0 -0.45155004001E+02  0.52996773009E+02  0.11205776140E+03  0.13192639700E+03  0.00000000000E+00 0. -1.
</event>
<event>
 8    1  0.3654190E-009  0.1320432E+03  0.7561462E-02  0.1224455E+00
          1   -1    0    0  501    0  0.00000000000E+00  0.00000000000E+00  0.41174589938E+02  0.41174589938E+02  0.00000000000E+00 0. -1.
         -1   -1    0    0    0  501 -0.00000000000E+00 -0.00000000000E+00 -0.47017012820E+03  0.47017012820E+03  0.00000000000E+00 0.  1.
         25    2    1    2    0    0  0.61078803178E+02  0.58707510403E+02 -0.27128890697E+03  0.31051970573E+03  0.12509046578E+03 0.  0.
         23    2    1    2    0    0 -0.61078803178E+02 -0.58707510403E+02 -0.15770663130E+03  0.20082501241E+03  0.91006110120E+02 0.  0.
          5    1    3    3  502    0  0.29836259388E+01  0.81710560404E+02 -0.19713855470E+03  0.21346334546E+03  0.41800000000E+01 0.  1.
         -5    1    3    3    0  502  0.58095177239E+02 -0.23003050002E+02 -0.74150352267E+02  0.97056360272E+02  0.41800000000E+01 0.  1.
        -11    1    4    4    0    0 -0.22539651456E+02 -0.74580068135E+02 -0.74674655401E+02  0.10791907436E+03  0.00000000000E+00 0.  1.
         11    1    4    4    0    0 -0.38539151722E+02  0.15872557732E+02 -0.83031975895E+02  0.92905938053E+02  0.00000000000E+00 0. -1.
</event>
<event>
 8    1  0.3654190E-009  0.1233835E+03  0.7561462E-02  0.1237617E+00
          2   -1    0    0  501    0  0.00000000000E+00  0.00000000000E+00  0.49104563126E+03  0.49104563126E+03  0.00000000000E+00 0. -1.
         -2   -1    0    0    0  501 -0.00000000000E+00 -0.00000000000E+00 -0.37111449821E+02  0.37111449821E+02  0.00000000000E+00 0.  1.
         25    2    1    2    0    0 -0.64062940124E+02 -0.44331814561E+02  0.21884948356E+03  0.26384342692E+03  0.12509551310E+03 0.  0.
         23    2    1    2    0    0  0.64062940124E+02  0.44331814561E+02  0.23508469788E+03  0.26431365415E+03  0.92344585751E+02 0.  0.
          5    1    3    3  502    0 -0.50191502678E+01  0.30211212168E+02  0.13003377432E+03  0.13365688936E+03  0.41800000000E+01 0. -1.
         -5    1    3    3    0  502 -0.59043789856E+02 -0.74543026729E+02  0.88815709238E+02  0.13018653756E+03  0.41800000000E+01 0. -1.
        -11    1    4    4    0    0  0.45265741167E+02  0.73293732698E+02  0.16183965445E+03  0.18333857294E+03  0.00000000000E+00 0. -1.
         11    1    4    4    0    0  0.18797198957E+02 -0.28961918137E+02  0.73245043428E+02  0.80975081214E+02  0.00000000000E+00 0.  1.
</event>
<event>
 8    1  0.3654190E-009  0.1256064E+03  0.7561462E-02  0.1234125E+00
          2   -1    0    0  501    0  0.00000000000E+00  0.00000000000E+00  0.14453792851E+04  0.14453792851E+04  0.00000000000E+00 0. -1.
         -2   -1    0    0    0  501 -0.00000000000E+00 -0.00000000000E+00 -0.15051921263E+02  0.15051921263E+02  0.00000000000E+00 0.  1.
         25    2    1    2    0    0  0.97132765562E+02 -0.77971220625E+00  0.91686211066E+03  0.93043991056E+03  0.12508762972E+03 0.  0.
         23    2    1    2    0    0 -0.97132765562E+02  0.77971220625E+00  0.51346525314E+03  0.52999129576E+03  0.88367557988E+02 0.  0.
          5    1    3    3  502    0  0.10126730117E+03  0.31784645473E+02  0.44835632908E+03  0.46076696952E+03  0.41800000000E+01 0. -1.
         -5    1    3    3    0  502 -0.41345356040E+01 -0.32564357680E+02  0.46850578158E+03  0.46967294105E+03  0.41800000000E+01 0. -1.
        -11    1    4    4    0    0 -0.80176678588E+02 -0.22339488916E+02  0.47376687091E+03  0.48102224536E+03  0.00000000000E+00 0. -1.
         11    1    4    4    0    0 -0.16956086974E+02  0.23119201123E+02  0.39698382223E+02  0.48969050401E+02  0.00000000000E+00 0.  1.
</event>
<event>
 8    1  0.3654190E-009  0.9023689E+02  0.7561462E-02  0.1302279E+00
          1   -1    0    0  501    0  0.00000000000E+00  0.00000000000E+00  0.13322832606E+03  0.13322832606E+03  0.00000000000E+00 0. -1.
         -1   -1    0    0    0  501 -0.00000000000E+00 -0.00000000000E+00 -0.10578711324E+03  0.10578711324E+03  0.00000000000E+00 0.  1.
         25    2    1    2    0    0 -0.40452750589E+02 -0.75942633559E+01  0.38908550758E+02  0.13731766358E+03  0.12509263584E+03 0.  0.
         23    2    1    2    0    0  0.40452750589E+02  0.75942633559E+01 -0.11467337935E+02  0.10169777572E+03  0.92286726461E+02 0.  0.
          5    1    3    3  502    0 -0.59592290872E+02 -0.13889323401E+02 -0.27923493435E+02  0.67389526794E+02  0.41800000000E+01 0. -1.
         -5    1    3    3    0  502  0.19139540283E+02  0.62950600448E+01  0.66832044193E+02  0.69928136785E+02  0.41800000000E+01 0. -1.
        -11    1    4    4    0    0  0.41072848804E+02  0.45130861699E+02  0.38668375326E+01  0.61145122610E+02  0.00000000000E+00 0.  1.
         11    1    4    4    0    0 -0.62009821519E+00 -0.37536598343E+02 -0.15334175467E+02  0.40552653109E+02  0.00000000000E+00 0. -1.
</event>
<event>
 8    1  0.3654190E-009  0.9774860E+02  0.7561462E-02  0.1285103E+00
         -1   -1    0    0    0  501 -0.00000000000E+00  0.00000000000E+00  0.14915293821E+03  0.14915293821E+03  0.00000000000E+00 0.  1.
          1   -1    0    0  501    0  0.00000000000E+00 -0.00000000000E+00 -0.95906859720E+02  0.95906859720E+02  0.00000000000E+00 0. -1.
         25    2    1    2    0    0 -0.41360177380E+02  0.21761543428E+02  0.50612257682E+02  0.14279759087E+03  0.12508126272E+03 0.  0.
         23    2    1    2    0    0  0.41360177380E+02 -0.21761543428E+02  0.26338208115E+01  0.10226220707E+03  0.90919705988E+02 0.  0.
          5    1    3    3  502    0 -0.66444375770E+02  0.75094894582E+00  0.76097690321E+02  0.10111256039E+03  0.41800000000E+01 0. -1.
         -5    1    3    3    0  502  0.25084198390E+02  0.21010594483E+02 -0.25485432639E+02  0.41685030481E+02  0.41800000000E+01 0. -1.
        -11    1    4    4    0    0  0.12446700940E+02  0.32304096032E+02 -0.16062121339E+02  0.38163683347E+02  0.00000000000E+00 0. -1.
         11    1    4    4    0    0  0.28913476440E+02 -0.54065639461E+02  0.18695942150E+02  0.64098523720E+02  0.00000000000E+00 0.  1.
</event>
<event>
 8    1  0.3654190E-009  0.1242684E+03  0.7561462E-02  0.1236217E+00
          2   -1    0    0  501    0  0.00000000000E+00  0.00000000000E+00  0.12337803676E+04  0.12337803676E+04  0.00000000000E+00 0. -1.
         -2   -1    0    0    0  501 -0.00000000000E+00 -0.00000000000E+00 -0.23586020878E+02  0.23586020878E+02  0.00000000000E+00 0.  1.
         25    2    1    2    0    0 -0.25117463460E+02 -0.10285479871E+03  0.92475034006E+03  0.93916028232E+03  0.12509535512E+03 0.  0.
         23    2    1    2    0    0  0.25117463460E+02  0.10285479871E+03  0.28544400667E+03  0.31820610616E+03  0.92557271274E+02 0.  0.
          5    1    3    3  502    0 -0.19293169221E+02 -0.11255979661E+03  0.45089239207E+03  0.46514874590E+03  0.41800000000E+01 0. -1.
         -5    1    3    3    0  502 -0.58242942386E+01  0.97049978987E+01  0.47385794799E+03  0.47401153642E+03  0.41800000000E+01 0. -1.
        -11    1    4    4    0    0  0.45539252040E+02  0.70058040512E+02  0.25696444404E+03  0.27020858242E+03  0.00000000000E+00 0. -1.
         11    1    4    4    0    0 -0.20421788580E+02  0.32796758195E+02  0.28479562632E+02  0.47997523734E+02  0.00000000000E+00 0.  1.
</event>
<event>
 8    1  0.3654190E-009  0.1123854E+03  0.7561462E-02  0.1256215E+00
          1   -1    0    0  501    0  0.00000000000E+00  0.00000000000E+00  0.10480396586E+03  0.10480396586E+03  0.00000000000E+00 0. -1.
         -1   -1    0    0    0  501 -0.00000000000E+00 -0.00000000000E+00 -0.43518750372E+03  0.43518750372E+03  0.00000000000E+00 0.  1.
         25    2    1    2    0    0  0.62916685171E+02 -0.65606614727E+01 -0.39033306341E+03  0.41473779822E+03  0.12508392914E+03 0.  0.
         23    2    1    2    0    0 -0.62916685171E+02  0.65606614727E+01  0.59949525548E+02  0.12525367136E+03  0.89961019465E+02 0.  0.
          5    1    3    3  502    0  0.69560707743E+02  0.39950027272E+02 -0.32088574071E+03  0.33078668010E+03  0.41800000000E+01 0.  1.
         -5    1    3    3    0  502 -0.66440225720E+01 -0.46510688744E+02 -0.69447322697E+02  0.83951118118E+02  0.41800000000E+01 0.  1.
        -11    1    4    4    0    0 -0.27619630122E+02  0.40030549374E+02  0.59186399507E+02  0.76604952437E+02  0.00000000000E+00 0. -1.
         11    1    4    4    0    0 -0.35297055049E+02 -0.33469887901E+02  0.76312604079E+00  0.48648718921E+02  0.00000000000E+00 0.  1.
</event>
<event>
 8    1  0.3654190E-009  0.1693235E+03  0.7561462E-02  0.1178555E+00
         -2   -1    0    0    0  501 -0.00000000000E+00  0.00000000000E+00  0.20881112511E+02  0.20881112511E+02  0.00000000000E+00 0.  1.
          2   -1    0    0  501    0  0.00000000000E+00 -0.00000000000E+00 -0.17890882069E+04  0.17890882069E+04  0.00000000000E+00 0. -1.
         25    2    1    2    0    0  0.60275730908E+01 -0.15850756400E+03 -0.10407531990E+04  0.10601769753E+04  0.12508804197E+03 0.  0.
         23    2    1    2    0    0 -0.60275730908E+01  0.15850756400E+03 -0.72745389545E+03  0.74979234417E+03  0.88534794792E+02 0.  0.
          5    1    3    3  502    0  0.12070495490E+02 -0.44449950625E+02 -0.78130559067E+02  0.90792905186E+02  0.41800000000E+01 0.  1.
         -5    1    3    3    0  502 -0.60429223992E+01 -0.11405761338E+03 -0.96262263989E+03  0.96938407007E+03  0.41800000000E+01 0.  1.
        -11    1    4    4    0    0 -0.41501352632E+02  0.11315633437E+03 -0.41808750756E+03  0.43511364292E+03  0.00000000000E+00 0.  1.
         11    1    4    4    0    0  0.35473779542E+02  0.45351229633E+02 -0.30936638789E+03  0.31467870125E+03  0.00000000000E+00 0. -1.
</event>
<event>
 8    1  0.3654190E-009  0.1106154E+03  0.7561462E-02  0.1259434E+00
          2   -1    0    0  501    0  0.00000000000E+00  0.00000000000E+00  0.50219569226E+03  0.50219569226E+03  0.00000000000E+00 0. -1.
         -2   -1    0    0    0  501 -0.00000000000E+00 -0.00000000000E+00 -0.27140016090E+02  0.27140016090E+02  0.00000000000E+00 0.  1.
         25    2    1    2    0    0 -0.10754407125E+02  0.27651351890E+02  0.33888361494E+03  0.36244901582E+03  0.12508768948E+03 0.  0.
         23    2    1    2    0    0  0.10754407125E+02 -0.27651351890E+02  0.13617206122E+03  0.16688669253E+03  0.91804593297E+02 0.  0.
          5    1    3    3  502    0 -0.99819088331E+01  0.77584005211E+02  0.21391038984E+03  0.22780264188E+03  0.41800000000E+01 0.  1.
         -5    1    3    3    0  502 -0.77249829149E+00 -0.49932653321E+02  0.12497322510E+03  0.13464637394E+03  0.41800000000E+01 0.  1.
        -11    1    4    4    0    0  0.40089256901E+02  0.13450960446E+02  0.85308736776E+02  0.95213745993E+02  0.00000000000E+00 0. -1.
         11    1    4    4    0    0 -0.29334849776E+02 -0.41102312336E+02  0.50863324447E+02  0.71672946532E+02  0.00000000000E+00 0.  1.
</event>
<event>
 8    1  0.3654190E-009  0.1372469E+03  0.7561462E-02  0.1217082E+00
         -2   -1    0    0    0  501 -0.00000000000E+00  0.00000000000E+00  0.19097321077E+03  0.19097321077E+03  0.00000000000E+00 0.  1.
          2   -1    0    0  501    0  0.00000000000E+00 -0.00000000000E+00 -0.18621657193E+03  0.18621657193E+03  0.00000000000E+00 0. -1.
         25    2    1    2    0    0  0.15724560387E+02 -0.99328333252E+02 -0.11376292657E+03  0.19673565435E+03  0.12509810009E+03 0.  0.
         23    2    1    2    0    0 -0.15724560387E+02  0.99328333252E+02  0.11851956541E+03  0.18045412835E+03  0.91670199448E+02 0.  0.
          5    1    3    3  502    0 -0.42918406842E+01  0.27390467772E+02 -0.49704256252E+01  0.28475167289E+02  0.41800000000E+01 0.  1.
         -5    1    3    3    0  502  0.20016401071E+02 -0.12671880102E+03 -0.10879250094E+03  0.16826048706E+03  0.41800000000E+01 0.  1.
        -11    1    4    4    0    0 -0.38539943142E+02  0.45467729060E+02  0.14858082097E+02  0.61428040884E+02  0.00000000000E+00 0. -1.
         11    1    4    4    0    0  0.22815382755E+02  0.53860604192E+02  0.10366148332E+03  0.11902608747E+03  0.00000000000E+00 0.  1.
</event>
<event>
 8    1  0.3654190E-009  0.1092597E+03  0.7561462E-02  0.1261947E+00
         -1   -1    0    0    0  501 -0.00000000000E+00  0.00000000000E+00  0.58925580229E+03  0.58925580229E+03  0.00000000000E+00 0.  1.
          1   -1    0    0  501    0  0.00000000000E+00 -0.00000000000E+00 -0.70873430083E+02  0.70873430083E+02  0.00000000000E+00 0. -1.
         25    2    1    2    0    0 -0.98706284766E+02 -0.42180020635E+02  0.52192470394E+02  0.17289964620E+03  0.12509256132E+03 0.  0.
         23    2    1    2    0    0  0.98706284766E+02  0.42180020635E+02  0.46618990181E+03  0.48722958617E+03  0.92398919343E+02 0.  0.
          5    1    3    3  502    0 -0.51647875896E+01 -0.97381486220E+01  0.71053614792E+02  0.72024961954E+02  0.41800000000E+01 0.  1.
         -5    1    3    3    0  502 -0.93541497177E+02 -0.32441872013E+02 -0.18861144399E+02  0.10087468425E+03  0.41800000000E+01 0.  1.
        -11    1    4    4    0    0  0.32823000963E+02  0.10000193137E+02  0.32086941225E+02  0.46977920901E+02  0.00000000000E+00 0. -1.
         11    1    4    4    0    0  0.65883283803E+02  0.32179827499E+02  0.43410296059E+03  0.44025166527E+03  0.00000000000E+00 0.  1.
</event>
<event>
 8    1  0.3654190E-009  0.7298316E+02  0.7561462E-02  0.1350233E+00
         -2   -1    0    0    0  501 -0.00000000000E+00  0.00000000000E+00  0.41165671841E+02  0.41165671841E+02  0.00000000000E+00 0.  1.
          2   -1    0    0  501    0  0.00000000000E+00 -0.00000000000E+00 -0.31059213368E+03  0.31059213368E+03  0.00000000000E+00 0. -1.
         25    2    1    2    0    0 -0.17927449573E+02 -0.30043266849E+02 -0.13252277895E+03  0.18556285808E+03  0.12508915232E+03 0.  0.
         23    2    1    2    0    0  0.17927449573E+02  0.30043266849E+02 -0.13690368289E+03  0.16619494744E+03  0.87488003939E+02 0.  0.
          5    1    3    3  502    0 -0.21693621243E+02  0.26760091542E+02  0.64754952982E+01  0.35300426928E+02  0.41800000000E+01 0.  1.
         -5    1    3    3    0  502  0.37661716706E+01 -0.56803358391E+02 -0.13899827425E+03  0.15026243116E+03  0.41800000000E+01 0.  1.
        -11    1    4    4    0    0  0.26169448970E+02  0.35149983266E+01  0.98691078497E-01  0.26404639982E+02  0.00000000000E+00 0.  1.
         11    1    4    4    0    0 -0.82419993976E+01  0.26528268523E+02 -0.13700237397E+03  0.13979030746E+03  0.00000000000E+00 0. -1.
</event>
<event>
 8    1  0.3654190E-009  0.1533331E+03  0.7561462E-02  0.1196436E+00
         -2   -1    0    0    0  501 -0.00000000000E+00  0.00000000000E+00  0.16172758518E+02  0.16172758518E+02  0.00000000000E+00 0. -1.
          2   -1    0    0  501    0  0.00000000000E+00 -0.00000000000E+00 -0.15889498365E+04  0.15889498365E+04  0.00000000000E+00 0.  1.
         25    2    1    2    0    0 -0.55134644939E+02  0.10095570574E+03 -0.97880871308E+03  0.99345146339E+03  0.12508968666E+03 0.  0.
         23    2    1    2    0    0  0.55134644939E+02 -0.10095570574E+03 -0.59396836492E+03  0.61167113165E+03  0.90062595882E+02 0.  0.
          5    1    3    3  502    0 -0.58925572787E+02  0.12865562372E+03 -0.80276520762E+03  0.81515271183E+03  0.41800000000E+01 0. -1.
         -5    1    3    3    0  502  0.37909278485E+01 -0.27699917987E+02 -0.17604350546E+03  0.17829875156E+03  0.41800000000E+01 0. -1.
        -11    1    4    4    0    0  0.70894451236E+02 -0.59763931269E+02 -0.49062513269E+03  0.49931029584E+03  0.00000000000E+00 0.  1.
         11    1    4    4    0    0 -0.15759806297E+02 -0.41191774467E+02 -0.10334323223E+03  0.11236083582E+03  0.00000000000E+00 0. -1.
</event>
<event>
 8    1  0.3654190E-009  0.7979450E+02  0.7561462E-02  0.1329636E+00
         -1   -1    0    0    0  501 -0.00000000000E+00  0.00000000000E+00  0.11829286077E+02  0.11829286077E+02  0.00000000000E+00 0.  1.
          1   -1    0    0  501    0  0.00000000000E+00 -0.00000000000E+00 -0.10591253105E+04  0.10591253105E+04  0.00000000000E+00 0. -1.
         25    2    1    2    0    0  0.44676391061E+01  0.12720514193E+01 -0.72672976130E+03  0.73743159161E+03  0.12509048102E+03 0.  0.
         23    2    1    2    0    0 -0.44676391061E+01 -0.12720514193E+01 -0.32056626310E+03  0.33352300494E+03  0.91941763473E+02 0.  0.
          5    1    3    3  502    0  0.35667045367E+01  0.34296036016E+02 -0.56142966054E+02  0.66018516380E+02  0.41800000000E+01 0. -1.
         -5    1    3    3    0  502  0.90093456934E+00 -0.33023984596E+02 -0.67058679524E+03  0.67141307523E+03  0.41800000000E+01 0. -1.
        -11    1    4    4    0    0  0.37864117348E+02  0.21443485200E+02 -0.13505458874E+03  0.14189170652E+03  0.00000000000E+00 0.  1.
         11    1    4    4    0    0 -0.42331756454E+02 -0.22715536619E+02 -0.18551167436E+03  0.19163129841E+03  0.00000000000E+00 0. -1.
</event>
<event>
 8    1  0.3654190E-009  0.1884891E+03  0.7561462E-02  0.1159831E+00
         -1   -1    0    0    0  501 -0.00000000000E+00  0.00000000000E+00  0.43848347275E+02  0.43848347275E+02  0.00000000000E+00 0.  1.
          1   -1    0    0  501    0  0.00000000000E+00 -0.00000000000E+00 -0.84830211633E+03  0.84830211633E+03  0.00000000000E+00 0. -1.
         25    2    1    2    0    0 -0.83357881040E+02 -0.13610700229E+03 -0.41495650009E+03  0.46185357803E+03  0.12508468400E+03 0.  0.
         23    2    1    2    0    0  0.83357881040E+02  0.13610700229E+03 -0.38949726897E+03  0.43029688558E+03  0.89295211516E+02 0.  0.
          5    1    3    3  502    0 -0.15974006343E+02 -0.12760134131E+03 -0.32115008724E+03  0.34596549267E+03  0.41800000000E+01 0.  1.
         -5    1    3    3    0  502 -0.67383874697E+02 -0.85056609793E+01 -0.93806412843E+02  0.11588808536E+03  0.41800000000E+01 0.  1.
        -11    1    4    4    0    0 -0.12629378578E+02  0.49151862663E+02 -0.79322264923E+02  0.94167024584E+02  0.00000000000E+00 0.  1.
         11    1    4    4    0    0  0.95987259618E+02  0.86955139623E+02 -0.31017500405E+03  0.33612986099E+03  0.00000000000E+00 0. -1.
</event>
<event>
 8    1  0.3654190E-009  0.2207693E+03  0.7561462E-02  0.1133311E+00
          1   -1    0    0  501    0  0.00000000000E+00  0.00000000000E+00  0.53797408079E+03  0.53797408079E+03  0.00000000000E+00 0. -1.
         -1   -1    0    0    0  501 -0.00000000000E+00 -0.00000000000E+00 -0.97558775973E+02  0.97558775973E+02  0.00000000000E+00 0.  1.
         25    2    1    2    0    0 -0.17506109491E+03  0.99844395772E+02  0.23551175662E+03  0.33425892975E+03  0.12509178348E+03 0.  0.
         23    2    1    2    0    0  0.17506109491E+03 -0.99844395772E+02  0.20490354820E+03  0.30127392701E+03  0.90361633001E+02 0.  0.
          5    1    3    3  502    0 -0.96471895257E+01 -0.23872836901E+02  0.50881909090E+02  0.57178856932E+02  0.41800000000E+01 0.  1.
         -5    1    3    3    0  502 -0.16541390538E+03  0.12371723267E+03  0.18462984753E+03  0.27708007282E+03  0.41800000000E+01 0.  1.
        -11    1    4    4    0    0  0.11379749194E+03 -0.93453835813E+02  0.94854774586E+02  0.17515968960E+03  0.00000000000E+00 0.  1.
         11    1    4    4    0    0  0.61263602970E+02 -0.63905599590E+01  0.11004877361E+03  0.12611423741E+03  0.00000000000E+00 0. -1.
</event>
<event>
 8    1  0.3654190E-009  0.1215716E+03  0.7561462E-02  0.1240527E+00
         -1   -1    0    0    0  501 -0.00000000000E+00  0.00000000000E+00  0.11675750168E+02  0.11675750168E+02  0.00000000000E+00 0.  1.
          1   -1    0    0  501    0  0.00000000000E+00 -0.00000000000E+00 -0.19509696977E+04  0.19509696977E+04  0.00000000000E+00 0. -1.
         25    2    1    2    0    0  0.77399657137E+02 -0.25621840588E+01 -0.15004154821E+04  0.15076108243E+04  0.12508599765E+03 0.  0.
         23    2    1    2    0    0 -0.77399657137E+02  0.25621840588E+01 -0.43887846544E+03  0.45503462361E+03  0.91896297775E+02 0.  0.
          5    1    3    3  502    0  0.13649537848E+02 -0.50686172823E+02 -0.30417782515E+03  0.30870215372E+03  0.41800000000E+01 0. -1.
         -5    1    3    3    0  502  0.63750119289E+02  0.48123988764E+02 -0.11962376569E+04  0.11989086705E+04  0.41800000000E+01 0. -1.
        -11    1    4    4    0    0 -0.11616999791E+02  0.35199539093E+02 -0.73135747655E+02  0.81992681512E+02  0.00000000000E+00 0.  1.
         11    1    4    4    0    0 -0.65782657346E+02 -0.32637355034E+02 -0.36574271779E+03  0.37304194210E+03  0.00000000000E+00 0. -1.
</event>
<event>
 8    1  0.3654190E-009  0.1445849E+03  0.7561462E-02  0.1207289E+00
          2   -1    0    0  501    0  0.00000000000E+00  0.00000000000E+00  0.99784587087E+03  0.99784587087E+03  0.00000000000E+00 0. -1.
         -2   -1    0    0    0  501 -0.00000000000E+00 -0.00000000000E+00 -0.76060906834E+02  0.76060906834E+02  0.00000000000E+00 0.  1.
         25    2    1    2    0    0  0.11716824781E+03 -0.37464948580E+02  0.90071420507E+03  0.91764091047E+03  0.12508693252E+03 0.  0.
         23    2    1    2    0    0 -0.11716824781E+03  0.37464948580E+02  0.21070758963E+02  0.15626586723E+03  0.94037352746E+02 0.  0.
          5    1    3    3  502    0  0.59051332859E+02  0.18095659212E+02  0.67801744354E+03  0.68083745412E+03  0.41800000000E+01 0.  1.
         -5    1    3    3    0  502  0.58116914949E+02 -0.55560607793E+02  0.22269676154E+03  0.23680345635E+03  0.41800000000E+01 0.  1.
        -11    1    4    4    0    0 -0.48877509396E+02 -0.24382404526E+02 -0.16056036799E+02  0.56932494174E+02  0.00000000000E+00 0.  1.
         11    1    4    4    0    0 -0.68290738412E+02  0.61847353106E+02  0.37126795763E+02  0.99333373056E+02  0.00000000000E+00 0. -1.
</event>
<event>
 8    1  0.3654190E-009  0.1013160E+03  0.7561462E-02  0.1277553E+00
         -2   -1    0    0    0  501 -0.00000000000E+00  0.00000000000E+00  0.82835172621E+02  0.82835172621E+02  0.00000000000E+00 0.  1.
          2   -1    0    0  501    0  0.00000000000E+00 -0.00000000000E+00 -0.14826556079E+03  0.14826556079E+03  0.00000000000E+00 0. -1.
         25    2    1    2    0    0  0.58365709482E+01  0.22789186887E+02 -0.47235205695E+02  0.13576201331E+03  0.12508695776E+03 0.  0.
         23    2    1    2    0    0 -0.58365709482E+01 -0.22789186887E+02 -0.18195182474E+02  0.95338720100E+02  0.90581423513E+02 0.  0.
          5    1    3    3  502    0  0.50974532474E+01 -0.49676349574E+02 -0.37355448290E+02  0.62503005156E+02  0.41800000000E+01 0.  1.
         -5    1    3    3    0  502  0.73911770085E+00  0.72465536461E+02 -0.98797574052E+01  0.73259008155E+02  0.41800000000E+01 0.  1.
        -11    1    4    4    0    0  0.12610077142E+02  0.25385427646E+02  0.16849890763E+02  0.32975032995E+02  0.00000000000E+00 0.  1.
         11    1    4    4    0    0 -0.18446648090E+02 -0.48174614533E+02 -0.35045073237E+02  0.62363687105E+02  0.00000000000E+00 0. -1.
</event>
<event>
 8    1  0.3654190E-009  0.9862913E+02  0.7561462E-02  0.1283205E+00
         -3   -1    0    0    0  501 -0.00000000000E+00  0.00000000000E+00  0.38689835916E+02  0.38689835916E+02  0.00000000000E+00 0.  1.
          3   -1    0    0  501    0  0.00000000000E+00 -0.00000000000E+00 -0.39323396083E+03  0.39323396083E+03  0.00000000000E+00 0. -1.
         25    2    1    2    0    0 -0.33310530425E+01  0.11019279838E+02 -0.10053482731E+03  0.16089484064E+03  0.12508947917E+03 0.  0.
         23    2    1    2    0    0  0.33310530425E+01 -0.11019279838E+02 -0.25400929760E+03  0.27102895610E+03  0.93826709070E+02 0.  0.
          5    1    3    3  502    0  0.54121980588E+02  0.32505053337E+02 -0.41552320300E+02  0.75695673572E+02  0.41800000000E+01 0.  1.
         -5    1    3    3    0  502 -0.57453033630E+02 -0.21485773498E+02 -0.58982507008E+02  0.85199167068E+02  0.41800000000E+01 0.  1.
        -11    1    4    4    0    0  0.36807030360E+02  0.13129156603E+01 -0.41250769908E+02  0.55300155962E+02  0.00000000000E+00 0.  1.
         11    1    4    4    0    0 -0.33475977317E+02 -0.12332195499E+02 -0.21275852769E+03  0.21572880014E+03  0.00000000000E+00 0. -1.
</event>
<event>
 8    1  0.3654190E-009  0.1079341E+03  0.7561462E-02  0.1264444E+00
          1   -1    0    0  501    0  0.00000000000E+00  0.00000000000E+00  0.11497899184E+03  0.11497899184E+03  0.00000000000E+00 0. -1.
         -1   -1    0    0    0  501 -0.00000000000E+00 -0.00000000000E+00 -0.16789850632E+03  0.16789850632E+03  0.00000000000E+00 0.  1.
         25    2    1    2    0    0 -0.35416785544E+02 -0.67626200573E+02 -0.71220432207E+02  0.16293505413E+03  0.12509128746E+03 0.  0.
         23    2    1    2    0    0  0.35416785544E+02  0.67626200573E+02  0.18300917729E+02  0.11994244403E+03  0.90684147390E+02 0.  0.
          5    1    3    3  502    0 -0.42237613652E+02  0.78116482066E+01 -0.75488617757E+02  0.86954250417E+02  0.41800000000E+01 0.  1.
         -5    1    3    3    0  502  0.68208281082E+01 -0.75437848779E+02  0.42681855495E+01  0.75980803710E+02  0.41800000000E+01 0.  1.
        -11    1    4    4    0    0 -0.15423767679E+02  0.29547672543E+02  0.40684356863E+02  0.52594433693E+02  0.00000000000E+00 0. -1.
         11    1    4    4    0    0  0.50840553223E+02  0.38078528030E+02 -0.22383439133E+02  0.67348010337E+02  0.00000000000E+00 0.  1.
</event>
<event>
 8    1  0.3654190E-009  0.1784574E+03  0.7561462E-02  0.1169304E+00
          2   -1    0    0  501    0  0.00000000000E+00  0.00000000000E+00  0.29968436883E+03  0.29968436883E+03  0.00000000000E+00 0. -1.
         -2   -1    0    0    0  501 -0.00000000000E+00 -0.00000000000E+00 -0.12684023126E+03  0.12684023126E+03  0.00000000000E+00 0.  1.
         25    2    1    2    0    0 -0.15518263156E+03  0.14881286007E+02  0.33359591046E+02  0.20265004742E+03  0.12510426689E+03 0.  0.
         23    2    1    2    0    0  0.15518263156E+03 -0.14881286007E+02  0.13948454652E+03  0.22387455266E+03  0.79754465713E+02 0.  0.
          5    1    3    3  502    0 -0.11666986644E+03 -0.47804866083E+02  0.23058612463E+02  0.12824326479E+03  0.41800000000E+01 0. -1.
         -5    1    3    3    0  502 -0.38512765123E+02  0.62686152089E+02  0.10300978583E+02  0.74406782627E+02  0.41800000000E+01 0. -1.
        -11    1    4    4    0    0  0.10802073503E+03 -0.14360550309E+01  0.44224112234E+02  0.11673180181E+03  0.00000000000E+00 0.  1.
         11    1    4    4    0    0  0.47161896530E+02 -0.13445230976E+02  0.95260434288E+02  0.10714275086E+03  0.00000000000E+00 0. -1.
</event>
<event>
 8    1  0.3654190E-009  0.1046657E+03  0.7561462E-02  0.1270780E+00
          1   -1    0    0  501    0  0.00000000000E+00  0.00000000000E+00  0.18329556011E+03  0.18329556011E+03  0.00000000000E+00 0. -1.
         -1   -1    0    0    0  501 -0.00000000000E+00 -0.00000000000E+00 -0.84738584241E+02  0.84738584241E+02  0.00000000000E+00 0.  1.
         25    2    1    2    0    0 -0.41920703537E+02  0.23287583899E+02  0.23310125972E+02  0.13598139403E+03  0.12509164880E+03 0.  0.
         23    2    1    2    0    0  0.41920703537E+02 -0.23287583899E+02  0.75246849899E+02  0.13205275032E+03  0.97345690709E+02 0.  0.
          5    1    3    3  502    0  0.13794289328E+02  0.59932991305E+02  0.30507000247E+02  0.68777869470E+02  0.41800000000E+01 0. -1.
         -5    1    3    3    0  502 -0.55714992865E+02 -0.36645407406E+02 -0.71968742750E+01  0.67203524559E+02  0.41800000000E+01 0. -1.
        -11    1    4    4    0    0  0.42497985981E+02  0.13107059766E+02  0.83612640170E+02  0.94704526947E+02  0.00000000000E+00 0. -1.
         11    1    4    4    0    0 -0.57728244423E+00 -0.36394643665E+02 -0.83657902710E+01  0.37348223377E+02  0.00000000000E+00 0.  1.
</event>
<event>
 8    1  0.3654190E-009  0.1268847E+03  0.7561462E-02  0.1232153E+00
         -3   -1    0    0    0  501 -0.00000000000E+00  0.00000000000E+00  0.13755853958E+03  0.13755853958E+03  0.00000000000E+00 0.  1.
          3   -1    0    0  501    0  0.00000000000E+00 -0.00000000000E+00 -0.12448566692E+03  0.12448566692E+03  0.00000000000E+00 0. -1.
         25    2    1    2    0    0  0.44060876321E+02  0.49538134801E+02  0.27184827544E+02  0.14416102364E+03  0.12509195924E+03 0.  0.
         23    2    1    2    0    0 -0.44060876321E+02 -0.49538134801E+02 -0.14111954882E+02  0.11788318286E+03  0.96446409516E+02 0.  0.
          5    1    3    3  502    0 -0.62691541777E+01 -0.37246570269E+02 -0.58664964085E+01  0.38451234974E+02  0.41800000000E+01 0. -1.
         -5    1    3    3    0  502  0.50330030499E+02  0.86784705070E+02  0.33051323953E+02  0.10570978866E+03  0.41800000000E+01 0. -1.
        -11    1    4    4    0    0  0.79265963976E+01 -0.61503008769E+02  0.23445916739E+01  0.62056007995E+02  0.00000000000E+00 0.  1.
         11    1    4    4    0    0 -0.51987472719E+02  0.11964873968E+02 -0.16456546555E+02  0.55827174864E+02  0.00000000000E+00 0. -1.
</event>
<event>
 8    1  0.3654190E-009  0.1176946E+03  0.7561462E-02  0.1246949E+00
         -1   -1    0    0    0  501 -0.00000000000E+00  0.00000000000E+00  0.91350887138E+03  0.91350887138E+03  0.00000000000E+00 0.  1.
          1   -1    0    0  501    0  0.00000000000E+00 -0.00000000000E+00 -0.24121458252E+02  0.24121458252E+02  0.00000000000E+00 0. -1.
         25    2    1    2    0    0 -0.72632598784E+02 -0.69163732990E+02  0.47119104811E+03  0.49772221096E+03  0.12508908466E+03 0.  0.
         23    2    1    2    0    0  0.72632598784E+02  0.69163732990E+02  0.41819636502E+03  0.43990811867E+03  0.92584214575E+02 0.  0.
          5    1    3    3  502    0 -0.41419486889E+02  0.78858640415E+01  0.38993455619E+02  0.57582312622E+02  0.41800000000E+01 0. -1.
         -5    1    3    3    0  502 -0.31213111895E+02 -0.77049597032E+02  0.43219759249E+03  0.44013989834E+03  0.41800000000E+01 0. -1.
        -11    1    4    4    0    0  0.61719412156E+02  0.29057270250E+02  0.37012511667E+03  0.37635915397E+03  0.00000000000E+00 0.  1.
         11    1    4    4    0    0  0.10913186628E+02  0.40106462740E+02  0.48071248355E+02  0.63548964699E+02  0.00000000000E+00 0. -1.
</event>
<event>
 8    1  0.3654190E-009  0.8320497E+02  0.7561462E-02  0.1320195E+00
          2   -1    0    0  501    0  0.00000000000E+00  0.00000000000E+00  0.17557606835E+03  0.17557606835E+03  0.00000000000E+00 0.  1.
         -2   -1    0    0    0  501 -0.00000000000E+00 -0.00000000000E+00 -0.83816435951E+02  0.83816435951E+02  0.00000000000E+00 0. -1.
         25    2    1    2    0    0  0.10465226233E+02 -0.27877602281E+02  0.98959749581E+02  0.16225471035E+03  0.12508747869E+03 0.  0.
         23    2    1    2    0    0 -0.10465226233E+02  0.27877602281E+02 -0.72001171798E+01  0.97137793953E+02  0.92180408209E+02 0.  0.
          5    1    3    3  502    0  0.94219746492E+01 -0.62633471577E+02  0.10872395708E+03  0.12589716681E+03  0.41800000000E+01 0. -1.
         -5    1    3    3    0  502  0.10432515838E+01  0.34755869295E+02 -0.97642074964E+01  0.36357543541E+02  0.41800000000E+01 0. -1.
        -11    1    4    4    0    0  0.87062835960E+01  0.42763004785E+02  0.29830550044E+02  0.52861476221E+02  0.00000000000E+00 0.  1.
         11    1    4    4    0    0 -0.19171509829E+02 -0.14885402504E+02 -0.37030667224E+02  0.44276317732E+02  0.00000000000E+00 0. -1.
</event>
<event>
 8    1  0.3654190E-009  0.7518424E+02  0.7561462E-02  0.1343301E+00
         -1   -1    0    0    0  501 -0.00000000000E+00  0.00000000000E+00  0.67035509027E+02  0.67035509027E+02  0.00000000000E+00 0.  1.
          1   -1    0    0  501    0  0.00000000000E+00 -0.00000000000E+00 -0.21352327807E+03  0.21352327807E+03  0.00000000000E+00 0. -1.
         25    2    1    2    0    0  0.59367999874E+01 -0.37580959760E+02 -0.42358830020E+02  0.13743842553E+03  0.12508987250E+03 0.  0.
         23    2    1    2    0    0 -0.59367999874E+01  0.37580959760E+02 -0.10412893902E+03  0.14312036156E+03  0.90515345775E+02 0.  0.
          5    1    3    3  502    0 -0.15471774108E+02 -0.25379048776E+02  0.40773461730E+02  0.50630223111E+02  0.41800000000E+01 0.  1.
         -5    1    3    3    0  502  0.21408574095E+02 -0.12201910984E+02 -0.83132291749E+02  0.86808202423E+02  0.41800000000E+01 0.  1.
        -11    1    4    4    0    0 -0.84110384356E+01 -0.28253087208E+02 -0.49152369849E+02  0.57314378354E+02  0.00000000000E+00 0. -1.
         11    1    4    4    0    0  0.24742384483E+01  0.65834046968E+02 -0.54976569173E+02  0.85805983207E+02  0.00000000000E+00 0.  1.
</event>
<event>
 8    1  0.3654190E-009  0.1312811E+03  0.7561462E-02  0.1225567E+00
         -2   -1    0    0    0  501 -0.00000000000E+00  0.00000000000E+00  0.21677924886E+03  0.21677924886E+03  0.00000000000E+00 0.  1.
          2   -1    0    0  501    0  0.00000000000E+00 -0.00000000000E+00 -0.91965062430E+02  0.91965062430E+02  0.00000000000E+00 0. -1.
         25    2    1    2    0    0 -0.79123948806E+02 -0.35625088788E+02  0.10194072475E+03  0.18321963979E+03  0.12509108209E+03 0.  0.
         23    2    1    2    0    0  0.79123948806E+02  0.35625088788E+02  0.22873461677E+02  0.12552467149E+03  0.87769594272E+02 0.  0.
          5    1    3    3  502    0 -0.10012079178E+03  0.53150346509E+01  0.45226838716E+02  0.11006980458E+03  0.41800000000E+01 0. -1.
         -5    1    3    3    0  502  0.20996842978E+02 -0.40940123439E+02  0.56713886032E+02  0.73149835209E+02  0.41800000000E+01 0. -1.
        -11    1    4    4    0    0 -0.38752391728E+01 -0.17199025866E+02  0.20601275925E+02  0.27115245511E+02  0.00000000000E+00 0. -1.
         11    1    4    4    0    0  0.82999187978E+02  0.52824114655E+02  0.22721857526E+01  0.98409425983E+02  0.00000000000E+00 0.  1.
</event>
<event>
 8    1  0.3654190E-009  0.1678302E+03  0.7561462E-02  0.1180130E+00
          2   -1    0    0  501    0  0.00000000000E+00  0.00000000000E+00  0.65010730144E+03  0.65010730144E+03  0.00000000000E+00 0. -1.
         -2   -1    0    0    0  501 -0.00000000000E+00 -0.00000000000E+00 -0.55769402220E+02  0.55769402220E+02  0.00000000000E+00 0.  1.
         25    2    1    2    0    0 -0.10133330196E+03 -0.99484752240E+02  0.42773758512E+03  0.46773051003E+03  0.12508690687E+03 0.  0.
         23    2    1    2    0    0  0.10133330196E+03  0.99484752240E+02  0.16660031410E+03  0.23814619364E+03  0.93767216396E+02 0.  0.
          5    1    3    3  502    0  0.20422122719E+02 -0.43805883230E+02  0.65414535543E+02  0.81440483559E+02  0.41800000000E+01 0. -1.
         -5    1    3    3    0  502 -0.12175542468E+03 -0.55678869009E+02  0.36232304958E+03  0.38629002647E+03  0.41800000000E+01 0. -1.
        -11    1    4    4    0    0  0.30635425570E+02 -0.62670772453E+00 -0.82997214802E+00  0.30653073520E+02  0.00000000000E+00 0.  1.
         11    1    4    4    0    0  0.70697876389E+02  0.10011145996E+03  0.16743028625E+03  0.20749312012E+03  0.00000000000E+00 0. -1.
</event>
<event>
 8    1  0.3654190E-009  0.3745239E+03  0.7561462E-02  0.1052977E+00
          2   -1    0    0  501    0  0.00000000000E+00  0.00000000000E+00  0.46347593479E+03  0.46347593479E+03  0.00000000000E+00 0. -1.
         -2   -1    0    0    0  501 -0.00000000000E+00 -0.00000000000E+00 -0.33435782575E+03  0.33435782575E+03  0.00000000000E+00 0.  1.
         25    2    1    2    0    0  0.34882874598E+03 -0.10487116020E+03  0.16752732439E+03  0.41999521173E+03  0.12510443315E+03 0.  0.
         23    2    1    2    0    0 -0.34882874598E+03  0.10487116020E+03 -0.38409215348E+02  0.37783854881E+03  0.92775249317E+02 0.  0.
          5    1    3    3  502    0  0.25684803894E+02  0.17439607002E+02  0.41919547919E+02  0.52331347596E+02  0.41800000000E+01 0.  1.
         -5    1    3    3    0  502  0.32314394208E+03 -0.12231076720E+03  0.12560777647E+03  0.36766386413E+03  0.41800000000E+01 0.  1.
        -11    1    4    4    0    0 -0.17629260581E+03  0.92789509153E+02 -0.46916619505E+02  0.20467082121E+03  0.00000000000E+00 0. -1.
         11    1    4    4    0    0 -0.17253614017E+03  0.12081651045E+02  0.85074041569E+01  0.17316772760E+03  0.00000000000E+00 0.  1.
</event>
<event>
 8    1  0.3654190E-009  0.1350967E+03  0.7561462E-02  0.1220083E+00
         -1   -1    0    0    0  501 -0.00000000000E+00  0.00000000000E+00  0.67762620126E+03  0.67762620126E+03  0.00000000000E+00 0. -1.
          1   -1    0    0  501    0  0.00000000000E+00 -0.00000000000E+00 -0.58813240587E+02  0.58813240587E+02  0.00000000000E+00 0.  1.
         25    2    1    2    0    0 -0.10534159320E+03 -0.66354172874E+02  0.53055061835E+03  0.55913422416E+03  0.12508954585E+03 0.  0.
         23    2    1    2    0    0  0.10534159320E+03  0.66354172874E+02  0.88262342325E+02  0.17730521769E+03  0.90261684178E+02 0.  0.
          5    1    3    3  502    0 -0.31812042118E+02 -0.45326537824E+02  0.57558206118E+02  0.79980751098E+02  0.41800000000E+01 0. -1.
         -5    1    3    3    0  502 -0.73529551085E+02 -0.21027635050E+02  0.47299241223E+03  0.47915347306E+03  0.41800000000E+01 0. -1.
        -11    1    4    4    0    0  0.86579501528E+02  0.77539328520E+02  0.37635255610E+02  0.12216697597E+03  0.00000000000E+00 0.  1.
         11    1    4    4    0    0  0.18762091674E+02 -0.11185155647E+02  0.50627086714E+02  0.55138241720E+02  0.00000000000E+00 0. -1.
</event>
<event>
 8    1  0.3654190E-009  0.1878280E+03  0.7561462E-02  0.1160435E+00
          2   -1    0    0  501    0  0.00000000000E+00  0.00000000000E+00  0.20479716578E+04  0.20479716578E+04  0.00000000000E+00 0. -1.
         -2   -1    0    0    0  501 -0.00000000000E+00 -0.00000000000E+00 -0.25132826917E+02  0.25132826917E+02  0.00000000000E+00 0.  1.
         25    2    1    2    0    0  0.99949736330E+02  0.12795244423E+03  0.15732675763E+04  0.15865618348E+04  0.12508321716E+03 0.  0.
         23    2    1    2    0    0 -0.99949736330E+02 -0.12795244423E+03  0.44957125459E+03  0.48654264993E+03  0.90816625505E+02 0.  0.
          5    1    3    3  502    0  0.67060688641E+02  0.14424073088E+03  0.10496162177E+04  0.10616092508E+04  0.41800000000E+01 0.  1.
         -5    1    3    3    0  502  0.32889047689E+02 -0.16288286648E+02  0.52365135851E+03  0.52495258396E+03  0.41800000000E+01 0.  1.
        -11    1    4    4    0    0 -0.85446091857E+02 -0.47331577951E+02  0.30640674584E+03  0.32159976178E+03  0.00000000000E+00 0. -1.
         11    1    4    4    0    0 -0.14503644473E+02 -0.80620866283E+02  0.14316450876E+03  0.16494288815E+03  0.00000000000E+00 0.  1.
</event>
<event>
 8    1  0.3654190E-009  0.1660561E+03  0.7561462E-02  0.1182024E+00
         -2   -1    0    0    0  501 -0.00000000000E+00  0.00000000000E+00  0.28774375639E+02  0.28774375639E+02  0.00000000000E+00 0.  1.
          2   -1    0    0  501    0  0.00000000000E+00 -0.00000000000E+00 -0.10760158089E+04  0.10760158089E+04  0.00000000000E+00 0. -1.
         25    2    1    2    0    0 -0.12543591523E+03 -0.22541741299E+02 -0.72992228093E+03  0.75145014562E+03  0.12509390965E+03 0.  0.
         23    2    1    2    0    0  0.12543591523E+03  0.22541741299E+02 -0.31731915235E+03  0.35334003893E+03  0.88968757065E+02 0.  0.
          5    1    3    3  502    0 -0.73919655902E+02  0.49731706493E+02 -0.33652922278E+03  0.34814759563E+03  0.41800000000E+01 0. -1.
         -5    1    3    3    0  502 -0.51516259328E+02 -0.72273447792E+02 -0.39339305815E+03  0.40330254999E+03  0.41800000000E+01 0. -1.
        -11    1    4    4    0    0  0.69332574586E+02 -0.31516701316E+02 -0.13358501151E+03  0.15377016505E+03  0.00000000000E+00 0.  1.
         11    1    4    4    0    0  0.56103340644E+02  0.54058442615E+02 -0.18373414084E+03  0.19956987388E+03  0.00000000000E+00 0. -1.
</event>
<event>
 8    1  0.3654190E-009  0.1229410E+03  0.7561462E-02  0.1238323E+00
          1   -1    0    0  501    0  0.00000000000E+00  0.00000000000E+00  0.13651563883E+04  0.13651563883E+04  0.00000000000E+00 0.  1.
         -1   -1    0    0    0  501 -0.00000000000E+00 -0.00000000000E+00 -0.13208714728E+02  0.13208714728E+02  0.00000000000E+00 0. -1.
         25    2    1    2    0    0  0.64490878520E+02  0.22437785487E+01  0.98959375199E+03  0.99955329101E+03  0.12508748795E+03 0.  0.
         23    2    1    2    0    0 -0.64490878520E+02 -0.22437785487E+01  0.36235392157E+03  0.37881181200E+03  0.89632117466E+02 0.  0.
          5    1    3    3  502    0 -0.46561878546E+01 -0.52119887157E+02  0.34421994731E+03  0.34819966578E+03  0.41800000000E+01 0.  1.
         -5    1    3    3    0  502  0.69147066375E+02  0.54363665705E+02  0.64537380468E+03  0.65135362523E+03  0.41800000000E+01 0.  1.
        -11    1    4    4    0    0 -0.15972987476E+01 -0.34575630300E+02  0.17853400329E+03  0.18185823024E+03  0.00000000000E+00 0.  1.
         11    1    4    4    0    0 -0.62893579772E+02  0.32331851751E+02  0.18381991828E+03  0.19695358176E+03  0.00000000000E+00 0. -1.
</event>
<event>
 8    1  0.3654190E-009  0.1846013E+03  0.7561462E-02  0.1163423E+00
          2   -1    0    0  501    0  0.00000000000E+00  0.00000000000E+00  0.12231128344E+04  0.12231128344E+04  0.00000000000E+00 0. -1.
         -2   -1    0    0    0  501 -0.00000000000E+00 -0.00000000000E+00 -0.41542470242E+02  0.41542470242E+02  0.00000000000E+00 0.  1.
         25    2    1    2    0    0 -0.13872095223E+03 -0.80014359443E+02  0.93206815444E+03  0.95396221543E+03  0.12508822342E+03 0.  0.
         23    2    1    2    0    0  0.13872095223E+03  0.80014359443E+02  0.24950220970E+03  0.31069308920E+03  0.92914168591E+02 0.  0.
          5    1    3    3  502    0  0.56716834219E+01  0.11943745363E+02  0.26175692786E+03  0.26212398351E+03  0.41800000000E+01 0. -1.
         -5    1    3    3    0  502 -0.14439263565E+03 -0.91958104806E+02  0.67031122658E+03  0.69183823192E+03  0.41800000000E+01 0. -1.
        -11    1    4    4    0    0  0.12605142227E+03  0.26115869955E+02  0.18906692429E+03  0.22872975666E+03  0.00000000000E+00 0.  1.
         11    1    4    4    0    0  0.12669529960E+02  0.53898489488E+02  0.60435285406E+02  0.81963332537E+02  0.00000000000E+00 0. -1.
</event>
<event>
 8    1  0.3654190E-009  0.1010158E+03  0.7561462E-02  0.1278174E+00
         -2   -1    0    0    0  501 -0.00000000000E+00  0.00000000000E+00  0.34929058984E+02  0.34929058984E+02  0.00000000000E+00 0.  1.
          2   -1    0    0  501    0  0.00000000000E+00 -0.00000000000E+00 -0.37773686112E+03  0.37773686112E+03  0.00000000000E+00 0. -1.
         25    2    1    2    0    0  0.82512266628E+01  0.22161390722E+02 -0.14020536018E+03  0.18937894281E+03  0.12509049115E+03 0.  0.
         23    2    1    2    0    0 -0.82512266628E+01 -0.22161390722E+02 -0.20260244196E+03  0.22328697729E+03  0.90830142366E+02 0.  0.
          5    1    3    3  502    0  0.16189520535E+02  0.68152936565E+02 -0.11854109017E+03  0.13775480317E+03  0.41800000000E+01 0. -1.
         -5    1    3    3    0  502 -0.79382938726E+01 -0.45991545843E+02 -0.21664270010E+02  0.51624139641E+02  0.41800000000E+01 0. -1.
        -11    1    4    4    0    0 -0.39543572307E+02  0.93031313113E+01 -0.14494351155E+03  0.15052861490E+03  0.00000000000E+00 0.  1.
         11    1    4    4    0    0  0.31292345644E+02 -0.31464522033E+02 -0.57658930403E+02  0.72758362392E+02  0.00000000000E+00 0. -1.
</event>
<event>
 8    1  0.3654190E-009  0.6773708E+02  0.7561462E-02  0.1367962E+00
         -2   -1    0    0    0  501 -0.00000000000E+00  0.00000000000E+00  0.12658758810E+03  0.12658758810E+03  0.00000000000E+00 0.  1.
          2   -1    0    0  501    0  0.00000000000E+00 -0.00000000000E+00 -0.25381224697E+03  0.25381224697E+03  0.00000000000E+00 0. -1.
         25    2    1    2    0    0 -0.82552845462E+01  0.26799934246E+01  0.83459641350E+02  0.15062643014E+03  0.12508987823E+03 0.  0.
         23    2    1    2    0    0  0.82552845462E+01 -0.26799934246E+01 -0.21068430022E+03  0.22977340493E+03  0.91283137360E+02 0.  0.
          5    1    3    3  502    0  0.17240475031E+02 -0.20112526279E+02 -0.25099384481E+02  0.36731446935E+02  0.41800000000E+01 0.  1.
         -5    1    3    3    0  502 -0.25495759577E+02  0.22792519703E+02  0.10855902583E+03  0.11389498321E+03  0.41800000000E+01 0.  1.
        -11    1    4    4    0    0  0.14233418850E+02 -0.36855527670E+02 -0.42416969676E+02  0.57966537317E+02  0.00000000000E+00 0.  1.
         11    1    4    4    0    0 -0.59781343039E+01  0.34175534245E+02 -0.16826733054E+03  0.17180686761E+03  0.00000000000E+00 0. -1.
</event>
<event>
 8    1  0.3654190E-009  0.1135173E+03  0.7561462E-02  0.1254192E+00
         -2   -1    0    0    0  501 -0.00000000000E+00  0.00000000000E+00  0.20882551511E+03  0.20882551511E+03  0.00000000000E+00 0. -1.
          2   -1    0    0  501    0  0.00000000000E+00 -0.00000000000E+00 -0.12743303788E+03  0.12743303788E+03  0.00000000000E+00 0.  1.
         25    2    1    2    0    0 -0.65769992345E+02 -0.10379157022E+02 -0.65259526021E+02  0.15601228853E+03  0.12509040588E+03 0.  0.
         23    2    1    2    0    0  0.65769992345E+02  0.10379157022E+02  0.14665200325E+03  0.18024626446E+03  0.80922722399E+02 0.  0.
          5    1    3    3  502    0 -0.17827705254E+02 -0.58774220214E+02  0.32899989530E-01  0.61560616621E+02  0.41800000000E+01 0. -1.
         -5    1    3    3    0  502 -0.47942287091E+02  0.48395063192E+02 -0.65292426011E+02  0.94451671914E+02  0.41800000000E+01 0. -1.
        -11    1    4    4    0    0  0.80253288127E+02  0.15624511227E+01  0.14122625331E+03  0.16244348597E+03  0.00000000000E+00 0.  1.
         11    1    4    4    0    0 -0.14483295782E+02  0.88167058990E+01  0.54257499385E+01  0.17802778491E+02  0.00000000000E+00 0. -1.
</event>
<event>
 8    1  0.3654190E-009  0.1268182E+03  0.7561462E-02  0.1232255E+00
         -2   -1    0    0    0  501 -0.00000000000E+00  0.00000000000E+00  0.11544855783E+03  0.11544855783E+03  0.00000000000E+00 0.  1.
          2   -1    0    0  501    0  0.00000000000E+00 -0.00000000000E+00 -0.31082332312E+03  0.31082332312E+03  0.00000000000E+00 0. -1.
         25    2    1    2    0    0  0.76867211125E+02 -0.65151395270E+02 -0.23567691761E+03  0.28520948264E+03  0.12509023559E+03 0.  0.
         23    2    1    2    0    0 -0.76867211125E+02  0.65151395270E+02  0.40302152318E+02  0.14106239831E+03  0.90116947810E+02 0.  0.
          5    1    3    3  502    0  0.65872079375E+02  0.15260246316E+02 -0.55586741660E+02  0.87631981646E+02  0.41800000000E+01 0. -1.
         -5    1    3    3    0  502  0.10995131750E+02 -0.80411641586E+02 -0.18009017595E+03  0.19757750099E+03  0.41800000000E+01 0. -1.
        -11    1    4    4    0    0 -0.20170557301E+02  0.28255271434E+01  0.52142091790E+02  0.55978859596E+02  0.00000000000E+00 0.  1.
         11    1    4    4    0    0 -0.56696653825E+02  0.62325868126E+02 -0.11839939472E+02  0.85083538710E+02  0.00000000000E+00 0. -1.
</event>
<event>
 8    1  0.3654190E-009  0.1076833E+03  0.7561462E-02  0.1264921E+00
         -2   -1    0    0    0  501 -0.00000000000E+00  0.00000000000E+00  0.56300060791E+02  0.56300060791E+02  0.00000000000E+00 0.  1.
          2   -1    0    0  501    0  0.00000000000E+00 -0.00000000000E+00 -0.25028749467E+03  0.25028749467E+03  0.00000000000E+00 0. -1.
         25    2    1    2    0    0 -0.40161011455E+02 -0.25188869521E+02 -0.11444130511E+03  0.17604071330E+03  0.12508450917E+03 0.  0.
         23    2    1    2    0    0  0.40161011455E+02  0.25188869521E+02 -0.79546128762E+02  0.13054684216E+03  0.92019049153E+02 0.  0.
          5    1    3    3  502    0 -0.79857177566E+02 -0.12311665877E+02 -0.10584605542E+03  0.13322764643E+03  0.41800000000E+01 0. -1.
         -5    1    3    3    0  502  0.39696166111E+02 -0.12877203644E+02 -0.85952496950E+01  0.42813066871E+02  0.41800000000E+01 0. -1.
        -11    1    4    4    0    0  0.14341211509E+02  0.52800571384E+02 -0.16696870396E+02  0.57204511772E+02  0.00000000000E+00 0.  1.
         11    1    4    4    0    0  0.25819799946E+02 -0.27611701863E+02 -0.62849258366E+02  0.73342330384E+02  0.00000000000E+00 0. -1.
</event>
<event>
 8    1  0.3654190E-009  0.1834555E+03  0.7561462E-02  0.1164500E+00
         -1   -1    0    0    0  501 -0.00000000000E+00  0.00000000000E+00  0.79609222348E+02  0.79609222348E+02  0.00000000000E+00 0.  1.
          1   -1    0    0  501    0  0.00000000000E+00 -0.00000000000E+00 -0.44523675171E+03  0.44523675171E+03  0.00000000000E+00 0. -1.
         25    2    1    2    0    0 -0.13385584564E+03  0.70590709617E+02 -0.21423236409E+03  0.29059081364E+03  0.12508828664E+03 0.  0.
         23    2    1    2    0    0  0.13385584564E+03 -0.70590709617E+02 -0.15139516527E+03  0.23425516042E+03  0.95155390897E+02 0.  0.
          5    1    3    3  502    0 -0.57873512132E+02 -0.31857522796E+02 -0.96085168711E+02  0.11667937783E+03  0.41800000000E+01 0.  1.
         -5    1    3    3    0  502 -0.75982333508E+02  0.10244823241E+03 -0.11814719538E+03  0.17391143581E+03  0.41800000000E+01 0.  1.
        -11    1    4    4    0    0  0.27229709464E+02 -0.60071021292E+02 -0.30351037345E+02  0.72602824632E+02  0.00000000000E+00 0. -1.
         11    1    4    4    0    0  0.10662613618E+03 -0.10519688325E+02 -0.12104412793E+03  0.16165233578E+03  0.00000000000E+00 0.  1.
</event>
<event>
 8    1  0.3654190E-009  0.1199602E+03  0.7561462E-02  0.1243163E+00
         -2   -1    0    0    0  501 -0.00000000000E+00  0.00000000000E+00  0.31659701509E+02  0.31659701509E+02  0.00000000000E+00 0.  1.
          2   -1    0    0  501    0  0.00000000000E+00 -0.00000000000E+00 -0.49437080897E+03  0.49437080897E+03  0.00000000000E+00 0. -1.
         25    2    1    2    0    0  0.47950168644E+02  0.37464020415E+02 -0.24408276672E+03  0.28094243154E+03  0.12509788700E+03 0.  0.
         23    2    1    2    0    0 -0.47950168644E+02 -0.37464020415E+02 -0.21862834075E+03  0.24508807894E+03  0.92558325198E+02 0.  0.
          5    1    3    3  502    0  0.76097084693E+02 -0.14823143298E+02 -0.11450758895E+03  0.13834721611E+03  0.41800000000E+01 0.  1.
         -5    1    3    3    0  502 -0.28146916049E+02  0.52287163713E+02 -0.12957517776E+03  0.14259521543E+03  0.41800000000E+01 0.  1.
        -11    1    4    4    0    0  0.11221103907E+02  0.18285769596E+02 -0.93050080353E+02  0.95491360846E+02  0.00000000000E+00 0. -1.
         11    1    4    4    0    0 -0.59171272551E+02 -0.55749790011E+02 -0.12557826040E+03  0.14959671810E+03  0.00000000000E+00 0.  1.
</event>
<event>
 8    1  0.3654190E-009  0.7593055E+02  0.7561462E-02  0.1341013E+00
         -1   -1    0    0    0  501 -0.00000000000E+00  0.00000000000E+00  0.12230069191E+03  0.12230069191E+03  0.00000000000E+00 0.  1.
          1   -1    0    0  501    0  0.00000000000E+00 -0.00000000000E+00 -0.12680008385E+03  0.12680008385E+03  0.00000000000E+00 0. -1.
         25    2    1    2    0    0  0.58632969666E+02 -0.10414373318E+02  0.40185737825E+01  0.13860026610E+03  0.12509036943E+03 0.  0.
         23    2    1    2    0    0 -0.58632969666E+02  0.10414373318E+02 -0.85179657260E+01  0.11050050967E+03  0.92690466570E+02 0.  0.
          5    1    3    3  502    0  0.37381224558E+02  0.85978688711E+01 -0.58316488121E+02  0.69925420880E+02  0.41800000000E+01 0.  1.
         -5    1    3    3    0  502  0.21251745108E+02 -0.19012242189E+02  0.62335061904E+02  0.68674845218E+02  0.41800000000E+01 0.  1.
        -11    1    4    4    0    0 -0.35381406585E+02 -0.24122789267E+02  0.31181666439E+02  0.52972155100E+02  0.00000000000E+00 0.  1.
         11    1    4    4    0    0 -0.23251563080E+02  0.34537162585E+02 -0.39699632165E+02  0.57528354567E+02  0.00000000000E+00 0. -1.
</event>
<event>
 8    1  0.3654190E-009  0.1117296E+03  0.7561462E-02  0.1257400E+00
         -2   -1    0    0    0  501 -0.00000000000E+00  0.00000000000E+00  0.16827756154E+02  0.16827756154E+02  0.00000000000E+00 0.  1.
          2   -1    0    0  501    0  0.00000000000E+00 -0.00000000000E+00 -0.82475513591E+03  0.82475513591E+03  0.00000000000E+00 0. -1.
         25    2    1    2    0    0  0.28212488853E+02 -0.20278874576E+01 -0.33249177799E+03  0.35636751040E+03  0.12508782189E+03 0.  0.
         23    2    1    2    0    0 -0.28212488853E+02  0.20278874576E+01 -0.47543560177E+03  0.48521538166E+03  0.92708674464E+02 0.  0.
          5    1    3    3  502    0  0.22091458599E+02 -0.62134228840E+02 -0.14520979302E+03  0.15953699046E+03  0.41800000000E+01 0. -1.
         -5    1    3    3    0  502  0.61210302544E+01  0.60106341382E+02 -0.18728198497E+03  0.19683051994E+03  0.41800000000E+01 0. -1.
        -11    1    4    4    0    0 -0.48009011237E+02  0.34270267558E+02 -0.27841047480E+03  0.28459042303E+03  0.00000000000E+00 0.  1.
         11    1    4    4    0    0  0.19796522383E+02 -0.32242380101E+02 -0.19702512696E+03  0.20062495863E+03  0.00000000000E+00 0. -1.
</event>
<event>
 8    1  0.3654190E-009  0.1263112E+03  0.7561462E-02  0.1233034E+00
         -2   -1    0    0    0  501 -0.00000000000E+00  0.00000000000E+00  0.38994370439E+02  0.38994370439E+02  0.00000000000E+00 0.  1.
          2   -1    0    0  501    0  0.00000000000E+00 -0.00000000000E+00 -0.56434242087E+03  0.56434242087E+03  0.00000000000E+00 0. -1.
         25    2    1    2    0    0  0.20811683780E+02  0.77328162265E+02 -0.40863338733E+03  0.43478593490E+03  0.12507914729E+03 0.  0.
         23    2    1    2    0    0 -0.20811683780E+02 -0.77328162265E+02 -0.11671466310E+03  0.16855085641E+03  0.91511243856E+02 0.  0.
          5    1    3    3  502    0  0.66980813656E+02  0.76611770593E+02 -0.26757156754E+03  0.28630020773E+03  0.41800000000E+01 0.  1.
         -5    1    3    3    0  502 -0.46169129876E+02  0.71639167230E+00 -0.14106181979E+03  0.14848572717E+03  0.41800000000E+01 0.  1.
        -11    1    4    4    0    0  0.16943403689E+02 -0.60939296910E+02 -0.24978326635E+02  0.68004364845E+02  0.00000000000E+00 0.  1.
         11    1    4    4    0    0 -0.37755087469E+02 -0.16388865355E+02 -0.91736336469E+02  0.10054649157E+03  0.00000000000E+00 0. -1.
</event>
<event>
 8    1  0.3654190E-009  0.2512980E+03  0.7561462E-02  0.1112487E+00
          1   -1    0    0  501    0  0.00000000000E+00  0.00000000000E+00  0.13743172880E+04  0.13743172880E+04  0.00000000000E+00 0. -1.
         -1   -1    0    0    0  501 -0.00000000000E+00 -0.00000000000E+00 -0.48496425257E+02  0.48496425257E+02  0.00000000000E+00 0.  1.
         25    2    1    2    0    0  0.72725446553E+02  0.22227632885E+03  0.70790395234E+03  0.75595755536E+03  0.12509221727E+03 0.  0.
         23    2    1    2    0    0 -0.72725446553E+02 -0.22227632885E+03  0.61791691039E+03  0.66685615789E+03  0.90443740622E+02 0.  0.
          5    1    3    3  502    0 -0.21808889103E+02  0.23547182687E+02  0.19723198217E+03  0.19987001938E+03  0.41800000000E+01 0. -1.
         -5    1    3    3    0  502  0.94534335656E+02  0.19872914617E+03  0.51067197017E+03  0.55608753598E+03  0.41800000000E+01 0. -1.
        -11    1    4    4    0    0 -0.91890334117E+00 -0.14360279146E+03  0.37787771738E+03  0.40424519216E+03  0.00000000000E+00 0.  1.
         11    1    4    4    0    0 -0.71806543212E+02 -0.78673537399E+02  0.24003919302E+03  0.26261096573E+03  0.00000000000E+00 0. -1.
</event>
<event>
 8    1  0.3654190E-009  0.9773997E+02  0.7561462E-02  0.1285122E+00
          2   -1    0    0  501    0  0.00000000000E+00  0.00000000000E+00  0.18245633007E+03  0.18245633007E+03  0.00000000000E+00 0. -1.
         -2   -1    0    0    0  501 -0.00000000000E+00 -0.00000000000E+00 -0.17591773709E+03  0.17591773709E+03  0.00000000000E+00 0.  1.
         25    2    1    2    0    0  0.48874057088E+02 -0.41105850066E+02 -0.12171423987E+03  0.18584925111E+03  0.12508886275E+03 0.  0.
         23    2    1    2    0    0 -0.48874057088E+02  0.41105850066E+02  0.12825283285E+03  0.17252481605E+03  0.96112739288E+02 0.  0.
          5    1    3    3  502    0  0.67432496018E+02 -0.52054966669E+02 -0.13537048573E+03  0.15999844337E+03  0.41800000000E+01 0. -1.
         -5    1    3    3    0  502 -0.18558438930E+02  0.10949116602E+02  0.13656245859E+02  0.25850807741E+02  0.41800000000E+01 0. -1.
        -11    1    4    4    0    0 -0.59102853083E+02  0.16149208114E+02  0.13177685351E+03  0.14532406300E+03  0.00000000000E+00 0. -1.
         11    1    4    4    0    0  0.10228795995E+02  0.24956641952E+02 -0.35240206595E+01  0.27200753053E+02  0.00000000000E+00 0.  1.
</event>
<event>
 8    1  0.3654190E-009  0.1210791E+03  0.7561462E-02  0.1241327E+00
         -1   -1    0    0    0  501 -0.00000000000E+00  0.00000000000E+00  0.16918556996E+02  0.16918556996E+02  0.00000000000E+00 0.  1.
          1   -1    0    0  501    0  0.00000000000E+00 -0.00000000000E+00 -0.18792217126E+04  0.18792217126E+04  0.00000000000E+00 0. -1.
         25    2    1    2    0    0 -0.72324026582E+02  0.10221134266E+02 -0.16117437610E+04  0.16182400708E+04  0.12509092344E+03 0.  0.
         23    2    1    2    0    0  0.72324026582E+02 -0.10221134266E+02 -0.25055939456E+03  0.27790019878E+03  0.95463468784E+02 0.  0.
          5    1    3    3  502    0  0.16840385241E+02 -0.38898852999E+02 -0.53008290220E+03  0.53179138292E+03  0.41800000000E+01 0.  1.
         -5    1    3    3    0  502 -0.89164411824E+02  0.49119987265E+02 -0.10816608588E+04  0.10864486879E+04  0.41800000000E+01 0.  1.
        -11    1    4    4    0    0  0.20364953702E+02 -0.34706827847E+02 -0.19085655098E+03  0.19505260390E+03  0.00000000000E+00 0. -1.
         11    1    4    4    0    0  0.51959072881E+02  0.24485693581E+02 -0.59702843581E+02  0.82847594874E+02  0.00000000000E+00 0.  1.
</event>
<event>
 8    1  0.3654190E-009  0.1546527E+03  0.7561462E-02  0.1194870E+00
         -1   -1    0    0    0  501 -0.00000000000E+00  0.00000000000E+00  0.36113860781E+03  0.36113860781E+03  0.00000000000E+00 0.  1.
          1   -1    0    0  501    0  0.00000000000E+00 -0.00000000000E+00 -0.77200731417E+02  0.77200731417E+02  0.00000000000E+00 0. -1.
         25    2    1    2    0    0  0.70234016953E+02  0.88861008440E+02  0.81830029650E+02  0.18754289947E+03  0.12508832652E+03 0.  0.
         23    2    1    2    0    0 -0.70234016953E+02 -0.88861008440E+02  0.20210784674E+03  0.25079643976E+03  0.96032163998E+02 0.  0.
          5    1    3    3  502    0  0.14629809715E+02  0.10246985207E+03  0.78632224646E+02  0.13005614583E+03  0.41800000000E+01 0. -1.
         -5    1    3    3    0  502  0.55604207238E+02 -0.13608843626E+02  0.31978050044E+01  0.57486753642E+02  0.41800000000E+01 0. -1.
        -11    1    4    4    0    0 -0.78712332578E+02 -0.10431945347E+03  0.18192180067E+03  0.22399491341E+03  0.00000000000E+00 0.  1.
         11    1    4    4    0    0  0.84783156252E+01  0.15458445034E+02  0.20186046071E+02  0.26801526350E+02  0.00000000000E+00 0. -1.
</event>
<event>
 8    1  0.3654190E-009  0.8086058E+02  0.7561462E-02  0.1326627E+00
         -3   -1    0    0    0  501 -0.00000000000E+00  0.00000000000E+00  0.22830310579E+03  0.22830310579E+03  0.00000000000E+00 0.  1.
          3   -1    0    0  501    0  0.00000000000E+00 -0.00000000000E+00 -0.68012441601E+02  0.68012441601E+02  0.00000000000E+00 0. -1.
         25    2    1    2    0    0  0.25788027411E+02 -0.53684094564E+02  0.10506486274E+03  0.17387575349E+03  0.12508856024E+03 0.  0.
         23    2    1    2    0    0 -0.25788027411E+02  0.53684094564E+02  0.55225801453E+02  0.12243979390E+03  0.91622102228E+02 0.  0.
          5    1    3    3  502    0 -0.89589780140E+01 -0.39525757551E+02  0.12479531102E+03  0.13127791455E+03  0.41800000000E+01 0.  1.
         -5    1    3    3    0  502  0.34747005425E+02 -0.14158337013E+02 -0.19730448282E+02  0.42597838940E+02  0.41800000000E+01 0.  1.
        -11    1    4    4    0    0  0.12523161989E+02 -0.47144726486E+01  0.50714983226E+02  0.52450599254E+02  0.00000000000E+00 0.  1.
         11    1    4    4    0    0 -0.38311189400E+02  0.58398567212E+02  0.45108182266E+01  0.69989194643E+02  0.00000000000E+00 0. -1.
</event>
<event>
 8    1  0.3654190E-009  0.7870018E+02  0.7561462E-02  0.1332781E+00
         -3   -1    0    0    0  501 -0.00000000000E+00  0.00000000000E+00  0.76088614397E+02  0.76088614397E+02  0.00000000000E+00 0.  1.
          3   -1    0    0  501    0  0.00000000000E+00 -0.00000000000E+00 -0.16067821298E+03  0.16067821298E+03  0.00000000000E+00 0. -1.
         25    2    1    2    0    0  0.12120350852E+02 -0.17477883677E+01 -0.73104686005E+02  0.14540020862E+03  0.12508784066E+03 0.  0.
         23    2    1    2    0    0 -0.12120350852E+02  0.17477883677E+01 -0.11484912579E+02  0.91366618760E+02  0.89810902110E+02 0.  0.
          5    1    3    3  502    0 -0.30690077178E+02 -0.64304432148E+01 -0.92665230395E+02  0.97916029133E+02  0.41800000000E+01 0.  1.
         -5    1    3    3    0  502  0.42810428030E+02  0.46826548471E+01  0.19560544390E+02  0.47484179485E+02  0.41800000000E+01 0.  1.
        -11    1    4    4    0    0 -0.24419976305E+02  0.37465966479E+02  0.12726437090E+02  0.46497269682E+02  0.00000000000E+00 0.  1.
         11    1    4    4    0    0  0.12299625453E+02 -0.35718178111E+02 -0.24211349669E+02  0.44869349078E+02  0.00000000000E+00 0. -1.
</event>
<event>
 8    1  0.3654190E-009  0.1814845E+03  0.7561462E-02  0.1166374E+00
          1   -1    0    0  501    0  0.00000000000E+00  0.00000000000E+00  0.66923012968E+02  0.66923012968E+02  0.00000000000E+00 0. -1.
         -1   -1    0    0    0  501 -0.00000000000E+00 -0.00000000000E+00 -0.52319411864E+03  0.52319411864E+03  0.00000000000E+00 0.  1.
         25    2    1    2    0    0 -0.14264991450E+03 -0.49451634262E+02 -0.21610373702E+03  0.29179212934E+03  0.12508940544E+03 0.  0.
         23    2    1    2    0    0  0.14264991450E+03  0.49451634262E+02 -0.24016736865E+03  0.29832500226E+03  0.92319985769E+02 0.  0.
          5    1    3    3  502    0 -0.15390670734E+03 -0.14325700703E+02 -0.14701506760E+03  0.21336213995E+03  0.41800000000E+01 0. -1.
         -5    1    3    3    0  502  0.11256792834E+02 -0.35125933559E+02 -0.69088669425E+02  0.78429989393E+02  0.41800000000E+01 0. -1.
        -11    1    4    4    0    0  0.75048306950E+02 -0.16428149138E+02 -0.14607315042E+03  0.16504392668E+03  0.00000000000E+00 0.  1.
         11    1    4    4    0    0  0.67601607553E+02  0.65879783400E+02 -0.94094218233E+02  0.13328107559E+03  0.00000000000E+00 0. -1.
</event>
<event>
 8    1  0.3654190E-009  0.9050851E+02  0.7561462E-02  0.1301625E+00
          1   -1    0    0  501    0  0.00000000000E+00  0.00000000000E+00  0.81897310635E+03  0.81897310635E+03  0.00000000000E+00 0. -1.
         -1   -1    0    0    0  501 -0.00000000000E+00 -0.00000000000E+00 -0.23798600616E+02  0.23798600616E+02  0.00000000000E+00 0.  1.
         25    2    1    2    0    0  0.74296987581E+02 -0.20930402858E+01  0.56873052803E+03  0.58705032163E+03  0.12509693616E+03 0.  0.
         23    2    1    2    0    0 -0.74296987581E+02  0.20930402858E+01  0.22644397771E+03  0.25572138533E+03  0.92693736013E+02 0.  0.
          5    1    3    3  502    0 -0.16091536487E+01 -0.14569178254E+02  0.41324701005E+03  0.41352800878E+03  0.41800000000E+01 0. -1.
         -5    1    3    3    0  502  0.75906141229E+02  0.12476137969E+02  0.15548351798E+03  0.17352231285E+03  0.41800000000E+01 0. -1.
        -11    1    4    4    0    0 -0.32160630040E+02  0.25038267021E+02  0.19295073612E+03  0.19720853812E+03  0.00000000000E+00 0. -1.
         11    1    4    4    0    0 -0.42136357541E+02 -0.22945226735E+02  0.33493241591E+02  0.58512847213E+02  0.00000000000E+00 0.  1.
</event>
<event>
 8    1  0.3654190E-009  0.9817346E+02  0.7561462E-02  0.1284184E+00
          2   -1    0    0  501    0  0.00000000000E+00  0.00000000000E+00  0.24730443854E+03  0.24730443854E+03  0.00000000000E+00 0. -1.
         -2   -1    0    0    0  501 -0.00000000000E+00 -0.00000000000E+00 -0.51311245648E+02  0.51311245648E+02  0.00000000000E+00 0.  1.
         25    2    1    2    0    0 -0.34714279001E+02  0.12750034609E+02  0.12354473848E+03  0.17966135516E+03  0.12508899064E+03 0.  0.
         23    2    1    2    0    0  0.34714279001E+02 -0.12750034609E+02  0.72448454411E+02  0.11895432903E+03  0.86796942921E+02 0.  0.
          5    1    3    3  502    0 -0.13477914617E+02 -0.49930366410E+02  0.93344981528E+02  0.10679631852E+03  0.41800000000E+01 0. -1.
         -5    1    3    3    0  502 -0.21236364384E+02  0.62680401020E+02  0.30199756955E+02  0.72865036639E+02  0.41800000000E+01 0. -1.
        -11    1    4    4    0    0  0.19605857848E+02 -0.41372835758E+02  0.75070300687E+01  0.46394576203E+02  0.00000000000E+00 0.  1.
         11    1    4    4    0    0  0.15108421153E+02  0.28622801149E+02  0.64941424342E+02  0.72559752832E+02  0.00000000000E+00 0. -1.
</event>
<event>
 8    1  0.3654190E-009  0.1136537E+03  0.7561462E-02  0.1253950E+00
          3   -1    0    0  501    0  0.00000000000E+00  0.00000000000E+00  0.36052773806E+03  0.36052773806E+03  0.00000000000E+00 0. -1.
         -3   -1    0    0    0  501 -0.00000000000E+00 -0.00000000000E+00 -0.55139960888E+02  0.55139960888E+02  0.00000000000E+00 0.  1.
         25    2    1    2    0    0 -0.66837406618E+02 -0.51357020624E+02  0.21096325877E+03  0.25933874616E+03  0.12508519584E+03 0.  0.
         23    2    1    2    0    0  0.66837406618E+02  0.51357020624E+02  0.94424518406E+02  0.15632895279E+03  0.91749492173E+02 0.  0.
          5    1    3    3  502    0 -0.91938735740E+02 -0.36426818524E+02  0.86578089229E+02  0.13150240367E+03  0.41800000000E+01 0.  1.
         -5    1    3    3    0  502  0.25101329122E+02 -0.14930202100E+02  0.12438516954E+03  0.12783634248E+03  0.41800000000E+01 0.  1.
        -11    1    4    4    0    0  0.26287618582E+02 -0.75123615259E+01 -0.10568480837E+02  0.29311554950E+02  0.00000000000E+00 0.  1.
         11    1    4    4    0    0  0.40549788036E+02  0.58869382150E+02  0.10499299924E+03  0.12701739784E+03  0.00000000000E+00 0. -1.
</event>
<event>
 8    1  0.3654190E-009  0.1037105E+03  0.7561462E-02  0.1272681E+00
          2   -1    0    0  501    0  0.00000000000E+00  0.00000000000E+00  0.24924800832E+03  0.24924800832E+03  0.00000000000E+00 0. -1.
         -2   -1    0    0    0  501 -0.00000000000E+00 -0.00000000000E+00 -0.77210744756E+02  0.77210744756E+02  0.00000000000E+00 0.  1.
         25    2    1    2    0    0 -0.51615501484E+02  0.46714798957E+02  0.15448903444E+03  0.21062837160E+03  0.12510402362E+03 0.  0.
         23    2    1    2    0    0  0.51615501484E+02 -0.46714798957E+02  0.17548229118E+02  0.11583038147E+03  0.90897219384E+02 0.  0.
          5    1    3    3  502    0 -0.79254989453E+02  0.55798567203E+02  0.15303964457E+03  0.18119999632E+03  0.41800000000E+01 0.  1.
         -5    1    3    3    0  502  0.27639487969E+02 -0.90837682456E+01  0.14493898699E+01  0.29428375282E+02  0.41800000000E+01 0.  1.
        -11    1    4    4    0    0  0.44617302531E+02 -0.12849766285E+02 -0.31289264329E+02  0.55989626190E+02  0.00000000000E+00 0.  1.
         11    1    4    4    0    0  0.69981989528E+01 -0.33865032672E+02  0.48837493447E+02  0.59840755281E+02  0.00000000000E+00 0. -1.
</event>
<event>
 8    1  0.3654190E-009  0.1110484E+03  0.7561462E-02  0.1258641E+00
         -1   -1    0    0    0  501 -0.00000000000E+00  0.00000000000E+00  0.35832843374E+02  0.35832843374E+02  0.00000000000E+00 0.  1.
          1   -1    0    0  501    0  0.00000000000E+00 -0.00000000000E+00 -0.92245721664E+03  0.92245721664E+03  0.00000000000E+00 0. -1.
         25    2    1    2    0    0 -0.40332768920E+02  0.32415725177E+01 -0.83756494350E+03  0.84781985450E+03  0.12508489541E+03 0.  0.
         23    2    1    2    0    0  0.40332768920E+02 -0.32415725177E+01 -0.49059429763E+02  0.11047020551E+03  0.90330496602E+02 0.  0.
          5    1    3    3  502    0 -0.85114477350E+02 -0.60834771116E+01 -0.52876462863E+03  0.53562205691E+03  0.41800000000E+01 0.  1.
         -5    1    3    3    0  502  0.44781708430E+02  0.93250496293E+01 -0.30880031487E+03  0.31219779759E+03  0.41800000000E+01 0.  1.
        -11    1    4    4    0    0 -0.18385068665E+02  0.20372394402E+02  0.41909203331E+01  0.27759845402E+02  0.00000000000E+00 0.  1.
         11    1    4    4    0    0  0.58717837586E+02 -0.23613966920E+02 -0.53250350097E+02  0.82710360112E+02  0.00000000000E+00 0. -1.
</event>
<event>
 8    1  0.3654190E-009  0.1071507E+03  0.7561462E-02  0.1265939E+00
          2   -1    0    0  501    0  0.00000000000E+00  0.00000000000E+00  0.61987845606E+03  0.61987845606E+03  0.00000000000E+00 0. -1.
         -2   -1    0    0    0  501 -0.00000000000E+00 -0.00000000000E+00 -0.28285389759E+02  0.28285389759E+02  0.00000000000E+00 0.  1.
         25    2    1    2    0    0 -0.11325179282E+02 -0.68678076859E+02  0.25681122001E+03  0.29401423237E+03  0.12508968056E+03 0.  0.
         23    2    1    2    0    0  0.11325179282E+02  0.68678076859E+02  0.33478184629E+03  0.35414961345E+03  0.92185281784E+02 0.  0.
          5    1    3    3  502    0  0.19855431235E+02 -0.96440534267E+02  0.15241137783E+03  0.18149852697E+03  0.41800000000E+01 0.  1.
         -5    1    3    3    0  502 -0.31180610517E+02  0.27762457409E+02  0.10439984218E+03  0.11251570540E+03  0.41800000000E+01 0.  1.
        -11    1    4    4    0    0  0.18535547204E+01  0.62401796584E+02  0.33686230173E+03  0.34259835115E+03  0.00000000000E+00 0. -1.
         11    1    4    4    0    0  0.94716245620E+01  0.62762802744E+01 -0.20804554443E+01  0.11551262302E+02  0.00000000000E+00 0.  1.
</event>
<event>
 8    1  0.3654190E-009  0.1830351E+03  0.7561462E-02  0.1164898E+00
          2   -1    0    0  501    0  0.00000000000E+00  0.00000000000E+00  0.45038088217E+03  0.45038088217E+03  0.00000000000E+00 0. -1.
         -2   -1    0    0    0  501 -0.00000000000E+00 -0.00000000000E+00 -0.97548013769E+02  0.97548013769E+02  0.00000000000E+00 0.  1.
         25    2    1    2    0    0  0.11858744409E+03 -0.11302441860E+03  0.27792693085E+03  0.34601791363E+03  0.12509003386E+03 0.  0.
         23    2    1    2    0    0 -0.11858744409E+03  0.11302441860E+03  0.74905937556E+02  0.20191098231E+03  0.91212083639E+02 0.  0.
          5    1    3    3  502    0  0.78205512485E+02 -0.22175390460E+02  0.45648811574E+02  0.93322754584E+02  0.41800000000E+01 0.  1.
         -5    1    3    3    0  502  0.40381931602E+02 -0.90849028137E+02  0.23227811928E+03  0.25269515905E+03  0.41800000000E+01 0.  1.
        -11    1    4    4    0    0 -0.78454726814E+02  0.12103911585E+03  0.44576811677E+02  0.15097252685E+03  0.00000000000E+00 0.  1.
         11    1    4    4    0    0 -0.40132717274E+02 -0.80146972518E+01  0.30329125879E+02  0.50938455458E+02  0.00000000000E+00 0. -1.
</event>
<event>
 8    1  0.3654190E-009  0.9855740E+02  0.7561462E-02  0.1283359E+00
         -2   -1    0    0    0  501 -0.00000000000E+00  0.00000000000E+00  0.13742835798E+03  0.13742835798E+03  0.00000000000E+00 0.  1.
          2   -1    0    0  501    0  0.00000000000E+00 -0.00000000000E+00 -0.92835157651E+02  0.92835157651E+02  0.00000000000E+00 0. -1.
         25    2    1    2    0    0  0.17762835432E+02 -0.14528988581E+02  0.45383345793E+02  0.13502715751E+03  0.12508427302E+03 0.  0.
         23    2    1    2    0    0 -0.17762835432E+02  0.14528988581E+02 -0.79014546741E+00  0.95236358118E+02  0.92426888652E+02 0.  0.
          5    1    3    3  502    0 -0.30737542480E+02  0.24713559849E+02  0.58944447083E+02  0.71045596627E+02  0.41800000000E+01 0.  1.
         -5    1    3    3    0  502  0.48500377912E+02 -0.39242548430E+02 -0.13561101290E+02  0.63981560883E+02  0.41800000000E+01 0.  1.
        -11    1    4    4    0    0 -0.32456834452E+02 -0.32333217252E+02  0.34404290302E+01  0.45942568414E+02  0.00000000000E+00 0. -1.
         11    1    4    4    0    0  0.14693999020E+02  0.46862205834E+02 -0.42305744976E+01  0.49293789704E+02  0.00000000000E+00 0.  1.
</event>
<event>
 8    1  0.3654190E-009  0.1075559E+03  0.7561462E-02  0.1265164E+00
         -2   -1    0    0    0  501 -0.00000000000E+00  0.00000000000E+00  0.36640785876E+02  0.36640785876E+02  0.00000000000E+00 0. -1.
          2   -1    0    0  501    0  0.00000000000E+00 -0.00000000000E+00 -0.46385970644E+03  0.46385970644E+03  0.00000000000E+00 0.  1.
         25    2    1    2    0    0  0.49215451544E+02 -0.23533915171E+01 -0.13601705126E+03  0.19125111682E+03  0.12509457353E+03 0.  0.
         23    2    1    2    0    0 -0.49215451544E+02  0.23533915171E+01 -0.29120186930E+03  0.30924937550E+03  0.91700318642E+02 0.  0.
          5    1    3    3  502    0  0.69285406331E+02 -0.34410921392E+02 -0.38374780560E+02  0.86456204084E+02  0.41800000000E+01 0.  1.
         -5    1    3    3    0  502 -0.20069954787E+02  0.32057529875E+02 -0.97642270701E+02  0.10479491273E+03  0.41800000000E+01 0.  1.
        -11    1    4    4    0    0 -0.67225422494E+02  0.24042190292E+02 -0.16243940463E+03  0.17743687475E+03  0.00000000000E+00 0. -1.
         11    1    4    4    0    0  0.18009970949E+02 -0.21688798775E+02 -0.12876246467E+03  0.13181250075E+03  0.00000000000E+00 0.  1.
</event>
<event>
 8    1  0.3654190E-009  0.8028539E+02  0.7561462E-02  0.1328243E+00
          3   -1    0    0  501    0  0.00000000000E+00  0.00000000000E+00  0.15166445668E+02  0.15166445668E+02  0.00000000000E+00 0. -1.
         -3   -1    0    0    0  501 -0.00000000000E+00 -0.00000000000E+00 -0.95775601281E+03  0.95775601281E+03  0.00000000000E+00 0.  1.
         25    2    1    2    0    0 -0.49653602543E+02  0.11125825899E+02 -0.58295693776E+03  0.59839411989E+03  0.12508983649E+03 0.  0.
         23    2    1    2    0    0  0.49653602543E+02 -0.11125825899E+02 -0.35963262938E+03  0.37452833858E+03  0.91359641199E+02 0.  0.
          5    1    3    3  502    0 -0.32934879938E+02 -0.61470762561E+01 -0.30808987195E+02  0.45707318397E+02  0.41800000000E+01 0. -1.
         -5    1    3    3    0  502 -0.16718722604E+02  0.17272902156E+02 -0.55214795056E+03  0.55268680150E+03  0.41800000000E+01 0. -1.
        -11    1    4    4    0    0 -0.12860405384E+01 -0.42540704438E+02 -0.11330482142E+03  0.12103449092E+03  0.00000000000E+00 0.  1.
         11    1    4    4    0    0  0.50939643081E+02  0.31414878538E+02 -0.24632780796E+03  0.25349384766E+03  0.00000000000E+00 0. -1.
</event>
<event>
 8    1  0.3654190E-009  0.1565191E+03  0.7561462E-02  0.1192684E+00
          1   -1    0    0  501    0  0.00000000000E+00  0.00000000000E+00  0.50616027740E+03  0.50616027740E+03  0.00000000000E+00 0. -1.
         -1   -1    0    0    0  501 -0.00000000000E+00 -0.00000000000E+00 -0.65725569491E+02  0.65725569491E+02  0.00000000000E+00 0.  1.
         25    2    1    2    0    0  0.12642178871E+03  0.44189806941E+02  0.13976395238E+03  0.23047043519E+03  0.12508977342E+03 0.  0.
         23    2    1    2    0    0 -0.12642178871E+03 -0.44189806941E+02  0.30067075553E+03  0.34141541170E+03  0.90699351787E+02 0.  0.
          5    1    3    3  502    0  0.13390533742E+03  0.33015998109E+02  0.61699074880E+02  0.15114543911E+03  0.41800000000E+01 0.  1.
         -5    1    3    3    0  502 -0.74835487126E+01  0.11173808833E+02  0.78064877500E+02  0.79324996087E+02  0.41800000000E+01 0.  1.
        -11    1    4    4    0    0 -0.61955434464E+02  0.24636182000E+02  0.10839463713E+03  0.12725884913E+03  0.00000000000E+00 0. -1.
         11    1    4    4    0    0 -0.64466354248E+02 -0.68825988941E+02  0.19227611840E+03  0.21415656257E+03  0.00000000000E+00 0.  1.
</event>
<event>
 8    1  0.3654190E-009  0.1700467E+03  0.7561462E-02  0.1177799E+00
         -4   -1    0    0    0  501 -0.00000000000E+00  0.00000000000E+00  0.66956080511E+03  0.66956080511E+03  0.00000000000E+00 0. -1.
          4   -1    0    0  501    0  0.00000000000E+00 -0.00000000000E+00 -0.53607536745E+02  0.53607536745E+02  0.00000000000E+00 0.  1.
         25    2    1    2    0    0 -0.13672156706E+03 -0.36003665529E+02  0.20333135580E+03  0.27745343155E+03  0.12509082938E+03 0.  0.
         23    2    1    2    0    0  0.13672156706E+03  0.36003665529E+02  0.41262191257E+03  0.44571491031E+03  0.91738147521E+02 0.  0.
          5    1    3    3  502    0 -0.14983441565E+03 -0.18347709996E+02  0.12514960811E+03  0.19612977180E+03  0.41800000000E+01 0. -1.
         -5    1    3    3    0  502  0.13112848587E+02 -0.17655955532E+02  0.78181747686E+02  0.81323659749E+02  0.41800000000E+01 0. -1.
        -11    1    4    4    0    0  0.91323340862E+02  0.65652628014E+02  0.24600319796E+03  0.27049545941E+03  0.00000000000E+00 0. -1.
         11    1    4    4    0    0  0.45398226198E+02 -0.29648962486E+02  0.16661871460E+03  0.17521945090E+03  0.00000000000E+00 0.  1.
</event>
<event>
 8    1  0.3654190E-009  0.3248554E+03  0.7561462E-02  0.1073436E+00
         -2   -1    0    0    0  501 -0.00000000000E+00  0.00000000000E+00  0.10451808490E+03  0.10451808490E+03  0.00000000000E+00 0. -1.
          2   -1    0    0  501    0  0.00000000000E+00 -0.00000000000E+00 -0.16906657845E+04  0.16906657845E+04  0.00000000000E+00 0.  1.
         25    2    1    2    0    0  0.59103352163E+02  0.31149244007E+03 -0.13441224195E+04  0.13866625496E+04  0.12508877340E+03 0.  0.
         23    2    1    2    0    0 -0.59103352163E+02 -0.31149244007E+03 -0.24202528006E+03  0.40852131982E+03  0.88276192170E+02 0.  0.
          5    1    3    3  502    0  0.87706940417E+02  0.23267300592E+03 -0.85681770503E+03  0.89217895466E+03  0.41800000000E+01 0.  1.
         -5    1    3    3    0  502 -0.28603588254E+02  0.78819434150E+02 -0.48730471448E+03  0.49448359489E+03  0.41800000000E+01 0.  1.
        -11    1    4    4    0    0 -0.49062326142E+02 -0.26496980623E+03 -0.15917611509E+03  0.31297467258E+03  0.00000000000E+00 0. -1.
         11    1    4    4    0    0 -0.10041026021E+02 -0.46522633836E+02 -0.82849164975E+02  0.95546647245E+02  0.00000000000E+00 0.  1.
</event>
<event>
 8    1  0.3654190E-009  0.1156704E+03  0.7561462E-02  0.1250415E+00
          2   -1    0    0  501    0  0.00000000000E+00  0.00000000000E+00  0.18018842128E+03  0.18018842128E+03  0.00000000000E+00 0. -1.
         -2   -1    0    0    0  501 -0.00000000000E+00 -0.00000000000E+00 -0.95628515284E+02  0.95628515284E+02  0.00000000000E+00 0.  1.
         25    2    1    2    0    0  0.23025747708E+02 -0.65862187874E+02  0.71207403957E+02  0.15995229142E+03  0.12508488439E+03 0.  0.
         23    2    1    2    0    0 -0.23025747708E+02  0.65862187874E+02  0.13352502036E+02  0.11586464514E+03  0.91533129703E+02 0.  0.
          5    1    3    3  502    0 -0.50332766504E+02 -0.12431256930E+02  0.20489089170E+02  0.55903476707E+02  0.41800000000E+01 0.  1.
         -5    1    3    3    0  502  0.73358514212E+02 -0.53430930944E+02  0.50718314787E+02  0.10404881472E+03  0.41800000000E+01 0.  1.
        -11    1    4    4    0    0 -0.30772039167E+02  0.10408484263E+02 -0.30641950382E+02  0.44656288050E+02  0.00000000000E+00 0.  1.
         11    1    4    4    0    0  0.77462914594E+01  0.55453703611E+02  0.43994452419E+02  0.71208357088E+02  0.00000000000E+00 0. -1.
</event>
<event>
 8    1  0.3654190E-009  0.1202759E+03  0.7561462E-02  0.1242643E+00
          2   -1    0    0  501    0  0.00000000000E+00  0.00000000000E+00  0.10781222155E+03  0.10781222155E+03  0.00000000000E+00 0. -1.
         -2   -1    0    0    0  501 -0.00000000000E+00 -0.00000000000E+00 -0.14030160609E+03  0.14030160609E+03  0.00000000000E+00 0.  1.
         25    2    1    2    0    0 -0.56254104585E+02  0.16864065879E+02 -0.87353434960E+01  0.13846266174E+03  0.12508669582E+03 0.  0.
         23    2    1    2    0    0  0.56254104585E+02 -0.16864065879E+02 -0.23754041040E+02  0.10965116590E+03  0.89499735846E+02 0.  0.
          5    1    3    3  502    0 -0.89543853440E+02  0.35874640874E+02  0.70139904653E+01  0.96807850968E+02  0.41800000000E+01 0.  1.
         -5    1    3    3    0  502  0.33289748855E+02 -0.19010574995E+02 -0.15749333961E+02  0.41654810775E+02  0.41800000000E+01 0.  1.
        -11    1    4    4    0    0  0.43747139968E+02  0.32508668170E+02 -0.21739694812E+02  0.58679128249E+02  0.00000000000E+00 0. -1.
         11    1    4    4    0    0  0.12506964617E+02 -0.49372734049E+02 -0.20143462281E+01  0.50972037650E+02  0.00000000000E+00 0.  1.
</event>
<event>
 8    1  0.3654190E-009  0.1021119E+03  0.7561462E-02  0.1275916E+00
         -1   -1    0    0    0  501 -0.00000000000E+00  0.00000000000E+00  0.14419594488E+03  0.14419594488E+03  0.00000000000E+00 0.  1.
          1   -1    0    0  501    0  0.00000000000E+00 -0.00000000000E+00 -0.10412381191E+03  0.10412381191E+03  0.00000000000E+00 0. -1.
         25    2    1    2    0    0  0.62084735287E+01  0.44669385373E+02 -0.16648322919E+02  0.13401017442E+03  0.12509061139E+03 0.  0.
         23    2    1    2    0    0 -0.62084735287E+01 -0.44669385373E+02  0.56720455887E+02  0.11430958237E+03  0.88405720248E+02 0.  0.
          5    1    3    3  502    0 -0.17972005172E+02 -0.35781981661E+02 -0.28138870152E+02  0.49118342754E+02  0.41800000000E+01 0. -1.
         -5    1    3    3    0  502  0.24180478701E+02  0.80451367034E+02  0.11490547232E+02  0.84891831666E+02  0.41800000000E+01 0. -1.
        -11    1    4    4    0    0 -0.19954019005E+02  0.10812145611E+02  0.52262034985E+02  0.56977062648E+02  0.00000000000E+00 0.  1.
         11    1    4    4    0    0  0.13745545476E+02 -0.55481530984E+02  0.44584209017E+01  0.57332519722E+02  0.00000000000E+00 0. -1.
</event>
<event>
 8    1  0.3654190E-009  0.1215808E+03  0.7561462E-02  0.1240512E+00
         -2   -1    0    0    0  501 -0.00000000000E+00  0.00000000000E+00  0.71721537242E+02  0.71721537242E+02  0.00000000000E+00 0. -1.
          2   -1    0    0  501    0  0.00000000000E+00 -0.00000000000E+00 -0.46606723966E+03  0.46606723966E+03  0.00000000000E+00 0.  1.
         25    2    1    2    0    0 -0.89744238756E+02  0.23674602161E+02 -0.37604081295E+03  0.40702549094E+03  0.12509413293E+03 0.  0.
         23    2    1    2    0    0  0.89744238756E+02 -0.23674602161E+02 -0.18304889474E+02  0.13076328597E+03  0.90274319720E+02 0.  0.
          5    1    3    3  502    0 -0.10006404144E+03 -0.21181765294E+02 -0.30964779767E+03  0.32612989832E+03  0.41800000000E+01 0.  1.
         -5    1    3    3    0  502  0.10319802688E+02  0.44856367455E+02 -0.66393015274E+02  0.80895592624E+02  0.41800000000E+01 0.  1.
        -11    1    4    4    0    0  0.25314269702E+02  0.16059146480E+01  0.35125687998E+02  0.43326725814E+02  0.00000000000E+00 0. -1.
         11    1    4    4    0    0  0.64429969054E+02 -0.25280516809E+02 -0.53430577472E+02  0.87436560153E+02  0.00000000000E+00 0.  1.
</event>
<event>
 8    1  0.3654190E-009  0.1169347E+03  0.7561462E-02  0.1248241E+00
         -1   -1    0    0    0  501 -0.00000000000E+00  0.00000000000E+00  0.17345447784E+03  0.17345447784E+03  0.00000000000E+00 0.  1.
          1   -1    0    0  501    0  0.00000000000E+00 -0.00000000000E+00 -0.89298228852E+02  0.89298228852E+02  0.00000000000E+00 0. -1.
         25    2    1    2    0    0 -0.14922194317E+01  0.57047737518E+02  0.44724103272E+02  0.14457510654E+03  0.12508015407E+03 0.  0.
         23    2    1    2    0    0  0.14922194317E+01 -0.57047737518E+02  0.39432145712E+02  0.11817760015E+03  0.95678524167E+02 0.  0.
          5    1    3    3  502    0  0.11004817958E+02 -0.38754157858E+02  0.90538982791E+01  0.41502243838E+02  0.41800000000E+01 0.  1.
         -5    1    3    3    0  502 -0.12497037389E+02  0.95801895376E+02  0.35670204993E+02  0.10307286270E+03  0.41800000000E+01 0.  1.
        -11    1    4    4    0    0 -0.26101914637E+02 -0.63211602634E+02  0.53280777566E+02  0.86694047739E+02  0.00000000000E+00 0.  1.
         11    1    4    4    0    0  0.27594134068E+02  0.61638651163E+01 -0.13848631854E+02  0.31483552411E+02  0.00000000000E+00 0. -1.
</event>
<event>
 8    1  0.3654190E-009  0.1254660E+03  0.7561462E-02  0.1234343E+00
         -2   -1    0    0    0  501 -0.00000000000E+00  0.00000000000E+00  0.25917037429E+03  0.25917037429E+03  0.00000000000E+00 0.  1.
          2   -1    0    0  501    0  0.00000000000E+00 -0.00000000000E+00 -0.61227622358E+02  0.61227622358E+02  0.00000000000E+00 0. -1.
         25    2    1    2    0    0 -0.40170497738E+02 -0.47855032799E+02  0.11626127731E+03  0.18184605783E+03  0.12509009191E+03 0.  0.
         23    2    1    2    0    0  0.40170497738E+02  0.47855032799E+02  0.81681474628E+02  0.13855193883E+03  0.92849358653E+02 0.  0.
          5    1    3    3  502    0 -0.84008144050E+02 -0.18384016952E+02  0.62745997999E+02  0.10653578277E+03  0.41800000000E+01 0.  1.
         -5    1    3    3    0  502  0.43837646312E+02 -0.29471015847E+02  0.53515279309E+02  0.75310275054E+02  0.41800000000E+01 0.  1.
        -11    1    4    4    0    0  0.59931607174E+02  0.62997081357E+02  0.65481764548E+02  0.10884985662E+03  0.00000000000E+00 0.  1.
         11    1    4    4    0    0 -0.19761109435E+02 -0.15142048558E+02  0.16199710079E+02  0.29702082205E+02  0.00000000000E+00 0. -1.
</event>
<event>
 8    1  0.3654190E-009  0.1153250E+03  0.7561462E-02  0.1251015E+00
          1   -1    0    0  501    0  0.00000000000E+00  0.00000000000E+00  0.19890353348E+03  0.19890353348E+03  0.00000000000E+00 0. -1.
         -1   -1    0    0    0  501 -0.00000000000E+00 -0.00000000000E+00 -0.92528467410E+02  0.92528467410E+02  0.00000000000E+00 0.  1.
         25    2    1    2    0    0 -0.50190432679E+02  0.14450750630E+02  0.12611953654E+03  0.18515248012E+03  0.12508956659E+03 0.  0.
         23    2    1    2    0    0  0.50190432679E+02 -0.14450750630E+02 -0.19744470465E+02  0.10627952078E+03  0.90430020991E+02 0.  0.
          5    1    3    3  502    0  0.38268570264E+02 -0.53929243334E+01  0.14961077158E+02  0.41651810677E+02  0.41800000000E+01 0. -1.
         -5    1    3    3    0  502 -0.88459002943E+02  0.19843674963E+02  0.11115845938E+03  0.14350066944E+03  0.41800000000E+01 0. -1.
        -11    1    4    4    0    0  0.13182400667E+02  0.36067377646E+02  0.54351822559E+01  0.38783664393E+02  0.00000000000E+00 0. -1.
         11    1    4    4    0    0  0.37008032012E+02 -0.50518128276E+02 -0.25179652721E+02  0.67495856384E+02  0.00000000000E+00 0.  1.
</event>
<event>
 8    1  0.3654190E-009  0.1515610E+03  0.7561462E-02  0.1198568E+00
          2   -1    0    0  501    0  0.00000000000E+00  0.00000000000E+00  0.51085260604E+03  0.51085260604E+03  0.00000000000E+00 0. -1.
         -2   -1    0    0    0  501 -0.00000000000E+00 -0.00000000000E+00 -0.46792977127E+02  0.46792977127E+02  0.00000000000E+00 0.  1.
         25    2    1    2    0    0 -0.90573361220E+02 -0.54068542171E+02  0.28400471275E+03  0.32776959519E+03  0.12508912684E+03 0.  0.
         23    2    1    2    0    0  0.90573361220E+02  0.54068542171E+02  0.18005491616E+03  0.22987598798E+03  0.96417093908E+02 0.  0.
          5    1    3    3  502    0 -0.96158482213E+02 -0.85066296265E+02  0.25098201015E+03  0.28194355868E+03  0.41800000000E+01 0.  1.
         -5    1    3    3    0  502  0.55851209933E+01  0.30997754094E+02  0.33022702597E+02  0.45826036510E+02  0.41800000000E+01 0.  1.
        -11    1    4    4    0    0  0.26568184984E+02  0.71735287309E+02  0.94786945366E+02  0.12180469987E+03  0.00000000000E+00 0. -1.
         11    1    4    4    0    0  0.64005176236E+02 -0.17666745137E+02  0.85267970799E+02  0.10807128811E+03  0.00000000000E+00 0.  1.
</event>
<event>
 8    1  0.3654190E-009  0.1971916E+03  0.7561462E-02  0.1152130E+00
          1   -1    0    0  501    0  0.00000000000E+00  0.00000000000E+00  0.59282484589E+02  0.59282484589E+02  0.00000000000E+00 0. -1.
         -1   -1    0    0    0  501 -0.00000000000E+00 -0.00000000000E+00 -0.76529762362E+03  0.76529762362E+03  0.00000000000E+00 0.  1.
         25    2    1    2    0    0  0.16090288130E+01  0.17846646741E+03 -0.29029863565E+03  0.36300709943E+03  0.12509191584E+03 0.  0.
         23    2    1    2    0    0 -0.16090288130E+01 -0.17846646741E+03 -0.41571650338E+03  0.46157300878E+03  0.91523561379E+02 0.  0.
          5    1    3    3  502    0  0.42726630227E+02  0.60381741691E+02 -0.18569924177E+03  0.19993298991E+03  0.41800000000E+01 0.  1.
         -5    1    3    3    0  502 -0.41117601414E+02  0.11808472572E+03 -0.10459939388E+03  0.16307410952E+03  0.41800000000E+01 0.  1.
        -11    1    4    4    0    0  0.38281402662E+02 -0.10187794468E+03 -0.28331550059E+03  0.30350000704E+03  0.00000000000E+00 0.  1.
         11    1    4    4    0    0 -0.39890431475E+02 -0.76588522735E+02 -0.13240100279E+03  0.15807300174E+03  0.00000000000E+00 0. -1.
</event>
<event>
 8    1  0.3654190E-009  0.1331057E+03  0.7561462E-02  0.1222919E+00
          2   -1    0    0  501    0  0.00000000000E+00  0.00000000000E+00  0.15484608413E+03  0.15484608413E+03  0.00000000000E+00 0.  1.
         -2   -1    0    0    0  501 -0.00000000000E+00 -0.00000000000E+00 -0.18614862158E+03  0.18614862158E+03  0.00000000000E+00 0. -1.
         25    2    1    2    0    0 -0.26074400433E+01 -0.82602369948E+02 -0.11915747456E+03  0.19151010109E+03  0.12509062640E+03 0.  0.
         23    2    1    2    0    0  0.26074400433E+01  0.82602369948E+02  0.87854937098E+02  0.14948460462E+03  0.88301793761E+02 0.  0.
          5    1    3    3  502    0  0.57736140678E+02 -0.64758944169E+02 -0.68851381995E+02  0.11083847704E+03  0.41800000000E+01 0. -1.
         -5    1    3    3    0  502 -0.60343580722E+02 -0.17843425779E+02 -0.50306092560E+02  0.80671624048E+02  0.41800000000E+01 0. -1.
        -11    1    4    4    0    0  0.18840276384E+02  0.94372851650E+02  0.54580051740E+02  0.11063531620E+03  0.00000000000E+00 0. -1.
         11    1    4    4    0    0 -0.16232836341E+02 -0.11770481702E+02  0.33274885358E+02  0.38849288420E+02  0.00000000000E+00 0.  1.
</event>
<event>
 8    1  0.3654190E-009  0.9311309E+02  0.7561462E-02  0.1295483E+00
         -2   -1    0    0    0  501 -0.00000000000E+00  0.00000000000E+00  0.13488471025E+03  0.13488471025E+03  0.00000000000E+00 0. -1.
          2   -1    0    0  501    0  0.00000000000E+00 -0.00000000000E+00 -0.17587103092E+03  0.17587103092E+03  0.00000000000E+00 0.  1.
         25    2    1    2    0    0  0.37551664029E+02 -0.54273187635E+02 -0.10710362280E+03  0.17741236102E+03  0.12509297926E+03 0.  0.
         23    2    1    2    0    0 -0.37551664029E+02  0.54273187635E+02  0.66117302129E+02  0.13334338015E+03  0.95148583917E+02 0.  0.
          5    1    3    3  502    0  0.57061993404E+02 -0.55021863494E+02 -0.12054483990E+02  0.80288601544E+02  0.41800000000E+01 0.  1.
         -5    1    3    3    0  502 -0.19510329375E+02  0.74867585930E+00 -0.95049138806E+02  0.97123759480E+02  0.41800000000E+01 0.  1.
        -11    1    4    4    0    0  0.11969248410E+02  0.28808371360E+02  0.70894109523E+02  0.77454244125E+02  0.00000000000E+00 0. -1.
         11    1    4    4    0    0 -0.49520912439E+02  0.25464816275E+02 -0.47768073936E+01  0.55889136025E+02  0.00000000000E+00 0.  1.
</event>
<event>
 8    1  0.3654190E-009  0.9999396E+02  0.7561462E-02  0.1280309E+00
         -2   -1    0    0    0  501 -0.00000000000E+00  0.00000000000E+00  0.20652816471E+02  0.20652816471E+02  0.00000000000E+00 0.  1.
          2   -1    0    0  501    0  0.00000000000E+00 -0.00000000000E+00 -0.66717726949E+03  0.66717726949E+03  0.00000000000E+00 0. -1.
         25    2    1    2    0    0 -0.18032063754E+02  0.39119045746E+02 -0.38552986095E+03  0.40759757682E+03  0.12508819243E+03 0.  0.
         23    2    1    2    0    0  0.18032063754E+02 -0.39119045746E+02 -0.26099459207E+03  0.28023250914E+03  0.92502037955E+02 0.  0.
          5    1    3    3  502    0 -0.44759010764E+02 -0.24532504767E+02 -0.85197703845E+02  0.99404899151E+02  0.41800000000E+01 0.  1.
         -5    1    3    3    0  502  0.26726947010E+02  0.63651550513E+02 -0.30033215710E+03  0.30819267767E+03  0.41800000000E+01 0.  1.
        -11    1    4    4    0    0  0.21978092018E+02  0.14188962772E+02 -0.18814510913E+02  0.32223423378E+02  0.00000000000E+00 0.  1.
         11    1    4    4    0    0 -0.39460282641E+01 -0.53308008518E+02 -0.24218008116E+03  0.24800908576E+03  0.00000000000E+00 0. -1.
</event>
<event>
 8    1  0.3654190E-009  0.9998633E+02  0.7561462E-02  0.1280325E+00
          1   -1    0    0  501    0  0.00000000000E+00  0.00000000000E+00  0.47589876143E+03  0.47589876143E+03  0.00000000000E+00 0. -1.
         -1   -1    0    0    0  501 -0.00000000000E+00 -0.00000000000E+00 -0.29814643873E+02  0.29814643873E+02  0.00000000000E+00 0.  1.
         25    2    1    2    0    0 -0.53673390850E+01  0.11053461608E+02  0.36876039560E+03  0.38959250441E+03  0.12508837992E+03 0.  0.
         23    2    1    2    0    0  0.53673390850E+01 -0.11053461608E+02  0.77323721959E+02  0.11612090089E+03  0.85756156069E+02 0.  0.
          5    1    3    3  502    0 -0.35238828228E+02  0.56947502874E+02  0.24825370357E+03  0.25716175228E+03  0.41800000000E+01 0. -1.
         -5    1    3    3    0  502  0.29871489143E+02 -0.45894041266E+02  0.12050669203E+03  0.13243075214E+03  0.41800000000E+01 0. -1.
        -11    1    4    4    0    0 -0.14348354335E+02 -0.40246798141E+02  0.16442356232E+02  0.45782432342E+02  0.00000000000E+00 0.  1.
         11    1    4    4    0    0  0.19715693420E+02  0.29193336533E+02  0.60881365727E+02  0.70338468549E+02  0.00000000000E+00 0. -1.
</event>
<event>
 8    1  0.3654190E-009  0.8248987E+02  0.7561462E-02  0.1322130E+00
          2   -1    0    0  501    0  0.00000000000E+00  0.00000000000E+00  0.86883557823E+02  0.86883557823E+02  0.00000000000E+00 0. -1.
         -2   -1    0    0    0  501 -0.00000000000E+00 -0.00000000000E+00 -0.15946375647E+03  0.15946375647E+03  0.00000000000E+00 0.  1.
         25    2    1    2    0    0  0.16115555842E+02 -0.68694592226E+01 -0.82688859083E+02  0.15097185198E+03  0.12509257398E+03 0.  0.
         23    2    1    2    0    0 -0.16115555842E+02  0.68694592226E+01  0.10108660440E+02  0.95375462307E+02  0.93206186406E+02 0.  0.
          5    1    3    3  502    0  0.47613129934E+02 -0.19882540160E+01  0.13374842061E+02  0.49672146081E+02  0.41800000000E+01 0.  1.
         -5    1    3    3    0  502 -0.31497574092E+02 -0.48812052066E+01 -0.96063701144E+02  0.10129970590E+03  0.41800000000E+01 0.  1.
        -11    1    4    4    0    0 -0.37657010373E+02 -0.25954102660E+02 -0.15742142655E+02  0.48368180971E+02  0.00000000000E+00 0.  1.
         11    1    4    4    0    0  0.21541454531E+02  0.32823561882E+02  0.25850803095E+02  0.47007281336E+02  0.00000000000E+00 0. -1.
</event>
<event>
 8    1  0.3654190E-009  0.1195518E+03  0.7561462E-02  0.1243838E+00
         -1   -1    0    0    0  501 -0.00000000000E+00  0.00000000000E+00  0.44856576794E+03  0.44856576794E+03  0.00000000000E+00 0.  1.
          1   -1    0    0  501    0  0.00000000000E+00 -0.00000000000E+00 -0.38299179582E+02  0.38299179582E+02  0.00000000000E+00 0. -1.
         25    2    1    2    0    0 -0.91005454778E+01 -0.65964575901E+02  0.16532311618E+03  0.21774446810E+03  0.12508707144E+03 0.  0.
         23    2    1    2    0    0  0.91005454778E+01  0.65964575901E+02  0.24494347217E+03  0.26912047942E+03  0.89411311821E+02 0.  0.
          5    1    3    3  502    0  0.46170393683E+02 -0.36334019681E+01  0.10490646445E+03  0.11475079758E+03  0.41800000000E+01 0. -1.
         -5    1    3    3    0  502 -0.55270939161E+02 -0.62331173933E+02  0.60416651734E+02  0.10299367052E+03  0.41800000000E+01 0.  1.
        -11    1    4    4    0    0 -0.34941488642E+02  0.70700683525E+01  0.10723527106E+03  0.11300573815E+03  0.00000000000E+00 0.  1.
         11    1    4    4    0    0  0.44042034120E+02  0.58894507549E+02  0.13770820111E+03  0.15611474127E+03  0.00000000000E+00 0. -1.
</event>
<event>
 8    1  0.3654190E-009  0.1141807E+03  0.7561462E-02  0.1253018E+00
         -2   -1    0    0    0  501 -0.00000000000E+00  0.00000000000E+00  0.19011875033E+02  0.19011875033E+02  0.00000000000E+00 0.  1.
          2   -1    0    0  501    0  0.00000000000E+00 -0.00000000000E+00 -0.74438983230E+03  0.74438983230E+03  0.00000000000E+00 0. -1.
         25    2    1    2    0    0  0.19002063198E+02 -0.28955583747E+02 -0.30222087825E+03  0.32891444821E+03  0.12509096994E+03 0.  0.
         23    2    1    2    0    0 -0.19002063198E+02  0.28955583747E+02 -0.42315707902E+03  0.43448725912E+03  0.92291714562E+02 0.  0.
          5    1    3    3  502    0  0.24614151545E+02  0.47158346961E+02 -0.12525597195E+03  0.13614807032E+03  0.41800000000E+01 0. -1.
         -5    1    3    3    0  502 -0.56120883466E+01 -0.76113930708E+02 -0.17696490630E+03  0.19276637789E+03  0.41800000000E+01 0. -1.
        -11    1    4    4    0    0 -0.50062300529E+02 -0.75581683439E+01 -0.21439392364E+03  0.22029097652E+03  0.00000000000E+00 0.  1.
         11    1    4    4    0    0  0.31060237330E+02  0.36513752091E+02 -0.20876315538E+03  0.21419628259E+03  0.00000000000E+00 0. -1.
</event>
<event>
 8    1  0.3654190E-009  0.1013428E+03  0.7561462E-02  0.1277497E+00
         -1   -1    0    0    0  501 -0.00000000000E+00  0.00000000000E+00  0.32818970036E+02  0.32818970036E+02  0.00000000000E+00 0.  1.
          1   -1    0    0  501    0  0.00000000000E+00 -0.00000000000E+00 -0.49934856802E+03  0.49934856802E+03  0.00000000000E+00 0. -1.
         25    2    1    2    0    0  0.29300803113E+02 -0.42979656979E+02 -0.34937751560E+03  0.37472463213E+03  0.12509242002E+03 0.  0.
         23    2    1    2    0    0 -0.29300803113E+02  0.42979656979E+02 -0.11715208239E+03  0.15744290592E+03  0.91421388306E+02 0.  0.
          5    1    3    3  502    0 -0.14875241143E+02  0.17440810697E+02 -0.71356547604E+01  0.24368927873E+02  0.41800000000E+01 0.  1.
         -5    1    3    3    0  502  0.44176044256E+02 -0.60420467675E+02 -0.34224186084E+03  0.35035570426E+03  0.41800000000E+01 0.  1.
        -11    1    4    4    0    0 -0.43581755882E+02 -0.13924259495E+02 -0.60829794713E+02  0.76115165198E+02  0.00000000000E+00 0. -1.
         11    1    4    4    0    0  0.14280952770E+02  0.56903916474E+02 -0.56322287673E+02  0.81327740721E+02  0.00000000000E+00 0.  1.
</event>
<event>
 8    1  0.3654190E-009  0.9555955E+02  0.7561462E-02  0.1289921E+00
          1   -1    0    0  501    0  0.00000000000E+00  0.00000000000E+00  0.12029695943E+03  0.12029695943E+03  0.00000000000E+00 0. -1.
         -1   -1    0    0    0  501 -0.00000000000E+00 -0.00000000000E+00 -0.11022348198E+03  0.11022348198E+03  0.00000000000E+00 0.  1.
         25    2    1    2    0    0  0.20806602590E+02 -0.10180622879E+02 -0.30462446167E+02  0.13082006647E+03  0.12509743950E+03 0.  0.
         23    2    1    2    0    0 -0.20806602590E+02  0.10180622879E+02  0.40535923615E+02  0.99700374942E+02  0.88093381515E+02 0.  0.
          5    1    3    3  502    0 -0.48234665362E+02 -0.22431146048E+02  0.20890430411E+01  0.53400147532E+02  0.41800000000E+01 0.  1.
         -5    1    3    3    0  502  0.69041267952E+02  0.12250523170E+02 -0.32551489208E+02  0.77419918936E+02  0.41800000000E+01 0.  1.
        -11    1    4    4    0    0  0.84146017692E+01 -0.22294217685E+02 -0.15665044789E+02  0.28517210476E+02  0.00000000000E+00 0.  1.
         11    1    4    4    0    0 -0.29221204360E+02  0.32474840563E+02  0.56200968404E+02  0.71183164466E+02  0.00000000000E+00 0. -1.
</event>
<event>
 8    1  0.3654190E-009  0.1032991E+03  0.7561462E-02  0.1273507E+00
         -1   -1    0    0    0  501 -0.00000000000E+00  0.00000000000E+00  0.54057520352E+02  0.54057520352E+02  0.00000000000E+00 0.  1.
          1   -1    0    0  501    0  0.00000000000E+00 -0.00000000000E+00 -0.24655826621E+03  0.24655826621E+03  0.00000000000E+00 0. -1.
         25    2    1    2    0    0 -0.99974160856E+01 -0.36865899144E+02 -0.11002779676E+03  0.17091814280E+03  0.12509137711E+03 0.  0.
         23    2    1    2    0    0  0.99974160856E+01  0.36865899144E+02 -0.82472949096E+02  0.12969764377E+03  0.92523773261E+02 0.  0.
          5    1    3    3  502    0  0.14537064144E+02  0.31159757628E+02 -0.88984229402E+02  0.95487811849E+02  0.41800000000E+01 0.  1.
         -5    1    3    3    0  502 -0.24534480229E+02 -0.68025656772E+02 -0.21043567363E+02  0.75430330947E+02  0.41800000000E+01 0.  1.
        -11    1    4    4    0    0 -0.41187441603E+02  0.14467519617E+02 -0.29356464066E+02  0.52607190118E+02  0.00000000000E+00 0.  1.
         11    1    4    4    0    0  0.51184857689E+02  0.22398379527E+02 -0.53116485030E+02  0.77090453650E+02  0.00000000000E+00 0. -1.
</event>
<event>
 8    1  0.3654190E-009  0.1789348E+03  0.7561462E-02  0.1168838E+00
          3   -1    0    0  501    0  0.00000000000E+00  0.00000000000E+00  0.79759124698E+02  0.79759124698E+02  0.00000000000E+00 0.  1.
         -3   -1    0    0    0  501 -0.00000000000E+00 -0.00000000000E+00 -0.52982971611E+03  0.52982971611E+03  0.00000000000E+00 0. -1.
         25    2    1    2    0    0 -0.14663492290E+03  0.60419773889E+02 -0.34182310456E+03  0.39704303700E+03  0.12509112169E+03 0.  0.
         23    2    1    2    0    0  0.14663492290E+03 -0.60419773889E+02 -0.10824748686E+03  0.21254580381E+03  0.91136439577E+02 0.  0.
          5    1    3    3  502    0 -0.78864199865E+02  0.76824968547E+02 -0.11311550939E+03  0.15790575885E+03  0.41800000000E+01 0. -1.
         -5    1    3    3    0  502 -0.67770723032E+02 -0.16405194658E+02 -0.22870759517E+03  0.23913727815E+03  0.41800000000E+01 0. -1.
        -11    1    4    4    0    0  0.48378302739E+02  0.18517529579E+02 -0.10042310337E+02  0.52765586082E+02  0.00000000000E+00 0.  1.
         11    1    4    4    0    0  0.98256620159E+02 -0.78937303468E+02 -0.98205176519E+02  0.15978021773E+03  0.00000000000E+00 0. -1.
</event>
<event>
 8    1  0.3654190E-009  0.1825379E+03  0.7561462E-02  0.1165369E+00
         -2   -1    0    0    0  501 -0.00000000000E+00  0.00000000000E+00  0.80274779331E+02  0.80274779331E+02  0.00000000000E+00 0.  1.
          2   -1    0    0  501    0  0.00000000000E+00 -0.00000000000E+00 -0.73018209127E+03  0.73018209127E+03  0.00000000000E+00 0. -1.
         25    2    1    2    0    0 -0.48757910350E+02 -0.15351089928E+03 -0.93952594539E+02  0.22453931303E+03  0.12509149874E+03 0.  0.
         23    2    1    2    0    0  0.48757910350E+02  0.15351089928E+03 -0.55595471740E+03  0.58591755757E+03  0.90943974232E+02 0.  0.
          5    1    3    3  502    0 -0.30922711305E+02 -0.16381807380E+03 -0.10852153025E+03  0.19896474638E+03  0.41800000000E+01 0.  1.
         -5    1    3    3    0  502 -0.17835199044E+02  0.10307174518E+02  0.14568935709E+02  0.25574566647E+02  0.41800000000E+01 0.  1.
        -11    1    4    4    0    0  0.58332852174E+02  0.61420959631E+02 -0.18318238786E+03  0.20181933294E+03  0.00000000000E+00 0. -1.
         11    1    4    4    0    0 -0.95749418240E+01  0.92089939646E+02 -0.37277232954E+03  0.38409822464E+03  0.00000000000E+00 0.  1.
</event>
<event>
 8    1  0.3654190E-009  0.1173215E+03  0.7561462E-02  0.1247582E+00
          2   -1    0    0  501    0  0.00000000000E+00  0.00000000000E+00  0.32419763948E+02  0.32419763948E+02  0.00000000000E+00 0. -1.
         -2   -1    0    0    0  501 -0.00000000000E+00 -0.00000000000E+00 -0.66996491130E+03  0.66996491130E+03  0.00000000000E+00 0.  1.
         25    2    1    2    0    0  0.96037160034E+02  0.25708072052E+02 -0.31247003331E+03  0.35095345061E+03  0.12508701651E+03 0.  0.
         23    2    1    2    0    0 -0.96037160034E+02 -0.25708072052E+02 -0.32507511404E+03  0.35143122464E+03  0.89140534032E+02 0.  0.
          5    1    3    3  502    0  0.37392433178E+02 -0.40934022960E+01 -0.70460255477E+01  0.38497647686E+02  0.41800000000E+01 0. -1.
         -5    1    3    3    0  502  0.58644726856E+02  0.29801474348E+02 -0.30542400776E+03  0.31245580292E+03  0.41800000000E+01 0. -1.
        -11    1    4    4    0    0  0.10621198445E+02 -0.21684772688E+02 -0.36636416125E+02  0.43877855570E+02  0.00000000000E+00 0. -1.
         11    1    4    4    0    0 -0.10665835848E+03 -0.40232993640E+01 -0.28843869791E+03  0.30755336907E+03  0.00000000000E+00 0.  1.
</event>
<event>
 8    1  0.3654190E-009  0.1042867E+03  0.7561462E-02  0.1271531E+00
          2   -1    0    0  501    0  0.00000000000E+00  0.00000000000E+00  0.14239286592E+04  0.14239286592E+04  0.00000000000E+00 0. -1.
         -2   -1    0    0    0  501 -0.00000000000E+00 -0.00000000000E+00 -0.17567137692E+02  0.17567137692E+02  0.00000000000E+00 0.  1.
         25    2    1    2    0    0  0.65193928740E+02  0.51421856356E+02  0.11285093506E+04  0.11384534185E+04  0.12509346969E+03 0.  0.
         23    2    1    2    0    0 -0.65193928740E+02 -0.51421856356E+02  0.27785217091E+03  0.30304237835E+03  0.87968167753E+02 0.  0.
          5    1    3    3  502    0  0.48670219970E+02  0.51394735835E+02  0.25219368610E+03  0.26197201548E+03  0.41800000000E+01 0. -1.
         -5    1    3    3    0  502  0.16523708770E+02  0.27120521724E-01  0.87631566449E+03  0.87648140306E+03  0.41800000000E+01 0. -1.
        -11    1    4    4    0    0 -0.44321711377E+02  0.18219999003E+02  0.12171211490E+03  0.13080604488E+03  0.00000000000E+00 0.  1.
         11    1    4    4    0    0 -0.20872217363E+02 -0.69641855359E+02  0.15614005601E+03  0.17223633347E+03  0.00000000000E+00 0. -1.
</event>
<event>
 8    1  0.3654190E-009  0.9911050E+02  0.7561462E-02  0.1282178E+00
          1   -1    0    0  501    0  0.00000000000E+00  0.00000000000E+00  0.10562376749E+03  0.10562376749E+03  0.00000000000E+00 0. -1.
         -1   -1    0    0    0  501 -0.00000000000E+00 -0.00000000000E+00 -0.12202132091E+03  0.12202132091E+03  0.00000000000E+00 0.  1.
         25    2    1    2    0    0  0.90628628138E+01  0.34246927847E+02 -0.17027437309E+02  0.13111827487E+03  0.12508829216E+03 0.  0.
         23    2    1    2    0    0 -0.90628628138E+01 -0.34246927847E+02  0.62988389552E+00  0.96526813528E+02  0.89788871397E+02 0.  0.
          5    1    3    3  502    0 -0.44970675016E+02  0.29110398443E+02 -0.44842099225E+02  0.69986164145E+02  0.41800000000E+01 0.  1.
         -5    1    3    3    0  502  0.54033537829E+02  0.51365294045E+01  0.27814661916E+02  0.61132110729E+02  0.41800000000E+01 0.  1.
        -11    1    4    4    0    0  0.23579674640E+02 -0.48885690008E+02  0.17427730694E+02  0.57004715075E+02  0.00000000000E+00 0. -1.
         11    1    4    4    0    0 -0.32642537454E+02  0.14638762161E+02 -0.16797846799E+02  0.39522098452E+02  0.00000000000E+00 0.  1.
</event>
<event>
 8    1  0.3654190E-009  0.1191850E+03  0.7561462E-02  0.1244448E+00
         -1   -1    0    0    0  501 -0.00000000000E+00  0.00000000000E+00  0.10526564114E+04  0.10526564114E+04  0.00000000000E+00 0.  1.
          1   -1    0    0  501    0  0.00000000000E+00 -0.00000000000E+00 -0.26826298355E+02  0.26826298355E+02  0.00000000000E+00 0. -1.
         25    2    1    2    0    0 -0.40773463723E+02 -0.77188716042E+02  0.85323231762E+03  0.86676047619E+03  0.12509101499E+03 0.  0.
         23    2    1    2    0    0  0.40773463723E+02  0.77188716042E+02  0.17259779543E+03  0.21272223357E+03  0.88544770812E+02 0.  0.
          5    1    3    3  502    0 -0.66521821806E+02 -0.77678738851E+02  0.80867356819E+03  0.81512548208E+03  0.41800000000E+01 0. -1.
         -5    1    3    3    0  502  0.25748358083E+02  0.49002280896E+00  0.44558749426E+02  0.51634994109E+02  0.41800000000E+01 0. -1.
        -11    1    4    4    0    0 -0.80947338522E+01  0.56132575897E+02  0.38756171425E+02  0.68690840848E+02  0.00000000000E+00 0. -1.
         11    1    4    4    0    0  0.48868197576E+02  0.21056140145E+02  0.13384162401E+03  0.14403139272E+03  0.00000000000E+00 0.  1.
</event>
<event>
 8    1  0.3654190E-009  0.8277731E+02  0.7561462E-02  0.1321350E+00
         -1   -1    0    0    0  501 -0.00000000000E+00  0.00000000000E+00  0.53044405322E+02  0.53044405322E+02  0.00000000000E+00 0.  1.
          1   -1    0    0  501    0  0.00000000000E+00 -0.00000000000E+00 -0.27551039583E+03  0.27551039583E+03  0.00000000000E+00 0. -1.
         25    2    1    2    0    0 -0.28756793743E+02  0.46032157778E+02 -0.12052895205E+03  0.18199372063E+03  0.12509425777E+03 0.  0.
         23    2    1    2    0    0  0.28756793743E+02 -0.46032157778E+02 -0.10193703846E+03  0.14656108053E+03  0.90239003654E+02 0.  0.
          5    1    3    3  502    0  0.16841271938E+02  0.31284613606E+02 -0.12836251831E+03  0.13325450835E+03  0.41800000000E+01 0.  1.
         -5    1    3    3    0  502 -0.45598065681E+02  0.14747544172E+02  0.78335662544E+01  0.48739212276E+02  0.41800000000E+01 0.  1.
        -11    1    4    4    0    0 -0.73448433382E+01 -0.44960854726E+02 -0.84420825550E+01  0.46332428592E+02  0.00000000000E+00 0.  1.
         11    1    4    4    0    0  0.36101637081E+02 -0.10713030520E+01 -0.93494955900E+02  0.10022865194E+03  0.00000000000E+00 0. -1.
</event>
<event>
 8    1  0.3654190E-009  0.2457693E+03  0.7561462E-02  0.1116008E+00
         -4   -1    0    0    0  501 -0.00000000000E+00  0.00000000000E+00  0.15292404485E+03  0.15292404485E+03  0.00000000000E+00 0.  1.
          4   -1    0    0  501    0  0.00000000000E+00 -0.00000000000E+00 -0.48331809260E+03  0.48331809260E+03  0.00000000000E+00 0. -1.
         25    2    1    2    0    0  0.29011454947E+01 -0.23730129432E+03 -0.80982887761E+02  0.28022432423E+03  0.12508846009E+03 0.  0.
         23    2    1    2    0    0 -0.29011454947E+01  0.23730129432E+03 -0.24941115998E+03  0.35601781322E+03  0.90677647033E+02 0.  0.
          5    1    3    3  502    0 -0.38643889644E+02 -0.63379586027E+02  0.17018638823E+02  0.76272069587E+02  0.41800000000E+01 0.  1.
         -5    1    3    3    0  502  0.41545035139E+02 -0.17392170830E+03 -0.98001526584E+02  0.20395225464E+03  0.41800000000E+01 0.  1.
        -11    1    4    4    0    0 -0.11174338615E+02  0.76505530014E+02 -0.14438395869E+03  0.16378244562E+03  0.00000000000E+00 0. -1.
         11    1    4    4    0    0  0.82731931205E+01  0.16079576431E+03 -0.10502720130E+03  0.19223536760E+03  0.00000000000E+00 0.  1.
</event>
<event>
 8    1  0.3654190E-009  0.9183690E+02  0.7561462E-02  0.1298463E+00
          2   -1    0    0  501    0  0.00000000000E+00  0.00000000000E+00  0.10295669455E+04  0.10295669455E+04  0.00000000000E+00 0. -1.
         -2   -1    0    0    0  501 -0.00000000000E+00 -0.00000000000E+00 -0.17362962186E+02  0.17362962186E+02  0.00000000000E+00 0.  1.
         25    2    1    2    0    0  0.61275155441E+02 -0.23874147660E+02  0.72701512314E+03  0.74062358141E+03  0.12509068900E+03 0.  0.
         23    2    1    2    0    0 -0.61275155441E+02  0.23874147660E+02  0.28518886015E+03  0.30630632624E+03  0.90367361058E+02 0.  0.
          5    1    3    3  502    0  0.40267632463E+02  0.19069513048E+02  0.78688951631E+02  0.90523765172E+02  0.41800000000E+01 0.  1.
         -5    1    3    3    0  502  0.21007522978E+02 -0.42943660708E+02  0.64832617150E+03  0.65009981624E+03  0.41800000000E+01 0.  1.
        -11    1    4    4    0    0  0.13057801173E+02  0.65534850107E+01  0.42958594823E+01  0.15228550356E+02  0.00000000000E+00 0.  1.
         11    1    4    4    0    0 -0.74332956614E+02  0.17320662649E+02  0.28089300066E+03  0.29107777589E+03  0.00000000000E+00 0. -1.
</event>
<event>
 8    1  0.3654190E-009  0.6206640E+02  0.7561462E-02  0.1389359E+00
         -1   -1    0    0    0  501 -0.00000000000E+00  0.00000000000E+00  0.11440744669E+03  0.11440744669E+03  0.00000000000E+00 0.  1.
          1   -1    0    0  501    0  0.00000000000E+00 -0.00000000000E+00 -0.13254449591E+03  0.13254449591E+03  0.00000000000E+00 0. -1.
         25    2    1    2    0    0  0.36498959814E+02 -0.12002416063E+02  0.34103881463E+02  0.13522854781E+03  0.12508978117E+03 0.  0.
         23    2    1    2    0    0 -0.36498959814E+02  0.12002416063E+02 -0.52240930682E+02  0.11172339479E+03  0.90976755522E+02 0.  0.
          5    1    3    3  502    0  0.90349536505E+01  0.24282613115E+02 -0.40193122518E+02  0.48002449780E+02  0.41800000000E+01 0. -1.
         -5    1    3    3    0  502  0.27464006163E+02 -0.36285029178E+02  0.74297003981E+02  0.87226098030E+02  0.41800000000E+01 0. -1.
        -11    1    4    4    0    0 -0.30670075371E+02 -0.77182185789E+01  0.19458695956E+02  0.37133075144E+02  0.00000000000E+00 0.  1.
         11    1    4    4    0    0 -0.58288844422E+01  0.19720634642E+02 -0.71699626638E+02  0.74590319643E+02  0.00000000000E+00 0. -1.
</event>
<event>
 8    1  0.3654190E-009  0.1357123E+03  0.7561462E-02  0.1219218E+00
          1   -1    0    0  501    0  0.00000000000E+00  0.00000000000E+00  0.32805980688E+03  0.32805980688E+03  0.00000000000E+00 0. -1.
         -1   -1    0    0    0  501 -0.00000000000E+00 -0.00000000000E+00 -0.61168468327E+02  0.61168468327E+02  0.00000000000E+00 0.  1.
         25    2    1    2    0    0 -0.10586643776E+01 -0.83252749048E+02  0.10288989248E+03  0.18211303255E+03  0.12508671254E+03 0.  0.
         23    2    1    2    0    0  0.10586643776E+01  0.83252749048E+02  0.16400144607E+03  0.20711524265E+03  0.95226616200E+02 0.  0.
          5    1    3    3  502    0 -0.45819449364E+02 -0.93086027850E+02  0.77376652040E+02  0.12949536363E+03  0.41800000000E+01 0. -1.
         -5    1    3    3    0  502  0.44760784986E+02  0.98332788016E+01  0.25513240440E+02  0.52617668918E+02  0.41800000000E+01 0. -1.
        -11    1    4    4    0    0  0.44394547913E+02  0.50568400542E+02  0.11856199588E+03  0.13632676144E+03  0.00000000000E+00 0. -1.
         11    1    4    4    0    0 -0.43335883535E+02  0.32684348506E+02  0.45439450185E+02  0.70788481211E+02  0.00000000000E+00 0.  1.
</event>
<event>
 8    1  0.3654190E-009  0.1003007E+03  0.7561462E-02  0.1279665E+00
         -2   -1    0    0    0  501 -0.00000000000E+00  0.00000000000E+00  0.32703434948E+03  0.32703434948E+03  0.00000000000E+00 0.  1.
          2   -1    0    0  501    0  0.00000000000E+00 -0.00000000000E+00 -0.37144030812E+02  0.37144030812E+02  0.00000000000E+00 0. -1.
         25    2    1    2    0    0  0.22602021746E+01  0.18589277162E+02  0.17723162712E+03  0.21773400890E+03  0.12508548774E+03 0.  0.
         23    2    1    2    0    0 -0.22602021746E+01 -0.18589277162E+02  0.11265869155E+03  0.14644437139E+03  0.91669533598E+02 0.  0.
          5    1    3    3  502    0  0.39033359951E+02  0.55647165143E+02  0.66221747967E+02  0.94989486162E+02  0.41800000000E+01 0.  1.
         -5    1    3    3    0  502 -0.36773157776E+02 -0.37057887981E+02  0.11100987915E+03  0.12274452274E+03  0.41800000000E+01 0.  1.
        -11    1    4    4    0    0 -0.40058146979E+02 -0.11430034536E+02  0.95756339157E+02  0.10442498416E+03  0.00000000000E+00 0.  1.
         11    1    4    4    0    0  0.37797944804E+02 -0.71592426256E+01  0.16902352398E+02  0.42019387227E+02  0.00000000000E+00 0. -1.
</event>
<event>
 8    1  0.3654190E-009  0.1438278E+03  0.7561462E-02  0.1208269E+00
          4   -1    0    0  501    0  0.00000000000E+00  0.00000000000E+00  0.60014333355E+02  0.60014333355E+02  0.00000000000E+00 0. -1.
         -4   -1    0    0    0  501 -0.00000000000E+00 -0.00000000000E+00 -0.42430355381E+03  0.42430355381E+03  0.00000000000E+00 0.  1.
         25    2    1    2    0    0 -0.11463858467E+01 -0.10649169613E+03 -0.12383684088E+03  0.20572823295E+03  0.12508695826E+03 0.  0.
         23    2    1    2    0    0  0.11463858467E+01  0.10649169613E+03 -0.24045237957E+03  0.27858965422E+03  0.91940486450E+02 0.  0.
          5    1    3    3  502    0 -0.22311918788E+02  0.22237011169E+02 -0.12421623123E+02  0.34118550772E+02  0.41800000000E+01 0.  1.
         -5    1    3    3    0  502  0.21165532942E+02 -0.12872870730E+03 -0.11141521776E+03  0.17160968218E+03  0.41800000000E+01 0.  1.
        -11    1    4    4    0    0 -0.26562397025E+02  0.16679345493E+02 -0.12918375187E+03  0.13293683932E+03  0.00000000000E+00 0.  1.
         11    1    4    4    0    0  0.27708782871E+02  0.89812350640E+02 -0.11126862770E+03  0.14565281489E+03  0.00000000000E+00 0. -1.
</event>
<event>
 8    1  0.3654190E-009  0.1269787E+03  0.7561462E-02  0.1232009E+00
         -2   -1    0    0    0  501 -0.00000000000E+00  0.00000000000E+00  0.20849014615E+02  0.20849014615E+02  0.00000000000E+00 0.  1.
          2   -1    0    0  501    0  0.00000000000E+00 -0.00000000000E+00 -0.15183008327E+04  0.15183008327E+04  0.00000000000E+00 0. -1.
         25    2    1    2    0    0  0.73334085096E+02 -0.75735329150E+02 -0.11505806107E+04  0.11621521442E+04  0.12509251173E+03 0.  0.
         23    2    1    2    0    0 -0.73334085096E+02  0.75735329150E+02 -0.34687120733E+03  0.37699770303E+03  0.10341134125E+03 0.  0.
          5    1    3    3  502    0 -0.27013281528E+02 -0.15642160728E+02 -0.50970440486E+03  0.51067646049E+03  0.41800000000E+01 0. -1.
         -5    1    3    3    0  502  0.10034736662E+03 -0.60093168422E+02 -0.64087620585E+03  0.65147568374E+03  0.41800000000E+01 0. -1.
        -11    1    4    4    0    0 -0.54979962610E+02  0.57215056155E+02 -0.34121101424E+03  0.35031602187E+03  0.00000000000E+00 0. -1.
         11    1    4    4    0    0 -0.18354122486E+02  0.18520272995E+02 -0.56601930913E+01  0.26681681166E+02  0.00000000000E+00 0.  1.
</event>
<event>
 8    1  0.3654190E-009  0.1021802E+03  0.7561462E-02  0.1275777E+00
         -1   -1    0    0    0  501 -0.00000000000E+00  0.00000000000E+00  0.36668231410E+03  0.36668231410E+03  0.00000000000E+00 0.  1.
          1   -1    0    0  501    0  0.00000000000E+00 -0.00000000000E+00 -0.42901524341E+02  0.42901524341E+02  0.00000000000E+00 0. -1.
         25    2    1    2    0    0  0.34894295569E+02 -0.45170105892E+02  0.22488395869E+03  0.26358937841E+03  0.12509442516E+03 0.  0.
         23    2    1    2    0    0 -0.34894295569E+02  0.45170105892E+02  0.98896831076E+02  0.14599446004E+03  0.90971692492E+02 0.  0.
          5    1    3    3  502    0  0.35481073668E+02 -0.83556024227E+02  0.11168415296E+03  0.14398381227E+03  0.41800000000E+01 0.  1.
         -5    1    3    3    0  502 -0.58677809959E+00  0.38385918335E+02  0.11319980573E+03  0.11960556614E+03  0.41800000000E+01 0.  1.
        -11    1    4    4    0    0 -0.30065917046E+02  0.63408748917E+00  0.96562241519E+02  0.10113667941E+03  0.00000000000E+00 0.  1.
         11    1    4    4    0    0 -0.48283785228E+01  0.44536018403E+02  0.23345895566E+01  0.44857780627E+02  0.00000000000E+00 0. -1.
</event>
<event>
 8    1  0.3654190E-009  0.9346837E+02  0.7561462E-02  0.1294663E+00
          1   -1    0    0  501    0  0.00000000000E+00  0.00000000000E+00  0.57751215745E+02  0.57751215745E+02  0.00000000000E+00 0.  1.
         -1   -1    0    0    0  501 -0.00000000000E+00 -0.00000000000E+00 -0.21934066093E+03  0.21934066093E+03  0.00000000000E+00 0. -1.
         25    2    1    2    0    0  0.96513460383E+01  0.16397737792E+02 -0.12079532564E+03  0.17493181246E+03  0.12509034347E+03 0.  0.
         23    2    1    2    0    0 -0.96513460383E+01 -0.16397737792E+02 -0.40794119546E+02  0.10216006421E+03  0.91708692313E+02 0.  0.
          5    1    3    3  502    0 -0.34427532605E+02  0.31873683891E+02 -0.11901241029E+03  0.12799458164E+03  0.41800000000E+01 0.  1.
         -5    1    3    3    0  502  0.44078878644E+02 -0.15475946100E+02 -0.17829153519E+01  0.46937230823E+02  0.41800000000E+01 0.  1.
        -11    1    4    4    0    0  0.40815711846E+02 -0.10310877554E+02 -0.12168175232E+02  0.43821239347E+02  0.00000000000E+00 0.  1.
         11    1    4    4    0    0 -0.50467057885E+02 -0.60868602378E+01 -0.28625944314E+02  0.58338824868E+02  0.00000000000E+00 0. -1.
</event>
<event>
 8    1  0.3654190E-009  0.1214923E+03  0.7561462E-02  0.1240655E+00
          2   -1    0    0  501    0  0.00000000000E+00  0.00000000000E+00  0.31536159795E+03  0.31536159795E+03  0.00000000000E+00 0. -1.
         -2   -1    0    0    0  501 -0.00000000000E+00 -0.00000000000E+00 -0.67119316070E+02  0.67119316070E+02  0.00000000000E+00 0.  1.
         25    2    1    2    0    0 -0.66449641946E+02 -0.22011587630E+01  0.22742947955E+03  0.26793549359E+03  0.12507941695E+03 0.  0.
         23    2    1    2    0    0  0.66449641946E+02  0.22011587630E+01  0.20812802331E+02  0.11454542043E+03  0.90923487535E+02 0.  0.
          5    1    3    3  502    0  0.29908821637E+02 -0.15708490036E+02  0.11121896266E+03  0.11631175489E+03  0.41800000000E+01 0.  1.
         -5    1    3    3    0  502 -0.96358463583E+02  0.13507331273E+02  0.11621051689E+03  0.15162373870E+03  0.41800000000E+01 0.  1.
        -11    1    4    4    0    0 -0.15715510544E+02  0.22000032299E+02  0.11967639597E+02  0.29566925615E+02  0.00000000000E+00 0.  1.
         11    1    4    4    0    0  0.82165152489E+02 -0.19798873536E+02  0.88451627345E+01  0.84978494813E+02  0.00000000000E+00 0. -1.
</event>
<event>
 8    1  0.3654190E-009  0.1249759E+03  0.7561462E-02  0.1235107E+00
         -2   -1    0    0    0  501 -0.00000000000E+00  0.00000000000E+00  0.66449696839E+03  0.66449696839E+03  0.00000000000E+00 0.  1.
          2   -1    0    0  501    0  0.00000000000E+00 -0.00000000000E+00 -0.29378602675E+02  0.29378602675E+02  0.00000000000E+00 0. -1.
         25    2    1    2    0    0  0.70431730487E+02 -0.30738428451E+02  0.43362769583E+03  0.45780602196E+03  0.12509154850E+03 0.  0.
         23    2    1    2    0    0 -0.70431730487E+02  0.30738428451E+02  0.20149066988E+03  0.23606954911E+03  0.96046146841E+02 0.  0.
          5    1    3    3  502    0  0.10403236643E+02 -0.72630384235E+02  0.21714358046E+03  0.22924268141E+03  0.41800000000E+01 0. -1.
         -5    1    3    3    0  502  0.60028493844E+02  0.41891955783E+02  0.21648411537E+03  0.22856334055E+03  0.41800000000E+01 0. -1.
        -11    1    4    4    0    0 -0.67745078631E+02 -0.44115193445E+01  0.18516945248E+03  0.19722216740E+03  0.00000000000E+00 0.  1.
         11    1    4    4    0    0 -0.26866518559E+01  0.35149947796E+02  0.16321217406E+02  0.38847381711E+02  0.00000000000E+00 0. -1.
</event>
<event>
 8    1  0.3654190E-009  0.2276057E+03  0.7561462E-02  0.1128336E+00
          1   -1    0    0  501    0  0.00000000000E+00  0.00000000000E+00  0.52003167718E+03  0.52003167718E+03  0.00000000000E+00 0. -1.
         -1   -1    0    0    0  501 -0.00000000000E+00 -0.00000000000E+00 -0.10518571315E+03  0.10518571315E+03  0.00000000000E+00 0.  1.
         25    2    1    2    0    0 -0.14087727408E+03 -0.15075609586E+03  0.23344770882E+03  0.33574006640E+03  0.12509897138E+03 0.  0.
         23    2    1    2    0    0  0.14087727408E+03  0.15075609586E+03  0.18139825521E+03  0.28947732392E+03  0.91203000400E+02 0.  0.
          5    1    3    3  502    0 -0.15410592786E+02  0.15287885335E+02 -0.11130634153E+01  0.22134071433E+02  0.41800000000E+01 0. -1.
         -5    1    3    3    0  502 -0.12546668130E+03 -0.16604398120E+03  0.23456077224E+03  0.31360599497E+03  0.41800000000E+01 0. -1.
        -11    1    4    4    0    0  0.37809081612E+02  0.10607248884E+03  0.10174765243E+03  0.15176786326E+03  0.00000000000E+00 0.  1.
         11    1    4    4    0    0  0.10306819247E+03  0.44683607019E+02  0.79650602771E+02  0.13770946067E+03  0.00000000000E+00 0. -1.
</event>
<event>
 8    1  0.3654190E-009  0.6078581E+02  0.7561462E-02  0.1394563E+00
         -2   -1    0    0    0  501 -0.00000000000E+00  0.00000000000E+00  0.41529331007E+03  0.41529331007E+03  0.00000000000E+00 0.  1.
          2   -1    0    0  501    0  0.00000000000E+00 -0.00000000000E+00 -0.30462276791E+02  0.30462276791E+02  0.00000000000E+00 0. -1.
         25    2    1    2    0    0  0.24313901500E+00  0.23922780976E+02  0.26753999934E+03  0.29630597710E+03  0.12508885743E+03 0.  0.
         23    2    1    2    0    0 -0.24313901500E+00 -0.23922780976E+02  0.11729103394E+03  0.14944960976E+03  0.89474245728E+02 0.  0.
          5    1    3    3  502    0  0.22140627919E+02  0.79359416231E+01 -0.32689729919E+01  0.24111100317E+02  0.41800000000E+01 0. -1.
         -5    1    3    3    0  502 -0.21897488904E+02  0.15986839352E+02  0.27080897233E+03  0.27219487678E+03  0.41800000000E+01 0. -1.
        -11    1    4    4    0    0 -0.30413133349E+02  0.19923892467E+01  0.10263207630E+03  0.10706199783E+03  0.00000000000E+00 0.  1.
         11    1    4    4    0    0  0.30169994334E+02 -0.25915170222E+02  0.14658957645E+02  0.42387611928E+02  0.00000000000E+00 0. -1.
</event>
<event>
 8    1  0.3654190E-009  0.8507114E+02  0.7561462E-02  0.1315247E+00
          2   -1    0    0  501    0  0.00000000000E+00  0.00000000000E+00  0.12794259838E+04  0.12794259838E+04  0.00000000000E+00 0.  1.
         -2   -1    0    0    0  501 -0.00000000000E+00 -0.00000000000E+00 -0.11359937931E+02  0.11359937931E+02  0.00000000000E+00 0. -1.
         25    2    1    2    0    0  0.48967593188E+01  0.18566540723E+02  0.97851634470E+03  0.98666672132E+03  0.12509311500E+03 0.  0.
         23    2    1    2    0    0 -0.48967593188E+01 -0.18566540723E+02  0.28954970114E+03  0.30411920038E+03  0.90998702884E+02 0.  0.
          5    1    3    3  502    0  0.93399673717E+01  0.52819303427E+02  0.88900624837E+03  0.89063275027E+03  0.41800000000E+01 0.  1.
         -5    1    3    3    0  502 -0.44432080529E+01 -0.34252762705E+02  0.89510096334E+02  0.96033971054E+02  0.41800000000E+01 0.  1.
        -11    1    4    4    0    0 -0.36930673829E+02 -0.29954228939E+02  0.23559952715E+03  0.24035030204E+03  0.00000000000E+00 0.  1.
         11    1    4    4    0    0  0.32033914510E+02  0.11387688216E+02  0.53950173989E+02  0.63768898337E+02  0.00000000000E+00 0. -1.
</event>
<event>
 8    1  0.3654190E-009  0.1435220E+03  0.7561462E-02  0.1208667E+00
         -2   -1    0    0    0  501 -0.00000000000E+00  0.00000000000E+00  0.84538840419E+02  0.84538840419E+02  0.00000000000E+00 0.  1.
          2   -1    0    0  501    0  0.00000000000E+00 -0.00000000000E+00 -0.40065424507E+03  0.40065424507E+03  0.00000000000E+00 0. -1.
         25    2    1    2    0    0  0.10797725590E+03  0.41077937089E+02 -0.28874215554E+03  0.33521016864E+03  0.12508932836E+03 0.  0.
         23    2    1    2    0    0 -0.10797725590E+03 -0.41077937089E+02 -0.27373249114E+02  0.14998291685E+03  0.91646581349E+02 0.  0.
          5    1    3    3  502    0 -0.66273534454E+01  0.54092362696E+02 -0.85293306241E+02  0.10130313917E+03  0.41800000000E+01 0.  1.
         -5    1    3    3    0  502  0.11460460934E+03 -0.13014425607E+02 -0.20344884930E+03  0.23390702948E+03  0.41800000000E+01 0.  1.
        -11    1    4    4    0    0 -0.25804768791E+02 -0.17302636007E+01 -0.49836055087E+02  0.56147237609E+02  0.00000000000E+00 0. -1.
         11    1    4    4    0    0 -0.82172487108E+02 -0.39347673488E+02  0.22462805973E+02  0.93835679241E+02  0.00000000000E+00 0.  1.
</event>
<event>
 8    1  0.3654190E-009  0.1178983E+03  0.7561462E-02  0.1246605E+00
         -2   -1    0    0    0  501 -0.00000000000E+00  0.00000000000E+00  0.19240397129E+03  0.19240397129E+03  0.00000000000E+00 0.  1.
          2   -1    0    0  501    0  0.00000000000E+00 -0.00000000000E+00 -0.87419561768E+02  0.87419561768E+02  0.00000000000E+00 0. -1.
         25    2    1    2    0    0 -0.64122208773E+02  0.21756094305E+02  0.32920775397E+02  0.14599850232E+03  0.12508716932E+03 0.  0.
         23    2    1    2    0    0  0.64122208773E+02 -0.21756094305E+02  0.72063634123E+02  0.13382503074E+03  0.90171981188E+02 0.  0.
          5    1    3    3  502    0 -0.22315315729E+02 -0.47616725488E+02 -0.10821058514E+02  0.53850659882E+02  0.41800000000E+01 0. -1.
         -5    1    3    3    0  502 -0.41806893044E+02  0.69372819793E+02  0.43741833911E+02  0.92147842438E+02  0.41800000000E+01 0. -1.
        -11    1    4    4    0    0  0.31645221945E+02  0.28178836049E+02  0.59337301058E+02  0.72913525287E+02  0.00000000000E+00 0. -1.
         11    1    4    4    0    0  0.32476986828E+02 -0.49934930354E+02  0.12726333066E+02  0.60911505450E+02  0.00000000000E+00 0.  1.
</event>
<event>
 8    1  0.3654190E-009  0.1127608E+03  0.7561462E-02  0.1255541E+00
          2   -1    0    0  501    0  0.00000000000E+00  0.00000000000E+00  0.78959496918E+03  0.78959496918E+03  0.00000000000E+00 0. -1.
         -2   -1    0    0    0  501 -0.00000000000E+00 -0.00000000000E+00 -0.23708245481E+02  0.23708245481E+02  0.00000000000E+00 0.  1.
         25    2    1    2    0    0  0.42547013906E+02 -0.32960564257E+02  0.61113396810E+03  0.62612336385E+03  0.12509633327E+03 0.  0.
         23    2    1    2    0    0 -0.42547013906E+02  0.32960564257E+02  0.15475275560E+03  0.18717985082E+03  0.90505436291E+02 0.  0.
          5    1    3    3  502    0  0.59650558801E+02  0.26902511335E+02  0.20520009348E+03  0.21542164480E+03  0.41800000000E+01 0.  1.
         -5    1    3    3    0  502 -0.17103544895E+02 -0.59863075592E+02  0.40593387462E+03  0.41070171905E+03  0.41800000000E+01 0.  1.
        -11    1    4    4    0    0 -0.31640351071E+02 -0.23902195588E+02  0.99653874154E+02  0.10725353795E+03  0.00000000000E+00 0. -1.
         11    1    4    4    0    0 -0.10906662835E+02  0.56862759846E+02  0.55098881447E+02  0.79926312865E+02  0.00000000000E+00 0.  1.
</event>
<event>
 8    1  0.3654190E-009  0.1132321E+03  0.7561462E-02  0.1254699E+00
         -2   -1    0    0    0  501 -0.00000000000E+00  0.00000000000E+00  0.63231454273E+02  0.63231454273E+02  0.00000000000E+00 0.  1.
          2   -1    0    0  501    0  0.00000000000E+00 -0.00000000000E+00 -0.30063328553E+03  0.30063328553E+03  0.00000000000E+00 0. -1.
         25    2    1    2    0    0 -0.72118189141E+02  0.23863611868E+02 -0.18870400327E+03  0.23880236314E+03  0.12508741989E+03 0.  0.
         23    2    1    2    0    0  0.72118189141E+02 -0.23863611868E+02 -0.48697827989E+02  0.12506237666E+03  0.86594540413E+02 0.  0.
          5    1    3    3  502    0 -0.88631995420E+02 -0.20101051357E+02 -0.15866143036E+03  0.18289506489E+03  0.41800000000E+01 0. -1.
         -5    1    3    3    0  502  0.16513806280E+02  0.43964663225E+02 -0.30042572903E+02  0.55907298244E+02  0.41800000000E+01 0. -1.
        -11    1    4    4    0    0  0.66094810804E+02 -0.25028687564E+01  0.56248238872E+01  0.66380923547E+02  0.00000000000E+00 0.  1.
         11    1    4    4    0    0  0.60233783369E+01 -0.21360743111E+02 -0.54322651877E+02  0.58681453116E+02  0.00000000000E+00 0. -1.
</event>
<event>
 8    1  0.3654190E-009  0.9581961E+02  0.7561462E-02  0.1289341E+00
          1   -1    0    0  501    0  0.00000000000E+00  0.00000000000E+00  0.37793750415E+03  0.37793750415E+03  0.00000000000E+00 0. -1.
         -1   -1    0    0    0  501 -0.00000000000E+00 -0.00000000000E+00 -0.34957003455E+02  0.34957003455E+02  0.00000000000E+00 0.  1.
         25    2    1    2    0    0 -0.12333376671E+02 -0.18742971691E+02  0.15102235584E+03  0.19737772892E+03  0.12508718856E+03 0.  0.
         23    2    1    2    0    0  0.12333376671E+02  0.18742971691E+02  0.19195814486E+03  0.21551677869E+03  0.95373693181E+02 0.  0.
          5    1    3    3  502    0 -0.45851595401E+02 -0.47973580599E+02  0.39736789309E+02  0.77461719971E+02  0.41800000000E+01 0.  1.
         -5    1    3    3    0  502  0.33518218730E+02  0.29230608908E+02  0.11128556653E+03  0.11991600895E+03  0.41800000000E+01 0.  1.
        -11    1    4    4    0    0 -0.26788371270E+02  0.29554636976E+02  0.33954464222E+02  0.52383194277E+02  0.00000000000E+00 0.  1.
         11    1    4    4    0    0  0.39121747941E+02 -0.10811665285E+02  0.15800368063E+03  0.16313358441E+03  0.00000000000E+00 0. -1.
</event>
<event>
 8    1  0.3654190E-009  0.1051001E+03  0.7561462E-02  0.1269922E+00
         -2   -1    0    0    0  501 -0.00000000000E+00  0.00000000000E+00  0.98041449732E+02  0.98041449732E+02  0.00000000000E+00 0. -1.
          2   -1    0    0  501    0  0.00000000000E+00 -0.00000000000E+00 -0.14003413989E+03  0.14003413989E+03  0.00000000000E+00 0.  1.
         25    2    1    2    0    0 -0.42182201042E+02  0.10891646175E+02 -0.14219443607E+02  0.13321991275E+03  0.12508951409E+03 0.  0.
         23    2    1    2    0    0  0.42182201042E+02 -0.10891646175E+02 -0.27773246554E+02  0.10485567688E+03  0.91243595434E+02 0.  0.
          5    1    3    3  502    0 -0.82757601602E+02 -0.11106930261E+02  0.33144286098E+01  0.83669841400E+02  0.41800000000E+01 0.  1.
         -5    1    3    3    0  502  0.40575400561E+02  0.21998576436E+02 -0.17533872217E+02  0.49550071350E+02  0.41800000000E+01 0.  1.
        -11    1    4    4    0    0  0.20291263602E+02  0.28618855639E+02 -0.44519947539E+02  0.56681566718E+02  0.00000000000E+00 0.  1.
         11    1    4    4    0    0  0.21890937440E+02 -0.39510501814E+02  0.16746700985E+02  0.48174110158E+02  0.00000000000E+00 0. -1.
</event>
<event>
 8    1  0.3654190E-009  0.9145540E+02  0.7561462E-02  0.1299365E+00
         -3   -1    0    0    0  501 -0.00000000000E+00  0.00000000000E+00  0.41656819938E+02  0.41656819938E+02  0.00000000000E+00 0.  1.
          3   -1    0    0  501    0  0.00000000000E+00 -0.00000000000E+00 -0.29949032338E+03  0.29949032338E+03  0.00000000000E+00 0. -1.
         25    2    1    2    0    0 -0.21487296595E+02 -0.84623598082E+01 -0.17105049667E+03  0.21316188553E+03  0.12508557703E+03 0.  0.
         23    2    1    2    0    0  0.21487296595E+02  0.84623598082E+01 -0.86783006765E+02  0.12798525779E+03  0.91190024121E+02 0.  0.
          5    1    3    3  502    0 -0.36301083741E+02 -0.57918351187E+02 -0.61754573878E+02  0.92213902856E+02  0.41800000000E+01 0. -1.
         -5    1    3    3    0  502  0.14813787147E+02  0.49455991379E+02 -0.10929592280E+03  0.12094798267E+03  0.41800000000E+01 0. -1.
        -11    1    4    4    0    0  0.40829081689E+02 -0.15396194327E+01 -0.24996028026E+01  0.40934488561E+02  0.00000000000E+00 0.  1.
         11    1    4    4    0    0 -0.19341785094E+02  0.10001979241E+02 -0.84283403963E+02  0.87050769227E+02  0.00000000000E+00 0. -1.
</event>
<event>
 8    1  0.3654190E-009  0.2469702E+03  0.7561462E-02  0.1115235E+00
          1   -1    0    0  501    0  0.00000000000E+00  0.00000000000E+00  0.21938642676E+04  0.21938642676E+04  0.00000000000E+00 0. -1.
         -1   -1    0    0    0  501 -0.00000000000E+00 -0.00000000000E+00 -0.29980413012E+02  0.29980413012E+02  0.00000000000E+00 0.  1.
         25    2    1    2    0    0 -0.22572435035E+03  0.29989907031E+01  0.13512396857E+04  0.13756660384E+04  0.12509150460E+03 0.  0.
         23    2    1    2    0    0  0.22572435035E+03 -0.29989907031E+01  0.81264416884E+03  0.84817864223E+03  0.89755154213E+02 0.  0.
          5    1    3    3  502    0 -0.26901205658E+02  0.46153134069E+02  0.23531387840E+03  0.24133768959E+03  0.41800000000E+01 0. -1.
         -5    1    3    3    0  502 -0.19882314469E+03 -0.43154143366E+02  0.11159258073E+04  0.11343283488E+04  0.41800000000E+01 0. -1.
        -11    1    4    4    0    0  0.66753645310E+02  0.32085839977E+02  0.17390542678E+03  0.18902023107E+03  0.00000000000E+00 0.  1.
         11    1    4    4    0    0  0.15897070504E+03 -0.35084830680E+02  0.63873874206E+03  0.65915841116E+03  0.00000000000E+00 0. -1.
</event>
<event>
 8    1  0.3654190E-009  0.1901356E+03  0.7561462E-02  0.1158339E+00
         -1   -1    0    0    0  501 -0.00000000000E+00  0.00000000000E+00  0.22217079008E+03  0.22217079008E+03  0.00000000000E+00 0.  1.
          1   -1    0    0  501    0  0.00000000000E+00 -0.00000000000E+00 -0.17655927968E+03  0.17655927968E+03  0.00000000000E+00 0. -1.
         25    2    1    2    0    0  0.23464212529E+02  0.15529443583E+03  0.72904545777E+02  0.21361390122E+03  0.12509554319E+03 0.  0.
         23    2    1    2    0    0 -0.23464212529E+02 -0.15529443583E+03 -0.27293035380E+02  0.18511616854E+03  0.94107146404E+02 0.  0.
          5    1    3    3  502    0  0.57297356031E+02  0.24001572077E+02  0.65433891270E+01  0.62604718765E+02  0.41800000000E+01 0. -1.
         -5    1    3    3    0  502 -0.33833143503E+02  0.13129286376E+03  0.66361156650E+02  0.15100918245E+03  0.41800000000E+01 0. -1.
        -11    1    4    4    0    0  0.34302773648E+02 -0.83100933819E+02 -0.51988589874E+01  0.90052615822E+02  0.00000000000E+00 0.  1.
         11    1    4    4    0    0 -0.57766986177E+02 -0.72193502014E+02 -0.22094176393E+02  0.95063552719E+02  0.00000000000E+00 0. -1.
</event>
<event>
 8    1  0.3654190E-009  0.9132733E+02  0.7561462E-02  0.1299669E+00
         -1   -1    0    0    0  501 -0.00000000000E+00  0.00000000000E+00  0.87242911217E+03  0.87242911217E+03  0.00000000000E+00 0.  1.
          1   -1    0    0  501    0  0.00000000000E+00 -0.00000000000E+00 -0.38476281729E+02  0.38476281729E+02  0.00000000000E+00 0. -1.
         25    2    1    2    0    0  0.59738506327E+02 -0.25075583850E+02  0.76573231637E+03  0.77858200526E+03  0.12508590863E+03 0.  0.
         23    2    1    2    0    0 -0.59738506327E+02  0.25075583850E+02  0.68220514077E+02  0.13232338865E+03  0.93048195029E+02 0.  0.
          5    1    3    3  502    0  0.56231057022E+02 -0.32958236751E+02  0.76620477355E+03  0.76898335779E+03  0.41800000000E+01 0. -1.
         -5    1    3    3    0  502  0.35074493047E+01  0.78826529003E+01 -0.47245718643E+00  0.95986474654E+01  0.41800000000E+01 0. -1.
        -11    1    4    4    0    0 -0.76734586440E+02  0.38729450009E+02  0.35481699286E+02  0.92989881376E+02  0.00000000000E+00 0. -1.
         11    1    4    4    0    0  0.16996080113E+02 -0.13653866159E+02  0.32738814790E+02  0.39333507270E+02  0.00000000000E+00 0.  1.
</event>
<event>
 8    1  0.3654190E-009  0.1208378E+03  0.7561462E-02  0.1241721E+00
          2   -1    0    0  501    0  0.00000000000E+00  0.00000000000E+00  0.57495089705E+03  0.57495089705E+03  0.00000000000E+00 0.  1.
         -2   -1    0    0    0  501 -0.00000000000E+00 -0.00000000000E+00 -0.37692291167E+02  0.37692291167E+02  0.00000000000E+00 0. -1.
         25    2    1    2    0    0 -0.38339430989E+02  0.59875078395E+02  0.14739657721E+03  0.20598251599E+03  0.12509240160E+03 0.  0.
         23    2    1    2    0    0  0.38339430989E+02 -0.59875078395E+02  0.38986202867E+03  0.40666067223E+03  0.91244528367E+02 0.  0.
          5    1    3    3  502    0  0.39495563571E+02  0.22469635630E+02  0.93663300021E+02  0.10418766836E+03  0.41800000000E+01 0. -1.
         -5    1    3    3    0  502 -0.77834994560E+02  0.37405442765E+02  0.53733277194E+02  0.10179484763E+03  0.41800000000E+01 0. -1.
        -11    1    4    4    0    0 -0.19687858312E+02 -0.45835197399E+02  0.11439928172E+03  0.12480253501E+03  0.00000000000E+00 0. -1.
         11    1    4    4    0    0  0.58027289301E+02 -0.14039880995E+02  0.27546274694E+03  0.28185813722E+03  0.00000000000E+00 0.  1.
</event>
<event>
 8    1  0.3654190E-009  0.3046089E+03  0.7561462E-02  0.1082959E+00
          2   -1    0    0  501    0  0.00000000000E+00  0.00000000000E+00  0.76918227069E+03  0.76918227069E+03  0.00000000000E+00 0.  1.
         -2   -1    0    0    0  501 -0.00000000000E+00 -0.00000000000E+00 -0.13518584925E+03  0.13518584925E+03  0.00000000000E+00 0. -1.
         25    2    1    2    0    0 -0.22331967003E+03 -0.19671965584E+03  0.40483964957E+03  0.51779653358E+03  0.12509120795E+03 0.  0.
         23    2    1    2    0    0  0.22331967003E+03  0.19671965584E+03  0.22915677187E+03  0.38657158636E+03  0.91402774954E+02 0.  0.
          5    1    3    3  502    0 -0.78659400146E+02 -0.16512444532E+02  0.17109372202E+03  0.18907801610E+03  0.41800000000E+01 0.  1.
         -5    1    3    3    0  502 -0.14466026989E+03 -0.18020721131E+03  0.23374592754E+03  0.32871851748E+03  0.41800000000E+01 0.  1.
        -11    1    4    4    0    0  0.19327088382E+03  0.16965257693E+03  0.23156126040E+03  0.34605815799E+03  0.00000000000E+00 0.  1.
         11    1    4    4    0    0  0.30048786213E+02  0.27067078907E+02 -0.24044885268E+01  0.40513428373E+02  0.00000000000E+00 0. -1.
</event>
<event>
 8    1  0.3654190E-009  0.1177727E+03  0.7561462E-02  0.1246817E+00
          2   -1    0    0  501    0  0.00000000000E+00  0.00000000000E+00  0.31261124413E+03  0.31261124413E+03  0.00000000000E+00 0.  1.
         -2   -1    0    0    0  501 -0.00000000000E+00 -0.00000000000E+00 -0.48195671233E+02  0.48195671233E+02  0.00000000000E+00 0. -1.
         25    2    1    2    0    0 -0.52409193414E+02 -0.18772245478E+02  0.17793903100E+03  0.22451406740E+03  0.12508056184E+03 0.  0.
         23    2    1    2    0    0  0.52409193414E+02  0.18772245478E+02  0.86476541896E+02  0.13629284797E+03  0.89433927311E+02 0.  0.
          5    1    3    3  502    0 -0.90563346668E+02 -0.29303985251E+02  0.10781275239E+03  0.14388017684E+03  0.41800000000E+01 0. -1.
         -5    1    3    3    0  502  0.38154153254E+02  0.10531739773E+02  0.70126278616E+02  0.80633890553E+02  0.41800000000E+01 0. -1.
        -11    1    4    4    0    0  0.48884972752E+02 -0.26126983020E+02  0.67704144865E+02  0.87499777340E+02  0.00000000000E+00 0.  1.
         11    1    4    4    0    0  0.35242206626E+01  0.44899228498E+02  0.18772397031E+02  0.48793070628E+02  0.00000000000E+00 0. -1.
</event>
<event>
 8    1  0.3654190E-009  0.1245891E+03  0.7561462E-02  0.1235713E+00
          1   -1    0    0  501    0  0.00000000000E+00  0.00000000000E+00  0.55088939408E+02  0.55088939408E+02  0.00000000000E+00 0. -1.
         -1   -1    0    0    0  501 -0.00000000000E+00 -0.00000000000E+00 -0.43417539370E+03  0.43417539370E+03  0.00000000000E+00 0.  1.
         25    2    1    2    0    0 -0.44474469472E+02  0.69743767748E+02 -0.89138453240E+02  0.17445735000E+03  0.12509009372E+03 0.  0.
         23    2    1    2    0    0  0.44474469472E+02 -0.69743767748E+02 -0.28994800105E+03  0.31480698311E+03  0.90506473391E+02 0.  0.
          5    1    3    3  502    0 -0.65375456069E+02  0.68689667581E+01 -0.85551997008E+02  0.10797105887E+03  0.41800000000E+01 0. -1.
         -5    1    3    3    0  502  0.20900986597E+02  0.62874800990E+02 -0.35864562321E+01  0.66486291132E+02  0.41800000000E+01 0. -1.
        -11    1    4    4    0    0  0.47319096095E+01 -0.76467149494E+02 -0.14063753350E+03  0.16015158991E+03  0.00000000000E+00 0. -1.
         11    1    4    4    0    0  0.39742559862E+02  0.67233817460E+01 -0.14931046755E+03  0.15465539320E+03  0.00000000000E+00 0.  1.
</event>
<event>
 8    1  0.3654190E-009  0.1348644E+03  0.7561462E-02  0.1220411E+00
         -1   -1    0    0    0  501 -0.00000000000E+00  0.00000000000E+00  0.45098346380E+03  0.45098346380E+03  0.00000000000E+00 0.  1.
          1   -1    0    0  501    0  0.00000000000E+00 -0.00000000000E+00 -0.65600832383E+02  0.65600832383E+02  0.00000000000E+00 0. -1.
         25    2    1    2    0    0  0.23559661201E+02  0.12540744679E+03  0.14401745965E+03  0.22949263322E+03  0.12507499619E+03 0.  0.
         23    2    1    2    0    0 -0.23559661201E+02 -0.12540744679E+03  0.24136517177E+03  0.28709166297E+03  0.88782833101E+02 0.  0.
          5    1    3    3  502    0 -0.18023219652E+02  0.25106799158E+02 -0.16786807362E+02  0.35418316052E+02  0.41800000000E+01 0.  1.
         -5    1    3    3    0  502  0.41582880852E+02  0.10030064763E+03  0.16080426701E+03  0.19407431717E+03  0.41800000000E+01 0.  1.
        -11    1    4    4    0    0 -0.85386014044E+01 -0.86215975451E+01 -0.56971052609E+01  0.13405098527E+02  0.00000000000E+00 0.  1.
         11    1    4    4    0    0 -0.15021059796E+02 -0.11678584924E+03  0.24706227703E+03  0.27368656444E+03  0.00000000000E+00 0. -1.
</event>
<event>
 8    1  0.3654190E-009  0.1239935E+03  0.7561462E-02  0.1236651E+00
         -1   -1    0    0    0  501 -0.00000000000E+00  0.00000000000E+00  0.80401396240E+03  0.80401396240E+03  0.00000000000E+00 0.  1.
          1   -1    0    0  501    0  0.00000000000E+00 -0.00000000000E+00 -0.21806505630E+02  0.21806505630E+02  0.00000000000E+00 0. -1.
         25    2    1    2    0    0  0.57844773586E+02 -0.18361312616E+02  0.57507273137E+03  0.59164115987E+03  0.12508980796E+03 0.  0.
         23    2    1    2    0    0 -0.57844773586E+02  0.18361312616E+02  0.20713472540E+03  0.23417930816E+03  0.90840510075E+02 0.  0.
          5    1    3    3  502    0 -0.20669708920E+02  0.37078137120E+02  0.19055641869E+03  0.19527223618E+03  0.41800000000E+01 0.  1.
         -5    1    3    3    0  502  0.78514482506E+02 -0.55439449735E+02  0.38451631268E+03  0.39636892369E+03  0.41800000000E+01 0.  1.
        -11    1    4    4    0    0  0.22283213074E+02  0.18555666651E+02  0.60046810549E+02  0.66681885148E+02  0.00000000000E+00 0.  1.
         11    1    4    4    0    0 -0.80127986661E+02 -0.19435403554E+00  0.14708791485E+03  0.16749742301E+03  0.00000000000E+00 0. -1.
</event>
<event>
 8    1  0.3654190E-009  0.1886883E+03  0.7561462E-02  0.1159650E+00
         -1   -1    0    0    0  501 -0.00000000000E+00  0.00000000000E+00  0.22327787738E+03  0.22327787738E+03  0.00000000000E+00 0.  1.
          1   -1    0    0  501    0  0.00000000000E+00 -0.00000000000E+00 -0.26990616491E+03  0.26990616491E+03  0.00000000000E+00 0. -1.
         25    2    1    2    0    0  0.74346883524E+01  0.16895403537E+03 -0.16472707286E+03  0.26717586400E+03  0.12508874094E+03 0.  0.
         23    2    1    2    0    0 -0.74346883524E+01 -0.16895403537E+03  0.11809878533E+03  0.22600817829E+03  0.92366838722E+02 0.  0.
          5    1    3    3  502    0  0.25944699296E+02  0.11281640590E+02 -0.84587056383E+02  0.89290790922E+02  0.41800000000E+01 0.  1.
         -5    1    3    3    0  502 -0.18510010943E+02  0.15767239478E+03 -0.80140016477E+02  0.17788507308E+03  0.41800000000E+01 0.  1.
        -11    1    4    4    0    0  0.37393612064E+02 -0.10809981359E+03  0.89336557442E+02  0.14513742597E+03  0.00000000000E+00 0.  1.
         11    1    4    4    0    0 -0.44828300416E+02 -0.60854221781E+02  0.28762227888E+02  0.80870752314E+02  0.00000000000E+00 0. -1.
</event>
<event>
 8    1  0.3654190E-009  0.1407886E+03  0.7561462E-02  0.1212272E+00
         -2   -1    0    0    0  501 -0.00000000000E+00  0.00000000000E+00  0.64140558859E+02  0.64140558859E+02  0.00000000000E+00 0.  1.
          2   -1    0    0  501    0  0.00000000000E+00 -0.00000000000E+00 -0.36443437961E+03  0.36443437961E+03  0.00000000000E+00 0. -1.
         25    2    1    2    0    0  0.45925037214E+02  0.85718800560E+02 -0.98300051447E+02  0.18646087448E+03  0.12509170950E+03 0.  0.
         23    2    1    2    0    0 -0.45925037214E+02 -0.85718800560E+02 -0.20199376930E+03  0.24211406398E+03  0.91438040926E+02 0.  0.
          5    1    3    3  502    0 -0.70709165363E+00  0.10649662742E+03 -0.74104527174E+02  0.12981134380E+03  0.41800000000E+01 0. -1.
         -5    1    3    3    0  502  0.46632128868E+02 -0.20777826865E+02 -0.24195524273E+02  0.56649530685E+02  0.41800000000E+01 0. -1.
        -11    1    4    4    0    0 -0.14763358499E+02 -0.90980803674E+02 -0.10309983534E+03  0.13829330945E+03  0.00000000000E+00 0.  1.
         11    1    4    4    0    0 -0.31161678716E+02  0.52620031137E+01 -0.98893933963E+02  0.10382075453E+03  0.00000000000E+00 0. -1.
</event>
<event>
 8    1  0.3654190E-009  0.1063550E+03  0.7561462E-02  0.1267473E+00
         -1   -1    0    0    0  501 -0.00000000000E+00  0.00000000000E+00  0.30797766142E+02  0.30797766142E+02  0.00000000000E+00 0.  1.
          1   -1    0    0  501    0  0.00000000000E+00 -0.00000000000E+00 -0.67624823789E+03  0.67624823789E+03  0.00000000000E+00 0. -1.
         25    2    1    2    0    0  0.59983314389E+02 -0.61869094102E+02 -0.44737982294E+03  0.47246403817E+03  0.12509108114E+03 0.  0.
         23    2    1    2    0    0 -0.59983314389E+02  0.61869094102E+02 -0.19807064881E+03  0.23458196587E+03  0.91492808344E+02 0.  0.
          5    1    3    3  502    0 -0.17757284969E+02 -0.11116008838E+02 -0.71436584166E+01  0.22525343006E+02  0.41800000000E+01 0.  1.
         -5    1    3    3    0  502  0.77740599358E+02 -0.50753085264E+02 -0.44023616452E+03  0.44993869516E+03  0.41800000000E+01 0.  1.
        -11    1    4    4    0    0 -0.36705951044E+02  0.65274504063E+02 -0.64138339288E+02  0.98599261100E+02  0.00000000000E+00 0.  1.
         11    1    4    4    0    0 -0.23277363345E+02 -0.34054099608E+01 -0.13393230952E+03  0.13598270477E+03  0.00000000000E+00 0. -1.
</event>
<event>
 8    1  0.3654190E-009  0.1107815E+03  0.7561462E-02  0.1259130E+00
         -1   -1    0    0    0  501 -0.00000000000E+00  0.00000000000E+00  0.75740188047E+02  0.75740188047E+02  0.00000000000E+00 0.  1.
          1   -1    0    0  501    0  0.00000000000E+00 -0.00000000000E+00 -0.30909925829E+03  0.30909925829E+03  0.00000000000E+00 0. -1.
         25    2    1    2    0    0 -0.81739960262E+02 -0.25284662961E+02 -0.20773195759E+03  0.25713970661E+03  0.12509007645E+03 0.  0.
         23    2    1    2    0    0  0.81739960262E+02  0.25284662961E+02 -0.25627112647E+02  0.12769973972E+03  0.91267405673E+02 0.  0.
          5    1    3    3  502    0  0.13292157795E+02  0.14233444319E+02 -0.12057134760E+03  0.12220554267E+03  0.41800000000E+01 0.  1.
         -5    1    3    3    0  502 -0.95032118056E+02 -0.39518107280E+02 -0.87160609991E+02  0.13493416394E+03  0.41800000000E+01 0.  1.
        -11    1    4    4    0    0  0.46838818471E+01  0.20942669691E+02 -0.43476343109E+02  0.48484292024E+02  0.00000000000E+00 0. -1.
         11    1    4    4    0    0  0.77056078415E+02  0.43419932700E+01  0.17849230462E+02  0.79215447700E+02  0.00000000000E+00 0.  1.
</event>
<event>
 8    1  0.3654190E-009  0.8277356E+02  0.7561462E-02  0.1321360E+00
          4   -1    0    0  501    0  0.00000000000E+00  0.00000000000E+00  0.21821652365E+03  0.21821652365E+03  0.00000000000E+00 0. -1.
         -4   -1    0    0    0  501 -0.00000000000E+00 -0.00000000000E+00 -0.98045818952E+02  0.98045818952E+02  0.00000000000E+00 0.  1.
         25    2    1    2    0    0 -0.36482101192E+02  0.20523661640E+01  0.15811895591E+03  0.20490072538E+03  0.12509015600E+03 0.  0.
         23    2    1    2    0    0  0.36482101192E+02 -0.20523661640E+01 -0.37948251217E+02  0.11136161722E+03  0.98113118924E+02 0.  0.
          5    1    3    3  502    0 -0.59601935033E+02 -0.45474220113E+02  0.73679178302E+02  0.10519690618E+03  0.41800000000E+01 0. -1.
         -5    1    3    3    0  502  0.23119833841E+02  0.47526586277E+02  0.84439777610E+02  0.99703819199E+02  0.41800000000E+01 0. -1.
        -11    1    4    4    0    0  0.17354808922E+02  0.31153317588E+01 -0.70819197695E+02  0.72981185568E+02  0.00000000000E+00 0.  1.
         11    1    4    4    0    0  0.19127292270E+02 -0.51676979228E+01  0.32870946478E+02  0.38380431651E+02  0.00000000000E+00 0. -1.
</event>
<event>
 8    1  0.3654190E-009  0.1372998E+03  0.7561462E-02  0.1217009E+00
          1   -1    0    0  501    0  0.00000000000E+00  0.00000000000E+00  0.59000760517E+03  0.59000760517E+03  0.00000000000E+00 0. -1.
         -1   -1    0    0    0  501 -0.00000000000E+00 -0.00000000000E+00 -0.42183958359E+02  0.42183958359E+02  0.00000000000E+00 0.  1.
         25    2    1    2    0    0  0.51224798589E+02 -0.99658540766E+02  0.34924051346E+03  0.38752039251E+03  0.12508922270E+03 0.  0.
         23    2    1    2    0    0 -0.51224798589E+02  0.99658540766E+02  0.19858313336E+03  0.24467117102E+03  0.88729455848E+02 0.  0.
          5    1    3    3  502    0  0.31791405621E+02 -0.11518888437E+03  0.17799436270E+03  0.21442629994E+03  0.41800000000E+01 0.  1.
         -5    1    3    3    0  502  0.19433392968E+02  0.15530343602E+02  0.17124615076E+03  0.17309409258E+03  0.41800000000E+01 0.  1.
        -11    1    4    4    0    0 -0.47898527713E+02  0.23105199359E+02  0.13501266885E+03  0.14510871767E+03  0.00000000000E+00 0. -1.
         11    1    4    4    0    0 -0.33262708758E+01  0.76553341407E+02  0.63570464509E+02  0.99562453346E+02  0.00000000000E+00 0.  1.
</event>
<event>
 8    1  0.3654190E-009  0.1554740E+03  0.7561462E-02  0.1193903E+00
          2   -1    0    0  501    0  0.00000000000E+00  0.00000000000E+00  0.34704034131E+03  0.34704034131E+03  0.00000000000E+00 0. -1.
         -2   -1    0    0    0  501 -0.00000000000E+00 -0.00000000000E+00 -0.87851339556E+02  0.87851339556E+02  0.00000000000E+00 0.  1.
         25    2    1    2    0    0  0.74857244038E+02  0.10717740236E+03  0.17516785694E+03  0.25183407264E+03  0.12508404965E+03 0.  0.
         23    2    1    2    0    0 -0.74857244038E+02 -0.10717740236E+03  0.84021144822E+02  0.18305760823E+03  0.96746744609E+02 0.  0.
          5    1    3    3  502    0  0.87613261743E+02  0.10189844994E+03  0.81843120153E+02  0.15740122760E+03  0.41800000000E+01 0.  1.
         -5    1    3    3    0  502 -0.12756017705E+02  0.52789524190E+01  0.93324736783E+02  0.94432845038E+02  0.41800000000E+01 0.  1.
        -11    1    4    4    0    0 -0.88044020814E+02 -0.45700275611E+02  0.58775029352E+02  0.11530294388E+03  0.00000000000E+00 0. -1.
         11    1    4    4    0    0  0.13186776776E+02 -0.61477126750E+02  0.25246115471E+02  0.67754664352E+02  0.00000000000E+00 0.  1.
</event>
<event>
 8    1  0.3654190E-009  0.1487309E+03  0.7561462E-02  0.1202041E+00
          2   -1    0    0  501    0  0.00000000000E+00  0.00000000000E+00  0.23266520347E+03  0.23266520347E+03  0.00000000000E+00 0. -1.
         -2   -1    0    0    0  501 -0.00000000000E+00 -0.00000000000E+00 -0.14306893744E+03  0.14306893744E+03  0.00000000000E+00 0.  1.
         25    2    1    2    0    0 -0.94129929622E+02  0.72851104151E+02 -0.36960108563E+02  0.17658385169E+03  0.12509228603E+03 0.  0.
         23    2    1    2    0    0  0.94129929622E+02 -0.72851104151E+02  0.12655637458E+03  0.19915028922E+03  0.97347802868E+02 0.  0.
          5    1    3    3  502    0  0.27098038005E+02  0.34460766792E+02 -0.19497490452E+02  0.48160903704E+02  0.41800000000E+01 0. -1.
         -5    1    3    3    0  502 -0.12122796763E+03  0.38390337359E+02 -0.17462618112E+02  0.12842294798E+03  0.41800000000E+01 0. -1.
        -11    1    4    4    0    0  0.76585948665E+02 -0.76528923039E+02  0.47749464306E+02  0.11833044805E+03  0.00000000000E+00 0.  1.
         11    1    4    4    0    0  0.17543980957E+02  0.36778188874E+01  0.78806910278E+02  0.80819841173E+02  0.00000000000E+00 0. -1.
</event>
<event>
 8    1  0.3654190E-009  0.1545788E+03  0.7561462E-02  0.1194957E+00
         -1   -1    0    0    0  501 -0.00000000000E+00  0.00000000000E+00  0.42420136904E+03  0.42420136904E+03  0.00000000000E+00 0.  1.
          1   -1    0    0  501    0  0.00000000000E+00 -0.00000000000E+00 -0.78229245656E+02  0.78229245656E+02  0.00000000000E+00 0. -1.
         25    2    1    2    0    0  0.56274837594E+02 -0.97788532006E+02  0.58627203683E+02  0.17836560738E+03  0.12509071327E+03 0.  0.
         23    2    1    2    0    0 -0.56274837594E+02  0.97788532006E+02  0.28734491970E+03  0.32406500732E+03  0.98598031169E+02 0.  0.
          5    1    3    3  502    0  0.80016447727E+02 -0.11085717783E+03  0.63007493257E+02  0.15059668785E+03  0.41800000000E+01 0. -1.
         -5    1    3    3    0  502 -0.23741610133E+02  0.13068645825E+02 -0.43802895742E+01  0.27768919535E+02  0.41800000000E+01 0. -1.
        -11    1    4    4    0    0 -0.72499122225E+02  0.35760198223E+02  0.11841455005E+03  0.14337684668E+03  0.00000000000E+00 0. -1.
         11    1    4    4    0    0  0.16224284631E+02  0.62028333784E+02  0.16893036965E+03  0.18068816063E+03  0.00000000000E+00 0.  1.
</event>
<event>
 8    1  0.3654190E-009  0.1081773E+03  0.7561462E-02  0.1263983E+00
         -2   -1    0    0    0  501 -0.00000000000E+00  0.00000000000E+00  0.14572843272E+03  0.14572843272E+03  0.00000000000E+00 0. -1.
          2   -1    0    0  501    0  0.00000000000E+00 -0.00000000000E+00 -0.13513142521E+03  0.13513142521E+03  0.00000000000E+00 0.  1.
         25    2    1    2    0    0 -0.49453030454E+02  0.74342231240E+02  0.84211923195E+01  0.15391469394E+03  0.12508575844E+03 0.  0.
         23    2    1    2    0    0  0.49453030454E+02 -0.74342231240E+02  0.21758151934E+01  0.12694516398E+03  0.90210702909E+02 0.  0.
          5    1    3    3  502    0 -0.14664793694E+02  0.33502426973E+02 -0.57837750493E+02  0.68557614963E+02  0.41800000000E+01 0. -1.
         -5    1    3    3    0  502 -0.34788236760E+02  0.40839804266E+02  0.66258942813E+02  0.85357078980E+02  0.41800000000E+01 0. -1.
        -11    1    4    4    0    0  0.55021469950E+01 -0.81083119697E+02  0.97063662874E+01  0.81847171410E+02  0.00000000000E+00 0.  1.
         11    1    4    4    0    0  0.43950883459E+02  0.67408884573E+01 -0.75305510940E+01  0.45097992570E+02  0.00000000000E+00 0. -1.
</event>
<event>
 8    1  0.3654190E-009  0.9117632E+02  0.7561462E-02  0.1300028E+00
         -1   -1    0    0    0  501 -0.00000000000E+00  0.00000000000E+00  0.82697022779E+02  0.82697022779E+02  0.00000000000E+00 0.  1.
          1   -1    0    0  501    0  0.00000000000E+00 -0.00000000000E+00 -0.20411556601E+03  0.20411556601E+03  0.00000000000E+00 0. -1.
         25    2    1    2    0    0 -0.36046599009E+02 -0.23394278600E+01  0.24973475819E+01  0.13022308601E+03  0.12508790974E+03 0.  0.
         23    2    1    2    0    0  0.36046599009E+02  0.23394278600E+01 -0.12391589082E+03  0.15658950278E+03  0.88658300014E+02 0.  0.
          5    1    3    3  502    0 -0.12062277614E+02 -0.46114400190E+02  0.44128922130E+02  0.65091248370E+02  0.41800000000E+01 0. -1.
         -5    1    3    3    0  502 -0.23984321395E+02  0.43774972330E+02 -0.41631574548E+02  0.65131837642E+02  0.41800000000E+01 0. -1.
        -11    1    4    4    0    0  0.18540955499E+02 -0.36983456641E+02 -0.24076421016E+02  0.47866660056E+02  0.00000000000E+00 0.  1.
         11    1    4    4    0    0  0.17505643510E+02  0.39322884501E+02 -0.99839469799E+02  0.10872284272E+03  0.00000000000E+00 0. -1.
</event>
<event>
 8    1  0.3654190E-009  0.1481076E+03  0.7561462E-02  0.1202818E+00
         -1   -1    0    0    0  501 -0.00000000000E+00  0.00000000000E+00  0.35655204916E+02  0.35655204916E+02  0.00000000000E+00 0.  1.
          1   -1    0    0  501    0  0.00000000000E+00 -0.00000000000E+00 -0.84979731469E+03  0.84979731469E+03  0.00000000000E+00 0. -1.
         25    2    1    2    0    0  0.79272105188E+02 -0.10505405722E+03 -0.51758896230E+03  0.54851253389E+03  0.12508894572E+03 0.  0.
         23    2    1    2    0    0 -0.79272105188E+02  0.10505405722E+03 -0.29655314747E+03  0.33693998571E+03  0.90908542493E+02 0.  0.
          5    1    3    3  502    0  0.44672402398E+02 -0.17985749889E+02 -0.37334162519E+03  0.37645790234E+03  0.41800000000E+01 0.  1.
         -5    1    3    3    0  502  0.34599702790E+02 -0.87068307330E+02 -0.14424733711E+03  0.17205463155E+03  0.41800000000E+01 0.  1.
        -11    1    4    4    0    0 -0.94400496957E+02  0.75452283785E+02 -0.18870904683E+03  0.22408838727E+03  0.00000000000E+00 0.  1.
         11    1    4    4    0    0  0.15128391769E+02  0.29601773434E+02 -0.10784410064E+03  0.11285159844E+03  0.00000000000E+00 0. -1.
</event>
<event>
 8    1  0.3654190E-009  0.1082587E+03  0.7561462E-02  0.1263829E+00
         -2   -1    0    0    0  501 -0.00000000000E+00  0.00000000000E+00  0.14509504066E+03  0.14509504066E+03  0.00000000000E+00 0.  1.
          2   -1    0    0  501    0  0.00000000000E+00 -0.00000000000E+00 -0.12752912512E+03  0.12752912512E+03  0.00000000000E+00 0. -1.
         25    2    1    2    0    0 -0.62465219016E+02 -0.22341297167E+02 -0.39340691230E+02  0.14695256866E+03  0.12508529212E+03 0.  0.
         23    2    1    2    0    0  0.62465219016E+02  0.22341297167E+02  0.56906606764E+02  0.12567159712E+03  0.90299231906E+02 0.  0.
          5    1    3    3  502    0 -0.35780293422E+02 -0.68736145895E+02  0.43651886383E+01  0.77726536149E+02  0.41800000000E+01 0. -1.
         -5    1    3    3    0  502 -0.26684925594E+02  0.46394848728E+02 -0.43705879868E+02  0.69226032513E+02  0.41800000000E+01 0. -1.
        -11    1    4    4    0    0  0.36021227859E+02 -0.15375468952E+02 -0.13593115408E+02  0.41457287519E+02  0.00000000000E+00 0. -1.
         11    1    4    4    0    0  0.26443991157E+02  0.37716766119E+02  0.70499722172E+02  0.84214309598E+02  0.00000000000E+00 0.  1.
</event>
<event>
 8    1  0.3654190E-009  0.1580035E+03  0.7561462E-02  0.1190969E+00
         -1   -1    0    0    0  501 -0.00000000000E+00  0.00000000000E+00  0.47439443813E+02  0.47439443813E+02  0.00000000000E+00 0.  1.
          1   -1    0    0  501    0  0.00000000000E+00 -0.00000000000E+00 -0.59361491797E+03  0.59361491797E+03  0.00000000000E+00 0. -1.
         25    2    1    2    0    0  0.73029050415E+02  0.10417487455E+03 -0.27372747829E+03  0.32674338693E+03  0.12509541095E+03 0.  0.
         23    2    1    2    0    0 -0.73029050415E+02 -0.10417487455E+03 -0.27244799587E+03  0.31431097485E+03  0.91530496380E+02 0.  0.
          5    1    3    3  502    0 -0.25783219280E+02  0.68453551605E+02 -0.11192918709E+03  0.13377697278E+03  0.41800000000E+01 0.  1.
         -5    1    3    3    0  502  0.98812269695E+02  0.35721322947E+02 -0.16179829120E+03  0.19296641415E+03  0.41800000000E+01 0.  1.
        -11    1    4    4    0    0 -0.25244854055E+02 -0.80288345739E+02 -0.23348160015E+03  0.24818778924E+03  0.00000000000E+00 0. -1.
         11    1    4    4    0    0 -0.47784196360E+02 -0.23886528813E+02 -0.38966395716E+02  0.66123185613E+02  0.00000000000E+00 0.  1.
</event>
<event>
 8    1  0.3654190E-009  0.1102289E+03  0.7561462E-02  0.1260147E+00
          2   -1    0    0  501    0  0.00000000000E+00  0.00000000000E+00  0.23376317817E+03  0.23376317817E+03  0.00000000000E+00 0. -1.
         -2   -1    0    0    0  501 -0.00000000000E+00 -0.00000000000E+00 -0.13893258502E+03  0.13893258502E+03  0.00000000000E+00 0.  1.
         25    2    1    2    0    0  0.23360760355E+02 -0.32583037737E+02  0.19105349841E+03  0.23185712106E+03  0.12509558690E+03 0.  0.
         23    2    1    2    0    0 -0.23360760355E+02  0.32583037737E+02 -0.96222905259E+02  0.14083864213E+03  0.94706368045E+02 0.  0.
          5    1    3    3  502    0  0.23994776070E+02 -0.74186131662E+02  0.16511989267E+03  0.18265098622E+03  0.41800000000E+01 0.  1.
         -5    1    3    3    0  502 -0.63401571474E+00  0.41603093925E+02  0.25933605736E+02  0.49206134846E+02  0.41800000000E+01 0.  1.
        -11    1    4    4    0    0 -0.55265461118E+02  0.39477552135E+02 -0.78112488927E+02  0.10350994755E+03  0.00000000000E+00 0.  1.
         11    1    4    4    0    0  0.31904700763E+02 -0.68945143978E+01 -0.18110416332E+02  0.37328694583E+02  0.00000000000E+00 0. -1.
</event>
<event>
 8    1  0.3654190E-009  0.1319184E+03  0.7561462E-02  0.1224637E+00
          2   -1    0    0  501    0  0.00000000000E+00  0.00000000000E+00  0.23552544256E+03  0.23552544256E+03  0.00000000000E+00 0.  1.
         -2   -1    0    0    0  501 -0.00000000000E+00 -0.00000000000E+00 -0.87758951026E+02  0.87758951026E+02  0.00000000000E+00 0. -1.
         25    2    1    2    0    0 -0.38159180507E+02 -0.72862101717E+02  0.13466831761E+03  0.20136285285E+03  0.12508570588E+03 0.  0.
         23    2    1    2    0    0  0.38159180507E+02  0.72862101717E+02  0.13098173925E+02  0.12192154074E+03  0.89040951323E+02 0.  0.
          5    1    3    3  502    0  0.26560054031E+02 -0.79139890802E+02  0.86893526010E+02  0.12056747509E+03  0.41800000000E+01 0.  1.
         -5    1    3    3    0  502 -0.64719234538E+02  0.62777890845E+01  0.47774791598E+02  0.80795377759E+02  0.41800000000E+01 0.  1.
        -11    1    4    4    0    0 -0.24104974260E+02  0.34078116310E+02  0.23388932152E+02  0.47847778867E+02  0.00000000000E+00 0. -1.
         11    1    4    4    0    0  0.62264154767E+02  0.38783985407E+02 -0.10290758227E+02  0.74073761872E+02  0.00000000000E+00 0.  1.
</event>
<event>
 8    1  0.3654190E-009  0.1878403E+03  0.7561462E-02  0.1160424E+00
          2   -1    0    0  501    0  0.00000000000E+00  0.00000000000E+00  0.76195935473E+03  0.76195935473E+03  0.00000000000E+00 0. -1.
         -2   -1    0    0    0  501 -0.00000000000E+00 -0.00000000000E+00 -0.50858049375E+02  0.50858049375E+02  0.00000000000E+00 0.  1.
         25    2    1    2    0    0 -0.19172937113E+02 -0.15966651685E+03  0.28949350959E+03  0.35399897849E+03  0.12509111301E+03 0.  0.
         23    2    1    2    0    0  0.19172937113E+02  0.15966651685E+03  0.42160779576E+03  0.45881842561E+03  0.83067539478E+02 0.  0.
          5    1    3    3  502    0  0.36500277005E+02 -0.14699091148E+02  0.23663813133E+02  0.46106202989E+02  0.41800000000E+01 0. -1.
         -5    1    3    3    0  502 -0.55673214118E+02 -0.14496742570E+03  0.26582969646E+03  0.30789277550E+03  0.41800000000E+01 0. -1.
        -11    1    4    4    0    0  0.21732554368E+02  0.66603433118E+00  0.58775406830E+02  0.62668141580E+02  0.00000000000E+00 0. -1.
         11    1    4    4    0    0 -0.25596172553E+01  0.15900048252E+03  0.36283238893E+03  0.39615028403E+03  0.00000000000E+00 0.  1.
</event>
<event>
 8    1  0.3654190E-009  0.1957575E+03  0.7561462E-02  0.1153369E+00
         -2   -1    0    0    0  501 -0.00000000000E+00  0.00000000000E+00  0.15644470114E+03  0.15644470114E+03  0.00000000000E+00 0. -1.
          2   -1    0    0  501    0  0.00000000000E+00 -0.00000000000E+00 -0.44053175434E+03  0.44053175434E+03  0.00000000000E+00 0.  1.
         25    2    1    2    0    0  0.85350600986E+02  0.16459548792E+03  0.24664630610E+02  0.22500880625E+03  0.12507685298E+03 0.  0.
         23    2    1    2    0    0 -0.85350600986E+02 -0.16459548792E+03 -0.30875168381E+03  0.37196764923E+03  0.93037251077E+02 0.  0.
          5    1    3    3  502    0  0.10370801289E+02  0.40204432000E+02  0.62232880496E+02  0.74928990962E+02  0.41800000000E+01 0. -1.
         -5    1    3    3    0  502  0.74979799698E+02  0.12439105592E+03 -0.37568249886E+02  0.15007981529E+03  0.41800000000E+01 0. -1.
        -11    1    4    4    0    0 -0.47401964508E+01 -0.10280612072E+03 -0.12406159596E+03  0.16119195859E+03  0.00000000000E+00 0.  1.
         11    1    4    4    0    0 -0.80610404535E+02 -0.61789367200E+02 -0.18469008785E+03  0.21077569065E+03  0.00000000000E+00 0. -1.
</event>
<event>
 8    1  0.3654190E-009  0.1274472E+03  0.7561462E-02  0.1231294E+00
         -1   -1    0    0    0  501 -0.00000000000E+00  0.00000000000E+00  0.87541529934E+02  0.87541529934E+02  0.00000000000E+00 0.  1.
          1   -1    0    0  501    0  0.00000000000E+00 -0.00000000000E+00 -0.29907307015E+03  0.29907307015E+03  0.00000000000E+00 0. -1.
         25    2    1    2    0    0 -0.76578176260E+01  0.11514260554E+03 -0.14834978198E+03  0.22577082992E+03  0.12509335734E+03 0.  0.
         23    2    1    2    0    0  0.76578176260E+01 -0.11514260554E+03 -0.63181758239E+02  0.16084377016E+03  0.92532816034E+02 0.  0.
          5    1    3    3  502    0 -0.23768610424E+02  0.90580759014E+02 -0.16643877319E+03  0.19102135579E+03  0.41800000000E+01 0.  1.
         -5    1    3    3    0  502  0.16110792798E+02  0.24561846526E+02  0.18088991219E+02  0.34749474135E+02  0.41800000000E+01 0.  1.
        -11    1    4    4    0    0 -0.25693414637E+02 -0.75086710660E+02 -0.72971037144E+02  0.10780973024E+03  0.00000000000E+00 0.  1.
         11    1    4    4    0    0  0.33351232263E+02 -0.40055894881E+02  0.97892789052E+01  0.53034039914E+02  0.00000000000E+00 0. -1.
</event>
<event>
 8    1  0.3654190E-009  0.9400374E+02  0.7561462E-02  0.1293436E+00
         -3   -1    0    0    0  501 -0.00000000000E+00  0.00000000000E+00  0.81278233647E+02  0.81278233647E+02  0.00000000000E+00 0.  1.
          3   -1    0    0  501    0  0.00000000000E+00 -0.00000000000E+00 -0.19393303420E+03  0.19393303420E+03  0.00000000000E+00 0. -1.
         25    2    1    2    0    0  0.26428495054E+02 -0.58406864036E+02 -0.68998628959E+02  0.15658304101E+03  0.12509041057E+03 0.  0.
         23    2    1    2    0    0 -0.26428495054E+02  0.58406864036E+02 -0.43656171592E+02  0.11862822683E+03  0.89760613668E+02 0.  0.
          5    1    3    3  502    0  0.57742171262E+02 -0.33996732866E+01 -0.72752873996E+02  0.93038536077E+02  0.41800000000E+01 0.  1.
         -5    1    3    3    0  502 -0.31313676209E+02 -0.55007190749E+02  0.37542450375E+01  0.63544504936E+02  0.41800000000E+01 0.  1.
        -11    1    4    4    0    0 -0.15449381982E+02  0.14040379158E+02 -0.64938293108E+02  0.68211418123E+02  0.00000000000E+00 0. -1.
         11    1    4    4    0    0 -0.10979113072E+02  0.44366484877E+02  0.21282121516E+02  0.50416808709E+02  0.00000000000E+00 0.  1.
</event>
<event>
 8    1  0.3654190E-009  0.3673969E+03  0.7561462E-02  0.1055693E+00
          2   -1    0    0  501    0  0.00000000000E+00  0.00000000000E+00  0.31631832016E+04  0.31631832016E+04  0.00000000000E+00 0. -1.
         -2   -1    0    0    0  501 -0.00000000000E+00 -0.00000000000E+00 -0.47619518044E+02  0.47619518044E+02  0.00000000000E+00 0.  1.
         25    2    1    2    0    0 -0.32399914575E+03  0.15519978724E+03  0.11707910136E+04  0.12310408031E+04  0.12508973195E+03 0.  0.
         23    2    1    2    0    0  0.32399914575E+03 -0.15519978724E+03  0.19447726699E+04  0.19797619165E+04  0.90852010751E+02 0.  0.
          5    1    3    3  502    0  0.12608369472E+01  0.14768754443E+01  0.12514521114E+03  0.12523005686E+03  0.41800000000E+01 0.  1.
         -5    1    3    3    0  502 -0.32525998270E+03  0.15372291180E+03  0.10456458024E+04  0.11058107462E+04  0.41800000000E+01 0.  1.
        -11    1    4    4    0    0  0.18121039099E+03 -0.36793175443E+02  0.99979492403E+03  0.10167501334E+04  0.00000000000E+00 0.  1.
         11    1    4    4    0    0  0.14278875476E+03 -0.11840661180E+03  0.94497774592E+03  0.96301178315E+03  0.00000000000E+00 0. -1.
</event>
<event>
 8    1  0.3654190E-009  0.1266764E+03  0.7561462E-02  0.1232472E+00
          3   -1    0    0  501    0  0.00000000000E+00  0.00000000000E+00  0.17145574737E+03  0.17145574737E+03  0.00000000000E+00 0. -1.
         -3   -1    0    0    0  501 -0.00000000000E+00 -0.00000000000E+00 -0.12667417821E+03  0.12667417821E+03  0.00000000000E+00 0.  1.
         25    2    1    2    0    0 -0.64487028748E+02  0.24302745696E+02 -0.47360487373E+02  0.15045873262E+03  0.12508242935E+03 0.  0.
         23    2    1    2    0    0  0.64487028748E+02 -0.24302745696E+02  0.92142056530E+02  0.14767119296E+03  0.92560371242E+02 0.  0.
          5    1    3    3  502    0 -0.42829117030E+02 -0.49541969543E+02 -0.18710210752E+02  0.68236972369E+02  0.41800000000E+01 0. -1.
         -5    1    3    3    0  502 -0.21657911718E+02  0.73844715239E+02 -0.28650276620E+02  0.82221760253E+02  0.41800000000E+01 0. -1.
        -11    1    4    4    0    0  0.50068959791E+02 -0.56434699643E+02  0.81092592355E+02  0.11076003157E+03  0.00000000000E+00 0.  1.
         11    1    4    4    0    0  0.14418068957E+02  0.32131953947E+02  0.11049464175E+02  0.36911161394E+02  0.00000000000E+00 0. -1.
</event>
<event>
 8    1  0.3654190E-009  0.1050731E+03  0.7561462E-02  0.1269976E+00
         -1   -1    0    0    0  501 -0.00000000000E+00  0.00000000000E+00  0.17020669010E+02  0.17020669010E+02  0.00000000000E+00 0.  1.
          1   -1    0    0  501    0  0.00000000000E+00 -0.00000000000E+00 -0.83769989903E+03  0.83769989903E+03  0.00000000000E+00 0. -1.
         25    2    1    2    0    0 -0.13562566681E+02 -0.11858850451E+02 -0.61652988788E+03  0.62934955713E+03  0.12508871596E+03 0.  0.
         23    2    1    2    0    0  0.13562566681E+02  0.11858850451E+02 -0.20414934214E+03  0.22537101091E+03  0.93758002930E+02 0.  0.
          5    1    3    3  502    0 -0.43236911905E+02  0.40263929435E+02 -0.20274109263E+03  0.21121561875E+03  0.41800000000E+01 0.  1.
         -5    1    3    3    0  502  0.29674345224E+02 -0.52122779885E+02 -0.41378879525E+03  0.41813393838E+03  0.41800000000E+01 0.  1.
        -11    1    4    4    0    0 -0.37684658763E+02 -0.18971417635E+01 -0.52095013812E+02  0.64324358661E+02  0.00000000000E+00 0. -1.
         11    1    4    4    0    0  0.51247225444E+02  0.13755992214E+02 -0.15205432833E+03  0.16104665225E+03  0.00000000000E+00 0.  1.
</event>
<event>
 8    1  0.3654190E-009  0.1421833E+03  0.7561462E-02  0.1210421E+00
          1   -1    0    0  501    0  0.00000000000E+00  0.00000000000E+00  0.23554222280E+03  0.23554222280E+03  0.00000000000E+00 0. -1.
         -1   -1    0    0    0  501 -0.00000000000E+00 -0.00000000000E+00 -0.89788869098E+02  0.89788869098E+02  0.00000000000E+00 0.  1.
         25    2    1    2    0    0 -0.86819884181E+02  0.39182816023E+02  0.96593192192E+02  0.18452562751E+03  0.12508587878E+03 0.  0.
         23    2    1    2    0    0  0.86819884181E+02 -0.39182816023E+02  0.49160161505E+02  0.14080546438E+03  0.91304282266E+02 0.  0.
          5    1    3    3  502    0  0.25565541369E+02 -0.17516671548E+02  0.18613347545E+02  0.36391754484E+02  0.41800000000E+01 0.  1.
         -5    1    3    3    0  502 -0.11238542555E+03  0.56699487571E+02  0.77979844647E+02  0.14813387303E+03  0.41800000000E+01 0.  1.
        -11    1    4    4    0    0 -0.12089798646E+02 -0.24277477350E+02  0.27171285836E+02  0.38390596658E+02  0.00000000000E+00 0. -1.
         11    1    4    4    0    0  0.98909682827E+02 -0.14905338673E+02  0.21988875669E+02  0.10241486772E+03  0.00000000000E+00 0.  1.
</event>
<event>
 8    1  0.3654190E-009  0.1278937E+03  0.7561462E-02  0.1230615E+00
         -2   -1    0    0    0  501 -0.00000000000E+00  0.00000000000E+00  0.27218695263E+02  0.27218695263E+02  0.00000000000E+00 0.  1.
          2   -1    0    0  501    0  0.00000000000E+00 -0.00000000000E+00 -0.65408475769E+03  0.65408475769E+03  0.00000000000E+00 0. -1.
         25    2    1    2    0    0 -0.63078786864E+02 -0.26288334518E+02 -0.25120220130E+03  0.28882301134E+03  0.12508467554E+03 0.  0.
         23    2    1    2    0    0  0.63078786864E+02  0.26288334518E+02 -0.37566386113E+03  0.39248044162E+03  0.90816026182E+02 0.  0.
          5    1    3    3  502    0 -0.43247802843E+02 -0.76692685131E+02 -0.15121118018E+03  0.17502695168E+03  0.41800000000E+01 0.  1.
         -5    1    3    3    0  502 -0.19830984021E+02  0.50404350613E+02 -0.99991021125E+02  0.11379605966E+03  0.41800000000E+01 0.  1.
        -11    1    4    4    0    0  0.16311048693E+02 -0.33588287179E+02 -0.13842586969E+03  0.14337344504E+03  0.00000000000E+00 0.  1.
         11    1    4    4    0    0  0.46767738171E+02  0.59876621697E+02 -0.23723799144E+03  0.24910699657E+03  0.00000000000E+00 0. -1.
</event>
<event>
 8    1  0.3654190E-009  0.1540737E+03  0.7561462E-02  0.1195555E+00
          1   -1    0    0  501    0  0.00000000000E+00  0.00000000000E+00  0.15749643423E+03  0.15749643423E+03  0.00000000000E+00 0. -1.
         -1   -1    0    0    0  501 -0.00000000000E+00 -0.00000000000E+00 -0.19427832557E+03  0.19427832557E+03  0.00000000000E+00 0.  1.
         25    2    1    2    0    0 -0.13913394993E+03  0.12918146102E+02 -0.47259061069E+01  0.18760421965E+03  0.12509146461E+03 0.  0.
         23    2    1    2    0    0  0.13913394993E+03 -0.12918146102E+02 -0.32055985236E+02  0.16417054015E+03  0.79995284505E+02 0.  0.
          5    1    3    3  502    0 -0.10337088796E+03 -0.25971865551E+02 -0.50090464914E+02  0.11784144158E+03  0.41800000000E+01 0.  1.
         -5    1    3    3    0  502 -0.35763061966E+02  0.38890011653E+02  0.45364558807E+02  0.69762778065E+02  0.41800000000E+01 0.  1.
        -11    1    4    4    0    0  0.46652483625E+02 -0.28541808339E+02  0.18356055045E+02  0.57689113431E+02  0.00000000000E+00 0. -1.
         11    1    4    4    0    0  0.92481466304E+02  0.15623662237E+02 -0.50412040281E+02  0.10648142672E+03  0.00000000000E+00 0.  1.
</event>
<event>
 8    1  0.3654190E-009  0.2112376E+03  0.7561462E-02  0.1140590E+00
          2   -1    0    0  501    0  0.00000000000E+00  0.00000000000E+00  0.13042062011E+04  0.13042062011E+04  0.00000000000E+00 0. -1.
         -2   -1    0    0    0  501 -0.00000000000E+00 -0.00000000000E+00 -0.46975432475E+02  0.46975432475E+02  0.00000000000E+00 0.  1.
         25    2    1    2    0    0 -0.10222275705E+02  0.20578295208E+03  0.42242496592E+03  0.48635483341E+03  0.12508818435E+03 0.  0.
         23    2    1    2    0    0  0.10222275705E+02 -0.20578295208E+03  0.83480580272E+03  0.86482680017E+03  0.92593454165E+02 0.  0.
          5    1    3    3  502    0 -0.14644621554E+02  0.18129595816E+03  0.23478249027E+03  0.29702353362E+03  0.41800000000E+01 0. -1.
         -5    1    3    3    0  502  0.44223458492E+01  0.24486993920E+02  0.18764247564E+03  0.18933129979E+03  0.41800000000E+01 0. -1.
        -11    1    4    4    0    0  0.29445310218E+02 -0.47663267254E+02  0.11922291578E+03  0.13173047099E+03  0.00000000000E+00 0.  1.
         11    1    4    4    0    0 -0.19223034513E+02 -0.15811968483E+03  0.71558288694E+03  0.73309632919E+03  0.00000000000E+00 0. -1.
</event>
<event>
 8    1  0.3654190E-009  0.1788041E+03  0.7561462E-02  0.1168965E+00
          3   -1    0    0  501    0  0.00000000000E+00  0.00000000000E+00  0.18052931877E+03  0.18052931877E+03  0.00000000000E+00 0. -1.
         -3   -1    0    0    0  501 -0.00000000000E+00 -0.00000000000E+00 -0.21390582494E+03  0.21390582494E+03  0.00000000000E+00 0.  1.
         25    2    1    2    0    0  0.15445479828E+03 -0.52636902335E+02 -0.94952227533E+01  0.20582740908E+03  0.12509130614E+03 0.  0.
         23    2    1    2    0    0 -0.15445479828E+03  0.52636902335E+02 -0.23881283413E+02  0.18860773464E+03  0.91518488115E+02 0.  0.
          5    1    3    3  502    0 -0.96503456234E+01 -0.90233554786E+01 -0.31635461291E+02  0.34537297605E+02  0.41800000000E+01 0. -1.
         -5    1    3    3    0  502  0.16410514391E+03 -0.43613546856E+02  0.22140238538E+02  0.17129011147E+03  0.41800000000E+01 0. -1.
        -11    1    4    4    0    0 -0.13682864063E+03  0.65868800816E+02 -0.44689443321E+02  0.15829694300E+03  0.00000000000E+00 0.  1.
         11    1    4    4    0    0 -0.17626157650E+02 -0.13231898481E+02  0.20808159908E+02  0.30310791637E+02  0.00000000000E+00 0. -1.
</event>
<event>
 8    1  0.3654190E-009  0.1181517E+03  0.7561462E-02  0.1246178E+00
         -1   -1    0    0    0  501 -0.00000000000E+00  0.00000000000E+00  0.43393681030E+02  0.43393681030E+02  0.00000000000E+00 0.  1.
          1   -1    0    0  501    0  0.00000000000E+00 -0.00000000000E+00 -0.57156744304E+03  0.57156744304E+03  0.00000000000E+00 0. -1.
         25    2    1    2    0    0 -0.13280619964E+02  0.72842328600E+02 -0.45063724492E+03  0.47350232655E+03  0.12509255391E+03 0.  0.
         23    2    1    2    0    0  0.13280619964E+02 -0.72842328600E+02 -0.77536517093E+02  0.14145879752E+03  0.92283802527E+02 0.  0.
          5    1    3    3  502    0 -0.81097767679E+01 -0.26963417515E+02 -0.22363098340E+03  0.22543531999E+03  0.41800000000E+01 0.  1.
         -5    1    3    3    0  502 -0.51708431961E+01  0.99805746116E+02 -0.22700626152E+03  0.24806700657E+03  0.41800000000E+01 0.  1.
        -11    1    4    4    0    0  0.21969722430E+02 -0.87803232387E+02 -0.37738069299E+02  0.98062419895E+02  0.00000000000E+00 0.  1.
         11    1    4    4    0    0 -0.86891024661E+01  0.14960903786E+02 -0.39798447794E+02  0.43396377620E+02  0.00000000000E+00 0. -1.
</event>
<event>
 8    1  0.3654190E-009  0.8789973E+02  0.7561462E-02  0.1308019E+00
         -3   -1    0    0    0  501 -0.00000000000E+00  0.00000000000E+00  0.15239607678E+03  0.15239607678E+03  0.00000000000E+00 0.  1.
          3   -1    0    0  501    0  0.00000000000E+00 -0.00000000000E+00 -0.14357299798E+03  0.14357299798E+03  0.00000000000E+00 0. -1.
         25    2    1    2    0    0 -0.31955209724E+00  0.34893942760E+02 -0.88485985688E+02  0.15714729693E+03  0.12509122237E+03 0.  0.
         23    2    1    2    0    0  0.31955209724E+00 -0.34893942760E+02  0.97309064484E+02  0.13882177783E+03  0.92653886122E+02 0.  0.
          5    1    3    3  502    0  0.32395908073E+02  0.49648542813E+02  0.22596711657E+01  0.59473113061E+02  0.41800000000E+01 0. -1.
         -5    1    3    3    0  502 -0.32715460170E+02 -0.14754600053E+02 -0.90745656853E+02  0.97674183870E+02  0.41800000000E+01 0. -1.
        -11    1    4    4    0    0  0.19146017405E+02  0.16643970306E+02  0.75722730449E+02  0.79859399176E+02  0.00000000000E+00 0.  1.
         11    1    4    4    0    0 -0.18826465308E+02 -0.51537913066E+02  0.21586334035E+02  0.58962378652E+02  0.00000000000E+00 0. -1.
</event>
<event>
 8    1  0.3654190E-009  0.1180933E+03  0.7561462E-02  0.1246276E+00
         -1   -1    0    0    0  501 -0.00000000000E+00  0.00000000000E+00  0.51921597019E+03  0.51921597019E+03  0.00000000000E+00 0.  1.
          1   -1    0    0  501    0  0.00000000000E+00 -0.00000000000E+00 -0.35580862153E+02  0.35580862153E+02  0.00000000000E+00 0. -1.
         25    2    1    2    0    0 -0.75849683572E+02  0.35309054896E+02  0.24968730673E+03  0.29153213600E+03  0.12508929340E+03 0.  0.
         23    2    1    2    0    0  0.75849683572E+02 -0.35309054896E+02  0.23394780131E+03  0.26326469635E+03  0.87044946710E+02 0.  0.
          5    1    3    3  502    0 -0.39653393465E+02 -0.29464830794E+02  0.26333062337E+02  0.56137958986E+02  0.41800000000E+01 0.  1.
         -5    1    3    3    0  502 -0.36196290107E+02  0.64773885690E+02  0.22335424439E+03  0.23539417701E+03  0.41800000000E+01 0.  1.
        -11    1    4    4    0    0  0.10677022463E+02  0.22670517719E+02  0.10241185641E+03  0.10543310446E+03  0.00000000000E+00 0.  1.
         11    1    4    4    0    0  0.65172661109E+02 -0.57979572615E+02  0.13153594490E+03  0.15783159189E+03  0.00000000000E+00 0. -1.
</event>
<event>
 8    1  0.3654190E-009  0.1382538E+03  0.7561462E-02  0.1215698E+00
          1   -1    0    0  501    0  0.00000000000E+00  0.00000000000E+00  0.71880424718E+03  0.71880424718E+03  0.00000000000E+00 0. -1.
         -1   -1    0    0    0  501 -0.00000000000E+00 -0.00000000000E+00 -0.36679358970E+02  0.36679358970E+02  0.00000000000E+00 0.  1.
         25    2    1    2    0    0 -0.10279192214E+03 -0.62676222011E+02  0.37438391613E+03  0.41267939444E+03  0.12508588202E+03 0.  0.
         23    2    1    2    0    0  0.10279192214E+03  0.62676222011E+02  0.30774097208E+03  0.34280421171E+03  0.91190644278E+02 0.  0.
          5    1    3    3  502    0 -0.11530966864E+03 -0.55475378683E+02  0.19883686321E+03  0.23648976277E+03  0.41800000000E+01 0.  1.
         -5    1    3    3    0  502  0.12517746505E+02 -0.72008433275E+01  0.17554705291E+03  0.17618963167E+03  0.41800000000E+01 0.  1.
        -11    1    4    4    0    0  0.86762100538E+02  0.21684915889E+02  0.11819951500E+03  0.14821950956E+03  0.00000000000E+00 0.  1.
         11    1    4    4    0    0  0.16029821599E+02  0.40991306122E+02  0.18954145708E+03  0.19458470215E+03  0.00000000000E+00 0. -1.
</event>
<event>
 8    1  0.3654190E-009  0.8260008E+02  0.7561462E-02  0.1321831E+00
          4   -1    0    0  501    0  0.00000000000E+00  0.00000000000E+00  0.56414273251E+02  0.56414273251E+02  0.00000000000E+00 0. -1.
         -4   -1    0    0    0  501 -0.00000000000E+00 -0.00000000000E+00 -0.22862958207E+03  0.22862958207E+03  0.00000000000E+00 0.  1.
         25    2    1    2    0    0 -0.31422660024E+01  0.41316313687E+02 -0.72841909487E+02  0.15056817987E+03  0.12509165200E+03 0.  0.
         23    2    1    2    0    0  0.31422660024E+01 -0.41316313687E+02 -0.99373399335E+02  0.13447567545E+03  0.80571230475E+02 0.  0.
          5    1    3    3  502    0  0.18158308471E+02 -0.23865352603E+02  0.19096197584E+02  0.35796876730E+02  0.41800000000E+01 0.  1.
         -5    1    3    3    0  502 -0.21300574474E+02  0.65181666291E+02 -0.91938107071E+02  0.11477130314E+03  0.41800000000E+01 0.  1.
        -11    1    4    4    0    0  0.24648832714E+02 -0.68286849694E+01  0.16019652917E+01  0.25627371800E+02  0.00000000000E+00 0. -1.
         11    1    4    4    0    0 -0.21506566711E+02 -0.34487628718E+02 -0.10097536463E+03  0.10884830365E+03  0.00000000000E+00 0.  1.
</event>
<event>
 8    1  0.3654190E-009  0.1166678E+03  0.7561462E-02  0.1248698E+00
          2   -1    0    0  501    0  0.00000000000E+00  0.00000000000E+00  0.14355481099E+04  0.14355481099E+04  0.00000000000E+00 0. -1.
         -2   -1    0    0    0  501 -0.00000000000E+00 -0.00000000000E+00 -0.13429128264E+02  0.13429128264E+02  0.00000000000E+00 0.  1.
         25    2    1    2    0    0 -0.80912756960E+02 -0.14403508016E+02  0.91382367446E+03  0.92600019787E+03  0.12509325791E+03 0.  0.
         23    2    1    2    0    0  0.80912756960E+02  0.14403508016E+02  0.50829530719E+03  0.52297704031E+03  0.91578000045E+02 0.  0.
          5    1    3    3  502    0  0.95660136143E+01  0.12686768680E+02  0.15090425748E+02  0.22308206232E+02  0.41800000000E+01 0. -1.
         -5    1    3    3    0  502 -0.90478770575E+02 -0.27090276696E+02  0.89873324871E+03  0.90369199164E+03  0.41800000000E+01 0. -1.
        -11    1    4    4    0    0 -0.13489495554E+02 -0.18056702505E+02  0.11679254035E+03  0.11894750303E+03  0.00000000000E+00 0.  1.
         11    1    4    4    0    0  0.94402252515E+02  0.32460210521E+02  0.39150276684E+03  0.40402953728E+03  0.00000000000E+00 0. -1.
</event>
<event>
 8    1  0.3654190E-009  0.1156888E+03  0.7561462E-02  0.1250384E+00
         -1   -1    0    0    0  501 -0.00000000000E+00  0.00000000000E+00  0.75444706650E+02  0.75444706650E+02  0.00000000000E+00 0.  1.
          1   -1    0    0  501    0  0.00000000000E+00 -0.00000000000E+00 -0.22588163696E+03  0.22588163696E+03  0.00000000000E+00 0. -1.
         25    2    1    2    0    0 -0.22676410674E+02  0.63945643099E+02 -0.11289275498E+03  0.18164830857E+03  0.12509224199E+03 0.  0.
         23    2    1    2    0    0  0.22676410674E+02 -0.63945643099E+02 -0.37544175328E+02  0.11967803504E+03  0.91159212906E+02 0.  0.
          5    1    3    3  502    0 -0.71242111929E+02  0.58131052193E+02 -0.84434307433E+02  0.12490509362E+03  0.41800000000E+01 0.  1.
         -5    1    3    3    0  502  0.48565701255E+02  0.58145909059E+01 -0.28458447551E+02  0.56743214949E+02  0.41800000000E+01 0.  1.
        -11    1    4    4    0    0  0.24933947253E+02 -0.74960584980E+02 -0.56856021779E+02  0.97331383627E+02  0.00000000000E+00 0. -1.
         11    1    4    4    0    0 -0.22575365784E+01  0.11014941881E+02  0.19311846451E+02  0.22346651414E+02  0.00000000000E+00 0.  1.
</event>
<event>
 8    1  0.3654190E-009  0.1326676E+03  0.7561462E-02  0.1223550E+00
          4   -1    0    0  501    0  0.00000000000E+00  0.00000000000E+00  0.79067160994E+02  0.79067160994E+02  0.00000000000E+00 0. -1.
         -4   -1    0    0    0  501 -0.00000000000E+00 -0.00000000000E+00 -0.26234244200E+03  0.26234244200E+03  0.00000000000E+00 0.  1.
         25    2    1    2    0    0 -0.32351737013E+02  0.83705443909E+02 -0.68376948341E+02  0.16845255587E+03  0.12509044842E+03 0.  0.
         23    2    1    2    0    0  0.32351737013E+02 -0.83705443909E+02 -0.11489833267E+03  0.17295704713E+03  0.93055236684E+02 0.  0.
          5    1    3    3  502    0 -0.71387579150E+02  0.85910928577E+02 -0.35743665877E+02  0.11735397802E+03  0.41800000000E+01 0.  1.
         -5    1    3    3    0  502  0.39035842136E+02 -0.22054846683E+01 -0.32633282464E+02  0.51098577850E+02  0.41800000000E+01 0.  1.
        -11    1    4    4    0    0  0.20968682879E+02 -0.95541004622E+02 -0.57958860406E+02  0.11369696005E+03  0.00000000000E+00 0. -1.
         11    1    4    4    0    0  0.11383054134E+02  0.11835560713E+02 -0.56939472262E+02  0.59260087077E+02  0.00000000000E+00 0.  1.
</event>
<event>
 8    1  0.3654190E-009  0.1224986E+03  0.7561462E-02  0.1239031E+00
         -2   -1    0    0    0  501 -0.00000000000E+00  0.00000000000E+00  0.74474914069E+02  0.74474914069E+02  0.00000000000E+00 0.  1.
          2   -1    0    0  501    0  0.00000000000E+00 -0.00000000000E+00 -0.28755524965E+03  0.28755524965E+03  0.00000000000E+00 0. -1.
         25    2    1    2    0    0 -0.17359222781E+02 -0.94680954351E+02 -0.11286522626E+03  0.19404493721E+03  0.12509617352E+03 0.  0.
         23    2    1    2    0    0  0.17359222781E+02  0.94680954351E+02 -0.10021510932E+03  0.16798522651E+03  0.94393550917E+02 0.  0.
          5    1    3    3  502    0  0.26674256323E+02  0.49148804727E+01  0.10551097663E+02  0.29401871749E+02  0.41800000000E+01 0.  1.
         -5    1    3    3    0  502 -0.44033479104E+02 -0.99595834824E+02 -0.12341632392E+03  0.16464306547E+03  0.41800000000E+01 0.  1.
        -11    1    4    4    0    0  0.32172331704E+02  0.37028260020E+02  0.26659387735E+01  0.49124924396E+02  0.00000000000E+00 0.  1.
         11    1    4    4    0    0 -0.14813108924E+02  0.57652694331E+02 -0.10288104810E+03  0.11886030211E+03  0.00000000000E+00 0. -1.
</event>
<event>
 8    1  0.3654190E-009  0.1091195E+03  0.7561462E-02  0.1262209E+00
          2   -1    0    0  501    0  0.00000000000E+00  0.00000000000E+00  0.53844626574E+03  0.53844626574E+03  0.00000000000E+00 0. -1.
         -2   -1    0    0    0  501 -0.00000000000E+00 -0.00000000000E+00 -0.26728344303E+02  0.26728344303E+02  0.00000000000E+00 0.  1.
         25    2    1    2    0    0  0.32687487891E+02 -0.16183461294E+02  0.20239808397E+03  0.24071056781E+03  0.12508483832E+03 0.  0.
         23    2    1    2    0    0 -0.32687487891E+02  0.16183461294E+02  0.30931983747E+03  0.32446404223E+03  0.90927314737E+02 0.  0.
          5    1    3    3  502    0  0.65861845372E+02  0.22754250531E+02  0.70656089735E+02  0.99324186429E+02  0.41800000000E+01 0. -1.
         -5    1    3    3    0  502 -0.33174357481E+02 -0.38937711824E+02  0.13174199423E+03  0.14138638139E+03  0.41800000000E+01 0. -1.
        -11    1    4    4    0    0 -0.47925522891E+02  0.44212665140E+02  0.18656984914E+03  0.19763583711E+03  0.00000000000E+00 0.  1.
         11    1    4    4    0    0  0.15238034999E+02 -0.28029203846E+02  0.12274998833E+03  0.12682820512E+03  0.00000000000E+00 0. -1.
</event>
<event>
 8    1  0.3654190E-009  0.2208031E+03  0.7561462E-02  0.1133286E+00
          2   -1    0    0  501    0  0.00000000000E+00  0.00000000000E+00  0.72258046122E+03  0.72258046122E+03  0.00000000000E+00 0. -1.
         -2   -1    0    0    0  501 -0.00000000000E+00 -0.00000000000E+00 -0.79590597017E+02  0.79590597017E+02  0.00000000000E+00 0.  1.
         25    2    1    2    0    0 -0.35415029445E+02  0.20564494731E+03  0.25544583310E+03  0.35276170255E+03  0.12507668239E+03 0.  0.
         23    2    1    2    0    0  0.35415029445E+02 -0.20564494731E+03  0.38754403111E+03  0.44940935569E+03  0.90743177530E+02 0.  0.
          5    1    3    3  502    0 -0.36994305281E+02  0.21723428079E+03  0.25876394298E+03  0.33990522497E+03  0.41800000000E+01 0.  1.
         -5    1    3    3    0  502  0.15792758363E+01 -0.11589333483E+02 -0.33181098806E+01  0.12856477586E+02  0.41800000000E+01 0.  1.
        -11    1    4    4    0    0  0.12424557901E+02 -0.54349676222E+02  0.36985428322E+02  0.66904251379E+02  0.00000000000E+00 0.  1.
         11    1    4    4    0    0  0.22990471544E+02 -0.15129527109E+03  0.35055860278E+03  0.38250510431E+03  0.00000000000E+00 0. -1.
</event>
<event>
 8    1  0.3654190E-009  0.1543188E+03  0.7561462E-02  0.1195264E+00
          2   -1    0    0  501    0  0.00000000000E+00  0.00000000000E+00  0.87529765974E+03  0.87529765974E+03  0.00000000000E+00 0. -1.
         -2   -1    0    0    0  501 -0.00000000000E+00 -0.00000000000E+00 -0.36440413231E+02  0.36440413231E+02  0.00000000000E+00 0.  1.
         25    2    1    2    0    0 -0.12115572839E+03 -0.68528878548E+02  0.50762331959E+03  0.54102115086E+03  0.12509010099E+03 0.  0.
         23    2    1    2    0    0  0.12115572839E+03  0.68528878548E+02  0.33123392691E+03  0.37071692211E+03  0.91324718908E+02 0.  0.
          5    1    3    3  502    0 -0.40194236187E+02 -0.40054503530E+02  0.39645421501E+03  0.40051636281E+03  0.41800000000E+01 0. -1.
         -5    1    3    3    0  502 -0.80961492200E+02 -0.28474375019E+02  0.11116910458E+03  0.14050478805E+03  0.41800000000E+01 0. -1.
        -11    1    4    4    0    0  0.45108201964E+02 -0.19797091492E+02  0.11406585323E+03  0.12424851544E+03  0.00000000000E+00 0. -1.
         11    1    4    4    0    0  0.76047526422E+02  0.88325970040E+02  0.21716807368E+03  0.24646840666E+03  0.00000000000E+00 0.  1.
</event>
<event>
 8    1  0.3654190E-009  0.1544031E+03  0.7561462E-02  0.1195165E+00
         -1   -1    0    0    0  501 -0.00000000000E+00  0.00000000000E+00  0.49578182208E+03  0.49578182208E+03  0.00000000000E+00 0. -1.
          1   -1    0    0  501    0  0.00000000000E+00 -0.00000000000E+00 -0.61135231467E+02  0.61135231467E+02  0.00000000000E+00 0.  1.
         25    2    1    2    0    0 -0.68744098467E+02 -0.96166717429E+02  0.33791353885E+03  0.37922023834E+03  0.12509452752E+03 0.  0.
         23    2    1    2    0    0  0.68744098467E+02  0.96166717429E+02  0.96733051768E+02  0.17769681521E+03  0.90802457103E+02 0.  0.
          5    1    3    3  502    0 -0.12540866413E+02 -0.11060551169E+03  0.25129122086E+03  0.27487379399E+03  0.41800000000E+01 0.  1.
         -5    1    3    3    0  502 -0.56203232054E+02  0.14438794259E+02  0.86622317991E+02  0.10434644434E+03  0.41800000000E+01 0.  1.
        -11    1    4    4    0    0  0.83792536505E+02  0.70607939583E+02  0.99366675768E+02  0.14792027095E+03  0.00000000000E+00 0.  1.
         11    1    4    4    0    0 -0.15048438038E+02  0.25558777845E+02 -0.26336240003E+01  0.29776544254E+02  0.00000000000E+00 0. -1.
</event>
<event>
 8    1  0.3654190E-009  0.1078375E+03  0.7561462E-02  0.1264628E+00
          2   -1    0    0  501    0  0.00000000000E+00  0.00000000000E+00  0.52821049593E+03  0.52821049593E+03  0.00000000000E+00 0. -1.
         -2   -1    0    0    0  501 -0.00000000000E+00 -0.00000000000E+00 -0.44087242098E+02  0.44087242098E+02  0.00000000000E+00 0.  1.
         25    2    1    2    0    0 -0.86169455852E+02  0.14281094880E+02  0.37289231911E+03  0.40289722163E+03  0.12509342412E+03 0.  0.
         23    2    1    2    0    0  0.86169455852E+02 -0.14281094880E+02  0.11123093472E+03  0.16940051639E+03  0.93247462819E+02 0.  0.
          5    1    3    3  502    0 -0.94804513586E+01  0.19984186476E+02  0.28560839869E+03  0.28649411245E+03  0.41800000000E+01 0.  1.
         -5    1    3    3    0  502 -0.76689004494E+02 -0.57030915952E+01  0.87283920421E+02  0.11640310919E+03  0.41800000000E+01 0.  1.
        -11    1    4    4    0    0 -0.37220756234E+01 -0.25312275007E+02 -0.48110503042E+00  0.25588993240E+02  0.00000000000E+00 0.  1.
         11    1    4    4    0    0  0.89891531476E+02  0.11031180126E+02  0.11171203975E+03  0.14381152315E+03  0.00000000000E+00 0. -1.
</event>
<event>
 8    1  0.3654190E-009  0.1625228E+03  0.7561462E-02  0.1185878E+00
          1   -1    0    0  501    0  0.00000000000E+00  0.00000000000E+00  0.20282465237E+03  0.20282465237E+03  0.00000000000E+00 0. -1.
         -1   -1    0    0    0  501 -0.00000000000E+00 -0.00000000000E+00 -0.29473494347E+03  0.29473494347E+03  0.00000000000E+00 0.  1.
         25    2    1    2    0    0  0.91564146765E+02 -0.11918203465E+03 -0.20905355023E+03  0.28624883193E+03  0.12508659625E+03 0.  0.
         23    2    1    2    0    0 -0.91564146765E+02  0.11918203465E+03  0.11714325912E+03  0.21131076391E+03  0.91330966425E+02 0.  0.
          5    1    3    3  502    0  0.38454437173E+01 -0.92568124632E+01  0.16889526895E+02  0.20079953513E+02  0.41800000000E+01 0. -1.
         -5    1    3    3    0  502  0.87718703048E+02 -0.10992522219E+03 -0.22594307712E+03  0.26616887842E+03  0.41800000000E+01 0. -1.
        -11    1    4    4    0    0 -0.49768742393E+02  0.12183568112E+03  0.73151694187E+02  0.15057234565E+03  0.00000000000E+00 0.  1.
         11    1    4    4    0    0 -0.41795404372E+02 -0.26536464687E+01  0.43991564936E+02  0.60738418252E+02  0.00000000000E+00 0. -1.
</event>
<event>
 8    1  0.3654190E-009  0.1311360E+03  0.7561462E-02  0.1225780E+00
          2   -1    0    0  501    0  0.00000000000E+00  0.00000000000E+00  0.85371735025E+03  0.85371735025E+03  0.00000000000E+00 0. -1.
         -2   -1    0    0    0  501 -0.00000000000E+00 -0.00000000000E+00 -0.23497168900E+02  0.23497168900E+02  0.00000000000E+00 0.  1.
         25    2    1    2    0    0  0.78041125081E+02  0.30484464125E+02  0.50009209672E+03  0.52226381311E+03  0.12509062926E+03 0.  0.
         23    2    1    2    0    0 -0.78041125081E+02 -0.30484464125E+02  0.33012808464E+03  0.35495070604E+03  0.99928633024E+02 0.  0.
          5    1    3    3  502    0  0.23358468054E+02 -0.41416562528E+02  0.28447154561E+03  0.28844840499E+03  0.41800000000E+01 0.  1.
         -5    1    3    3    0  502  0.54682657027E+02  0.71901026653E+02  0.21562055111E+03  0.23381540812E+03  0.41800000000E+01 0.  1.
        -11    1    4    4    0    0 -0.97526340861E+02 -0.13878868807E+02  0.29805984145E+03  0.31391667564E+03  0.00000000000E+00 0.  1.
         11    1    4    4    0    0  0.19485215780E+02 -0.16605595318E+02  0.32068243184E+02  0.41034030399E+02  0.00000000000E+00 0. -1.
</event>
<event>
 8    1  0.3654190E-009  0.6864340E+02  0.7561462E-02  0.1364768E+00
          2   -1    0    0  501    0  0.00000000000E+00  0.00000000000E+00  0.41045546653E+03  0.41045546653E+03  0.00000000000E+00 0. -1.
         -2   -1    0    0    0  501 -0.00000000000E+00 -0.00000000000E+00 -0.29676229110E+02  0.29676229110E+02  0.00000000000E+00 0.  1.
         25    2    1    2    0    0  0.18495586162E+02  0.98724416863E+00  0.24658477573E+03  0.27711746808E+03  0.12508788167E+03 0.  0.
         23    2    1    2    0    0 -0.18495586162E+02 -0.98724416863E+00  0.13419446169E+03  0.16301422755E+03  0.90677579796E+02 0.  0.
          5    1    3    3  502    0 -0.15523219610E+01 -0.18152326880E+02 -0.84739653679E+01  0.20523088551E+02  0.41800000000E+01 0.  1.
         -5    1    3    3    0  502  0.20047908123E+02  0.19139571049E+02  0.25505874109E+03  0.25659437953E+03  0.41800000000E+01 0.  1.
        -11    1    4    4    0    0  0.50829887381E+01 -0.42510631428E+02  0.80363706733E+02  0.91056663231E+02  0.00000000000E+00 0. -1.
         11    1    4    4    0    0 -0.23578574900E+02  0.41523387259E+02  0.53830754959E+02  0.71957564322E+02  0.00000000000E+00 0.  1.
</event>
<event>
 8    1  0.3654190E-009  0.1041013E+03  0.7561462E-02  0.1271901E+00
          3   -1    0    0  501    0  0.00000000000E+00  0.00000000000E+00  0.19359665948E+03  0.19359665948E+03  0.00000000000E+00 0. -1.
         -3   -1    0    0    0  501 -0.00000000000E+00 -0.00000000000E+00 -0.61359300883E+02  0.61359300883E+02  0.00000000000E+00 0.  1.
         25    2    1    2    0    0  0.12631273735E+02 -0.12113007847E+02  0.59033436474E+02  0.13942041905E+03  0.12508729988E+03 0.  0.
         23    2    1    2    0    0 -0.12631273735E+02  0.12113007847E+02  0.73203922124E+02  0.11553554131E+03  0.87654851871E+02 0.  0.
          5    1    3    3  502    0  0.62325294713E+02 -0.32461453849E+02  0.20923419824E+02  0.73440113318E+02  0.41800000000E+01 0.  1.
         -5    1    3    3    0  502 -0.49694020978E+02  0.20348446002E+02  0.38110016651E+02  0.65980305734E+02  0.41800000000E+01 0.  1.
        -11    1    4    4    0    0  0.33143589295E+02 -0.77637584670E+01  0.50031564775E+02  0.60513890395E+02  0.00000000000E+00 0.  1.
         11    1    4    4    0    0 -0.45774863030E+02  0.19876766314E+02  0.23172357349E+02  0.55021650917E+02  0.00000000000E+00 0. -1.
</event>
<event>
 8    1  0.3654190E-009  0.1061654E+03  0.7561462E-02  0.1267840E+00
          1   -1    0    0  501    0  0.00000000000E+00  0.00000000000E+00  0.40412907058E+03  0.40412907058E+03  0.00000000000E+00 0. -1.
         -1   -1    0    0    0  501 -0.00000000000E+00 -0.00000000000E+00 -0.47041481091E+02  0.47041481091E+02  0.00000000000E+00 0.  1.
         25    2    1    2    0    0  0.17030648989E+02 -0.83279612222E+02  0.18535734832E+03  0.23922903713E+03  0.12509056245E+03 0.  0.
         23    2    1    2    0    0 -0.17030648989E+02  0.83279612222E+02  0.17173024117E+03  0.21194151454E+03  0.90567063756E+02 0.  0.
          5    1    3    3  502    0 -0.75365059770E+01 -0.39130766554E+02  0.18421222144E+03  0.18851957655E+03  0.41800000000E+01 0. -1.
         -5    1    3    3    0  502  0.24567154966E+02 -0.44148845667E+02  0.11451268787E+01  0.50709460581E+02  0.41800000000E+01 0. -1.
        -11    1    4    4    0    0 -0.15243482183E+02 -0.16099127252E+02  0.50649767679E+02  0.55289642912E+02  0.00000000000E+00 0.  1.
         11    1    4    4    0    0 -0.17871668061E+01  0.99378739474E+02  0.12108047349E+03  0.15665187163E+03  0.00000000000E+00 0. -1.
</event>
<event>
 8    1  0.3654190E-009  0.1661604E+03  0.7561462E-02  0.1181912E+00
          3   -1    0    0  501    0  0.00000000000E+00  0.00000000000E+00  0.11246647455E+03  0.11246647455E+03  0.00000000000E+00 0. -1.
         -3   -1    0    0    0  501 -0.00000000000E+00 -0.00000000000E+00 -0.30642024867E+03  0.30642024867E+03  0.00000000000E+00 0.  1.
         25    2    1    2    0    0 -0.13106676901E+03  0.50863184434E+02 -0.16123907735E+03  0.24781167244E+03  0.12508806283E+03 0.  0.
         23    2    1    2    0    0  0.13106676901E+03 -0.50863184434E+02 -0.32714696778E+02  0.17107505078E+03  0.91819715460E+02 0.  0.
          5    1    3    3  502    0 -0.12493926050E+02 -0.33999453059E+02 -0.60139512510E+02  0.70329896640E+02  0.41800000000E+01 0.  1.
         -5    1    3    3    0  502 -0.11857284296E+03  0.84862637492E+02 -0.10109956484E+03  0.17748177580E+03  0.41800000000E+01 0.  1.
        -11    1    4    4    0    0  0.51479344541E+02  0.64893463859E+01  0.24639395693E+02  0.57439832442E+02  0.00000000000E+00 0. -1.
         11    1    4    4    0    0  0.79587424465E+02 -0.57352530820E+02 -0.57354092471E+02  0.11363521834E+03  0.00000000000E+00 0.  1.
</event>
<event>
 8    1  0.3654190E-009  0.1270308E+03  0.7561462E-02  0.1231929E+00
         -1   -1    0    0    0  501 -0.00000000000E+00  0.00000000000E+00  0.41815906652E+02  0.41815906652E+02  0.00000000000E+00 0.  1.
          1   -1    0    0  501    0  0.00000000000E+00 -0.00000000000E+00 -0.48650204503E+03  0.48650204503E+03  0.00000000000E+00 0. -1.
         25    2    1    2    0    0  0.42794234920E+02  0.80151262037E+02 -0.21865955941E+03  0.26779683476E+03  0.12509024915E+03 0.  0.
         23    2    1    2    0    0 -0.42794234920E+02 -0.80151262037E+02 -0.22602657896E+03  0.26052111692E+03  0.92345365978E+02 0.  0.
          5    1    3    3  502    0 -0.29278476864E+02  0.60718932682E+02 -0.15691667173E+03  0.17083422450E+03  0.41800000000E+01 0. -1.
         -5    1    3    3    0  502  0.72072711784E+02  0.19432329355E+02 -0.61742887682E+02  0.96962610254E+02  0.41800000000E+01 0. -1.
        -11    1    4    4    0    0 -0.90697457782E+01  0.11182485255E+02  0.20510696636E-01  0.14398218141E+02  0.00000000000E+00 0.  1.
         11    1    4    4    0    0 -0.33724489141E+02 -0.91333747292E+02 -0.22604708966E+03  0.24612289878E+03  0.00000000000E+00 0. -1.
</event>
<event>
 8    1  0.3654190E-009  0.1247576E+03  0.7561462E-02  0.1235449E+00
          1   -1    0    0  501    0  0.00000000000E+00  0.00000000000E+00  0.85745855017E+03  0.85745855017E+03  0.00000000000E+00 0. -1.
         -1   -1    0    0    0  501 -0.00000000000E+00 -0.00000000000E+00 -0.21787503497E+02  0.21787503497E+02  0.00000000000E+00 0.  1.
         25    2    1    2    0    0  0.78421499555E+02  0.10835192292E+02  0.54240828881E+03  0.56224720165E+03  0.12509129071E+03 0.  0.
         23    2    1    2    0    0 -0.78421499555E+02 -0.10835192292E+02  0.29326275786E+03  0.31699885201E+03  0.90652600873E+02 0.  0.
          5    1    3    3  502    0 -0.34114803280E+02 -0.27786353656E+01  0.11703795997E+03  0.12201187275E+03  0.41800000000E+01 0.  1.
         -5    1    3    3    0  502  0.11253630283E+03  0.13613827658E+02  0.42537032884E+03  0.44023532891E+03  0.41800000000E+01 0.  1.
        -11    1    4    4    0    0  0.28147453693E+01  0.15845669121E+02  0.58293325657E+01  0.17116925528E+02  0.00000000000E+00 0.  1.
         11    1    4    4    0    0 -0.81236244924E+02 -0.26680861413E+02  0.28743342530E+03  0.29988192649E+03  0.00000000000E+00 0. -1.
</event>
<event>
 8    1  0.3654190E-009  0.1810287E+03  0.7561462E-02  0.1166811E+00
         -1   -1    0    0    0  501 -0.00000000000E+00  0.00000000000E+00  0.12416110226E+03  0.12416110226E+03  0.00000000000E+00 0.  1.
          1   -1    0    0  501    0  0.00000000000E+00 -0.00000000000E+00 -0.37284900741E+03  0.37284900741E+03  0.00000000000E+00 0. -1.
         25    2    1    2    0    0 -0.14051942676E+03 -0.90057981214E+02 -0.22296181236E+03  0.30531140353E+03  0.12508770553E+03 0.  0.
         23    2    1    2    0    0  0.14051942676E+03  0.90057981214E+02 -0.25726092790E+02  0.19169870614E+03  0.90721622606E+02 0.  0.
          5    1    3    3  502    0 -0.71586885237E+02  0.49662637066E+01 -0.26892645536E+02  0.76746548438E+02  0.41800000000E+01 0. -1.
         -5    1    3    3    0  502 -0.68932541524E+02 -0.95024244921E+02 -0.19606916682E+03  0.22856485509E+03  0.41800000000E+01 0. -1.
        -11    1    4    4    0    0  0.10904636842E+03  0.89754893436E+02 -0.52198805775E+02  0.15057146704E+03  0.00000000000E+00 0. -1.
         11    1    4    4    0    0  0.31473058342E+02  0.30308777869E+00  0.26472712985E+02  0.41127239105E+02  0.00000000000E+00 0.  1.
</event>
<event>
 8    1  0.3654190E-009  0.9528252E+02  0.7561462E-02  0.1290541E+00
         -2   -1    0    0    0  501 -0.00000000000E+00  0.00000000000E+00  0.64685404701E+02  0.64685404701E+02  0.00000000000E+00 0.  1.
          2   -1    0    0  501    0  0.00000000000E+00 -0.00000000000E+00 -0.30039396416E+03  0.30039396416E+03  0.00000000000E+00 0. -1.
         25    2    1    2    0    0  0.31496631852E+02  0.80849347647E+02 -0.10997053942E+03  0.18780276755E+03  0.12509078754E+03 0.  0.
         23    2    1    2    0    0 -0.31496631852E+02 -0.80849347647E+02 -0.12573802004E+03  0.17727660131E+03  0.89934914555E+02 0.  0.
          5    1    3    3  502    0 -0.72038349311E+01  0.38206618355E+02 -0.12261295107E+03  0.12869751006E+03  0.41800000000E+01 0. -1.
         -5    1    3    3    0  502  0.38700466784E+02  0.42642729291E+02  0.12642411657E+02  0.59105257492E+02  0.41800000000E+01 0. -1.
        -11    1    4    4    0    0 -0.23406398947E+02 -0.15954819619E+02  0.71090208591E+01  0.29205375504E+02  0.00000000000E+00 0.  1.
         11    1    4    4    0    0 -0.80902329053E+01 -0.64894528028E+02 -0.13284704090E+03  0.14807122581E+03  0.00000000000E+00 0. -1.
</event>
<event>
 8    1  0.3654190E-009  0.9227341E+02  0.7561462E-02  0.1297438E+00
         -2   -1    0    0    0  501 -0.00000000000E+00  0.00000000000E+00  0.11341985890E+03  0.11341985890E+03  0.00000000000E+00 0.  1.
          2   -1    0    0  501    0  0.00000000000E+00 -0.00000000000E+00 -0.23092839046E+03  0.23092839046E+03  0.00000000000E+00 0. -1.
         25    2    1    2    0    0  0.77889516152E+02 -0.27058452255E+02  0.29231392264E+02  0.15265246966E+03  0.12509742457E+03 0.  0.
         23    2    1    2    0    0 -0.77889516152E+02  0.27058452255E+02 -0.14673992383E+03  0.19169577970E+03  0.91737288741E+02 0.  0.
          5    1    3    3  502    0  0.24120143594E+02 -0.31231129970E+02  0.72987974281E+02  0.83077563734E+02  0.41800000000E+01 0.  1.
         -5    1    3    3    0  502  0.53769372558E+02  0.41726777153E+01 -0.43756582018E+02  0.69574905925E+02  0.41800000000E+01 0.  1.
        -11    1    4    4    0    0 -0.60360864865E+00  0.12022199665E+02  0.10417019829E+02  0.15918917372E+02  0.00000000000E+00 0.  1.
         11    1    4    4    0    0 -0.77285907504E+02  0.15036252590E+02 -0.15715694366E+03  0.17577686233E+03  0.00000000000E+00 0. -1.
</event>
<event>
 8    1  0.3654190E-009  0.1869426E+03  0.7561462E-02  0.1161248E+00
          2   -1    0    0  501    0  0.00000000000E+00  0.00000000000E+00  0.29148369028E+03  0.29148369028E+03  0.00000000000E+00 0. -1.
         -2   -1    0    0    0  501 -0.00000000000E+00 -0.00000000000E+00 -0.13520130860E+03  0.13520130860E+03  0.00000000000E+00 0.  1.
         25    2    1    2    0    0 -0.39585340030E+02  0.16001492688E+03  0.56365541259E+02  0.21446028539E+03  0.12507743122E+03 0.  0.
         23    2    1    2    0    0  0.39585340030E+02 -0.16001492688E+03  0.99916840426E+02  0.21222471349E+03  0.88792894120E+02 0.  0.
          5    1    3    3  502    0 -0.74056791543E+02  0.48160182161E+02  0.36466171385E+02  0.95661202036E+02  0.41800000000E+01 0.  1.
         -5    1    3    3    0  502  0.34471451513E+02  0.11185474472E+03  0.19899369875E+02  0.11879908336E+03  0.41800000000E+01 0.  1.
        -11    1    4    4    0    0  0.41444658506E+02 -0.99544245369E+02  0.16354235985E+02  0.10906043068E+03  0.00000000000E+00 0.  1.
         11    1    4    4    0    0 -0.18593184752E+01 -0.60470681507E+02  0.83562604441E+02  0.10316428281E+03  0.00000000000E+00 0. -1.
</event>
<event>
 8    1  0.3654190E-009  0.9143297E+02  0.7561462E-02  0.1299418E+00
          1   -1    0    0  501    0  0.00000000000E+00  0.00000000000E+00  0.38638554670E+03  0.38638554670E+03  0.00000000000E+00 0. -1.
         -1   -1    0    0    0  501 -0.00000000000E+00 -0.00000000000E+00 -0.45522049031E+02  0.45522049031E+02  0.00000000000E+00 0.  1.
         25    2    1    2    0    0 -0.32880936433E+02  0.11851364180E+02  0.30053444879E+03  0.32739722277E+03  0.12508547379E+03 0.  0.
         23    2    1    2    0    0  0.32880936433E+02 -0.11851364180E+02  0.40329048880E+02  0.10451037296E+03  0.89857526451E+02 0.  0.
          5    1    3    3  502    0 -0.67367200538E+02  0.30973827917E+01  0.83440430898E+02  0.10736718026E+03  0.41800000000E+01 0. -1.
         -5    1    3    3    0  502  0.34486264105E+02  0.87539813879E+01  0.21709401789E+03  0.22003004251E+03  0.41800000000E+01 0. -1.
        -11    1    4    4    0    0  0.53495280806E+02  0.37416527138E+01  0.53284751532E+02  0.75597683691E+02  0.00000000000E+00 0. -1.
         11    1    4    4    0    0 -0.20614344373E+02 -0.15593016894E+02 -0.12955702653E+02  0.28912689273E+02  0.00000000000E+00 0.  1.
</event>
<event>
 8    1  0.3654190E-009  0.2638202E+03  0.7561462E-02  0.1104869E+00
         -1   -1    0    0    0  501 -0.00000000000E+00  0.00000000000E+00  0.96815293988E+02  0.96815293988E+02  0.00000000000E+00 0.  1.
          1   -1    0    0  501    0  0.00000000000E+00 -0.00000000000E+00 -0.75304642164E+03  0.75304642164E+03  0.00000000000E+00 0. -1.
         25    2    1    2    0    0  0.16594069290E+03 -0.18243446394E+03 -0.35799033932E+03  0.45235438653E+03  0.12509500697E+03 0.  0.
         23    2    1    2    0    0 -0.16594069290E+03  0.18243446394E+03 -0.29824078833E+03  0.39750732910E+03  0.90806727020E+02 0.  0.
          5    1    3    3  502    0 -0.73616807942E+01  0.12622875243E+02 -0.25504215839E+02  0.29689539388E+02  0.41800000000E+01 0.  1.
         -5    1    3    3    0  502  0.17330237369E+03 -0.19505733919E+03 -0.33248612348E+03  0.42266484714E+03  0.41800000000E+01 0.  1.
        -11    1    4    4    0    0 -0.93795548282E+02  0.13765265077E+03 -0.24830033108E+03  0.29899650760E+03  0.00000000000E+00 0. -1.
         11    1    4    4    0    0 -0.72145144616E+02  0.44781813178E+02 -0.49940457246E+02  0.98510821502E+02  0.00000000000E+00 0.  1.
</event>
<event>
 8    1  0.3654190E-009  0.7529035E+02  0.7561462E-02  0.1342974E+00
          1   -1    0    0  501    0  0.00000000000E+00  0.00000000000E+00  0.83517320518E+02  0.83517320518E+02  0.00000000000E+00 0. -1.
         -1   -1    0    0    0  501 -0.00000000000E+00 -0.00000000000E+00 -0.16151534051E+03  0.16151534051E+03  0.00000000000E+00 0.  1.
         25    2    1    2    0    0 -0.93964092052E+01  0.41347403895E+02 -0.49574236957E+02  0.14107700611E+03  0.12508883390E+03 0.  0.
         23    2    1    2    0    0  0.93964092052E+01 -0.41347403895E+02 -0.28423783031E+02  0.10395565492E+03  0.90559187455E+02 0.  0.
          5    1    3    3  502    0  0.18062820539E+02  0.60503492813E+02  0.17791505358E+02  0.65733919640E+02  0.41800000000E+01 0. -1.
         -5    1    3    3    0  502 -0.27459229744E+02 -0.19156088917E+02 -0.67365742314E+02  0.75343086467E+02  0.41800000000E+01 0. -1.
        -11    1    4    4    0    0  0.20510955321E+02 -0.35503221805E+02 -0.58456901560E+02  0.71402992841E+02  0.00000000000E+00 0.  1.
         11    1    4    4    0    0 -0.11114546115E+02 -0.58441820900E+01  0.30033118528E+02  0.32552662075E+02  0.00000000000E+00 0. -1.
</event>
<event>
 8    1  0.3654190E-009  0.1228974E+03  0.7561462E-02  0.1238392E+00
         -2   -1    0    0    0  501 -0.00000000000E+00  0.00000000000E+00  0.16249428121E+02  0.16249428121E+02  0.00000000000E+00 0.  1.
          2   -1    0    0  501    0  0.00000000000E+00 -0.00000000000E+00 -0.12911579041E+04  0.12911579041E+04  0.00000000000E+00 0. -1.
         25    2    1    2    0    0  0.85487840179E+02  0.39005083813E+02 -0.76025319074E+03  0.77618203451E+03  0.12507625386E+03 0.  0.
         23    2    1    2    0    0 -0.85487840179E+02 -0.39005083813E+02 -0.51465528522E+03  0.53122529769E+03  0.92199169866E+02 0.  0.
          5    1    3    3  502    0 -0.12166220125E+02  0.12851040735E+02 -0.43888821382E+03  0.43926472973E+03  0.41800000000E+01 0. -1.
         -5    1    3    3    0  502  0.97654060304E+02  0.26154043079E+02 -0.32136497692E+03  0.33691730477E+03  0.41800000000E+01 0. -1.
        -11    1    4    4    0    0 -0.17385854786E+02 -0.53971015112E+02 -0.30653393003E+03  0.31173416347E+03  0.00000000000E+00 0. -1.
         11    1    4    4    0    0 -0.68101985393E+02  0.14965931299E+02 -0.20812135519E+03  0.21949113422E+03  0.00000000000E+00 0.  1.
</event>
<event>
 8    1  0.3654190E-009  0.1894639E+03  0.7561462E-02  0.1158946E+00
         -2   -1    0    0    0  501 -0.00000000000E+00  0.00000000000E+00  0.16875601088E+03  0.16875601088E+03  0.00000000000E+00 0.  1.
          2   -1    0    0  501    0  0.00000000000E+00 -0.00000000000E+00 -0.27885602434E+03  0.27885602434E+03  0.00000000000E+00 0. -1.
         25    2    1    2    0    0  0.15554617552E+03  0.78089122961E+02 -0.12953087911E+03  0.25043521593E+03  0.12508806854E+03 0.  0.
         23    2    1    2    0    0 -0.15554617552E+03 -0.78089122961E+02  0.19430865647E+02  0.19717681930E+03  0.90601411051E+02 0.  0.
          5    1    3    3  502    0  0.16037872033E+03  0.44823506245E+02 -0.13708210584E+03  0.21573005536E+03  0.41800000000E+01 0. -1.
         -5    1    3    3    0  502 -0.48325448078E+01  0.33265616715E+02  0.75512267313E+01  0.34705160566E+02  0.41800000000E+01 0. -1.
        -11    1    4    4    0    0 -0.25967139464E+02  0.21667592426E+01  0.35363444149E+02  0.43926761315E+02  0.00000000000E+00 0.  1.
         11    1    4    4    0    0 -0.12957903606E+03 -0.80255882203E+02 -0.15932578503E+02  0.15325005798E+03  0.00000000000E+00 0. -1.
</event>
<event>
 8    1  0.3654190E-009  0.1519441E+03  0.7561462E-02  0.1198104E+00
         -2   -1    0    0    0  501 -0.00000000000E+00  0.00000000000E+00  0.18717934600E+02  0.18717934600E+02  0.00000000000E+00 0.  1.
          2   -1    0    0  501    0  0.00000000000E+00 -0.00000000000E+00 -0.22361478080E+04  0.22361478080E+04  0.00000000000E+00 0. -1.
         25    2    1    2    0    0 -0.52591285047E+02 -0.11726560889E+03 -0.17969650646E+04  0.18058922920E+04  0.12508581385E+03 0.  0.
         23    2    1    2    0    0  0.52591285047E+02  0.11726560889E+03 -0.42046480883E+03  0.44897345057E+03  0.90936447935E+02 0.  0.
          5    1    3    3  502    0 -0.59510148820E+02 -0.13124235443E+03 -0.11882988239E+04  0.11970119384E+04  0.41800000000E+01 0. -1.
         -5    1    3    3    0  502  0.69188637733E+01  0.13976745537E+02 -0.60866624070E+03  0.60888035365E+03  0.41800000000E+01 0. -1.
        -11    1    4    4    0    0  0.32008546702E+02  0.88279993607E+01 -0.19653255309E+03  0.19931764864E+03  0.00000000000E+00 0. -1.
         11    1    4    4    0    0  0.20582738345E+02  0.10843760953E+03 -0.22393225574E+03  0.24965580194E+03  0.00000000000E+00 0.  1.
</event>
<event>
 8    1  0.3654190E-009  0.1535968E+03  0.7561462E-02  0.1196122E+00
          1   -1    0    0  501    0  0.00000000000E+00  0.00000000000E+00  0.87953211579E+02  0.87953211579E+02  0.00000000000E+00 0. -1.
         -1   -1    0    0    0  501 -0.00000000000E+00 -0.00000000000E+00 -0.37832461310E+03  0.37832461310E+03  0.00000000000E+00 0.  1.
         25    2    1    2    0    0  0.91574234809E+02 -0.93930893413E+02 -0.21972754410E+03  0.28484609768E+03  0.12509297548E+03 0.  0.
         23    2    1    2    0    0 -0.91574234809E+02  0.93930893413E+02 -0.70643857427E+02  0.18143172700E+03  0.10352808194E+03 0.  0.
          5    1    3    3  502    0  0.56012592160E+02 -0.11907170216E+03 -0.19283243967E+03  0.23348940645E+03  0.41800000000E+01 0. -1.
         -5    1    3    3    0  502  0.35561642649E+02  0.25140808746E+02 -0.26895104422E+02  0.51356691231E+02  0.41800000000E+01 0. -1.
        -11    1    4    4    0    0 -0.24856870712E+02  0.33914842734E+02 -0.80833272773E+02  0.91115852443E+02  0.00000000000E+00 0.  1.
         11    1    4    4    0    0 -0.66717364097E+02  0.60016050679E+02  0.10189415346E+02  0.90315874553E+02  0.00000000000E+00 0. -1.
</event>
<event>
 8    1  0.3654190E-009  0.1040320E+03  0.7561462E-02  0.1272039E+00
          1   -1    0    0  501    0  0.00000000000E+00  0.00000000000E+00  0.36997394305E+03  0.36997394305E+03  0.00000000000E+00 0. -1.
         -1   -1    0    0    0  501 -0.00000000000E+00 -0.00000000000E+00 -0.44290384463E+02  0.44290384463E+02  0.00000000000E+00 0.  1.
         25    2    1    2    0    0  0.61264287642E+02 -0.27295921972E+02  0.19769459853E+03  0.24337113483E+03  0.12509186497E+03 0.  0.
         23    2    1    2    0    0 -0.61264287642E+02  0.27295921972E+02  0.12798896006E+03  0.17089319269E+03  0.91241049504E+02 0.  0.
          5    1    3    3  502    0  0.38877595281E+02 -0.58492108792E+02  0.19180254788E+03  0.20429998527E+03  0.41800000000E+01 0. -1.
         -5    1    3    3    0  502  0.22386692361E+02  0.31196186820E+02  0.58920506484E+01  0.39071149558E+02  0.41800000000E+01 0. -1.
        -11    1    4    4    0    0 -0.73092355763E+02  0.42961716865E+01  0.49829799459E+02  0.88566124880E+02  0.00000000000E+00 0.  1.
         11    1    4    4    0    0  0.11828068121E+02  0.22999750286E+02  0.78159160600E+02  0.82327067811E+02  0.00000000000E+00 0. -1.
</event>
<event>
 8    1  0.3654190E-009  0.1287160E+03  0.7561462E-02  0.1229373E+00
          2   -1    0    0  501    0  0.00000000000E+00  0.00000000000E+00  0.44797736913E+03  0.44797736913E+03  0.00000000000E+00 0. -1.
         -2   -1    0    0    0  501 -0.00000000000E+00 -0.00000000000E+00 -0.50017037786E+02  0.50017037786E+02  0.00000000000E+00 0.  1.
         25    2    1    2    0    0  0.69577221990E+01  0.98636298865E+02  0.26341373901E+03  0.30791591977E+03  0.12509151209E+03 0.  0.
         23    2    1    2    0    0 -0.69577221990E+01 -0.98636298865E+02  0.13454659234E+03  0.19007848715E+03  0.90826848538E+02 0.  0.
          5    1    3    3  502    0  0.52100272975E+02  0.31556087273E+02  0.18651401244E+03  0.19625283265E+03  0.41800000000E+01 0.  1.
         -5    1    3    3    0  502 -0.45142550776E+02  0.67080211592E+02  0.76899726572E+02  0.11166308712E+03  0.41800000000E+01 0.  1.
        -11    1    4    4    0    0 -0.30316431844E+02 -0.28958370030E+02  0.64770984183E+01  0.42421999464E+02  0.00000000000E+00 0.  1.
         11    1    4    4    0    0  0.23358709645E+02 -0.69677928835E+02  0.12806949392E+03  0.14765648768E+03  0.00000000000E+00 0. -1.
</event>
<event>
 8    1  0.3654190E-009  0.1192506E+03  0.7561462E-02  0.1244338E+00
          4   -1    0    0  501    0  0.00000000000E+00  0.00000000000E+00  0.32500973569E+03  0.32500973569E+03  0.00000000000E+00 0. -1.
         -4   -1    0    0    0  501 -0.00000000000E+00 -0.00000000000E+00 -0.71107990634E+02  0.71107990634E+02  0.00000000000E+00 0.  1.
         25    2    1    2    0    0  0.10247279447E+03  0.16899810042E+02  0.13137903417E+03  0.20903149204E+03  0.12508971525E+03 0.  0.
         23    2    1    2    0    0 -0.10247279447E+03 -0.16899810042E+02  0.12252271089E+03  0.18708623428E+03  0.95933139154E+02 0.  0.
          5    1    3    3  502    0  0.85965566012E+02  0.66527403051E+01  0.10998728455E+02  0.87021732464E+02  0.41800000000E+01 0. -1.
         -5    1    3    3    0  502  0.16507228457E+02  0.10247069737E+02  0.12038030571E+03  0.12200975958E+03  0.41800000000E+01 0. -1.
        -11    1    4    4    0    0 -0.77172961741E+01 -0.34995026655E+02  0.68808391682E+01  0.36490471338E+02  0.00000000000E+00 0. -1.
         11    1    4    4    0    0 -0.94755498295E+02  0.18095216613E+02  0.11564187172E+03  0.15059576294E+03  0.00000000000E+00 0.  1.
</event>
<event>
 8    1  0.3654190E-009  0.1185271E+03  0.7561462E-02  0.1245547E+00
          2   -1    0    0  501    0  0.00000000000E+00  0.00000000000E+00  0.17730670162E+03  0.17730670162E+03  0.00000000000E+00 0. -1.
         -2   -1    0    0    0  501 -0.00000000000E+00 -0.00000000000E+00 -0.16582112890E+03  0.16582112890E+03  0.00000000000E+00 0.  1.
         25    2    1    2    0    0  0.74877409843E+01 -0.11234256043E+03  0.76679229180E+02  0.18494274931E+03  0.12508876522E+03 0.  0.
         23    2    1    2    0    0 -0.74877409843E+01  0.11234256043E+03 -0.65193656453E+02  0.15818508121E+03  0.89974384839E+02 0.  0.
          5    1    3    3  502    0  0.12063559710E+02 -0.19309110260E+02 -0.33428300309E+02  0.40660728885E+02  0.41800000000E+01 0. -1.
         -5    1    3    3    0  502 -0.45758187260E+01 -0.93033450169E+02  0.11010752949E+03  0.14428202042E+03  0.41800000000E+01 0. -1.
        -11    1    4    4    0    0 -0.24143354378E+02  0.87403282852E+02 -0.83319190835E+02  0.12314350562E+03  0.00000000000E+00 0.  1.
         11    1    4    4    0    0  0.16655613393E+02  0.24939277578E+02  0.18125534382E+02  0.35041575596E+02  0.00000000000E+00 0. -1.
</event>
<event>
 8    1  0.3654190E-009  0.9751719E+02  0.7561462E-02  0.1285605E+00
         -1   -1    0    0    0  501 -0.00000000000E+00  0.00000000000E+00  0.21804372435E+02  0.21804372435E+02  0.00000000000E+00 0.  1.
          1   -1    0    0  501    0  0.00000000000E+00 -0.00000000000E+00 -0.69326716570E+03  0.69326716570E+03  0.00000000000E+00 0. -1.
         25    2    1    2    0    0 -0.27141957263E+02  0.53888837985E+02 -0.45024809450E+03  0.47118096932E+03  0.12508983388E+03 0.  0.
         23    2    1    2    0    0  0.27141957263E+02 -0.53888837985E+02 -0.22121469876E+03  0.24389056882E+03  0.83102189538E+02 0.  0.
          5    1    3    3  502    0  0.24855712268E+02  0.37551743347E+01 -0.14201917269E+02  0.29173183247E+02  0.41800000000E+01 0.  1.
         -5    1    3    3    0  502 -0.51997669531E+02  0.50133663650E+02 -0.43604617724E+03  0.44200778607E+03  0.41800000000E+01 0.  1.
        -11    1    4    4    0    0 -0.13708892000E+02  0.12955481929E+02 -0.82063855132E+02  0.84203649274E+02  0.00000000000E+00 0. -1.
         11    1    4    4    0    0  0.40850849262E+02 -0.66844319914E+02 -0.13915084363E+03  0.15968691954E+03  0.00000000000E+00 0.  1.
</event>
<event>
 8    1  0.3654190E-009  0.6492347E+02  0.7561462E-02  0.1378260E+00
          2   -1    0    0  501    0  0.00000000000E+00  0.00000000000E+00  0.85178086752E+03  0.85178086752E+03  0.00000000000E+00 0.  1.
         -2   -1    0    0    0  501 -0.00000000000E+00 -0.00000000000E+00 -0.14193416229E+02  0.14193416229E+02  0.00000000000E+00 0. -1.
         25    2    1    2    0    0 -0.14569027422E+02  0.61249425961E+01  0.43411522681E+03  0.45205494643E+03  0.12509145837E+03 0.  0.
         23    2    1    2    0    0  0.14569027422E+02 -0.61249425961E+01  0.40347222448E+03  0.41391933732E+03  0.91047297602E+02 0.  0.
          5    1    3    3  502    0  0.78322415161E+01  0.12693266747E+02  0.42701974346E+03  0.42730059295E+03  0.41800000000E+01 0. -1.
         -5    1    3    3    0  502 -0.22401268939E+02 -0.65683241511E+01  0.70954833513E+01  0.24754353480E+02  0.41800000000E+01 0. -1.
        -11    1    4    4    0    0 -0.28500490444E+02  0.24670390873E+02  0.12934724995E+03  0.13472793776E+03  0.00000000000E+00 0.  1.
         11    1    4    4    0    0  0.43069517867E+02 -0.30795333469E+02  0.27412497453E+03  0.27919139957E+03  0.00000000000E+00 0. -1.
</event>
<event>
 8    1  0.3654190E-009  0.7137806E+02  0.7561462E-02  0.1355469E+00
          2   -1    0    0  501    0  0.00000000000E+00  0.00000000000E+00  0.23721110272E+03  0.23721110272E+03  0.00000000000E+00 0. -1.
         -2   -1    0    0    0  501 -0.00000000000E+00 -0.00000000000E+00 -0.73497893579E+02  0.73497893579E+02  0.00000000000E+00 0.  1.
         25    2    1    2    0    0  0.13709398059E+01  0.68051033557E+02  0.12797695006E+03  0.19146842519E+03  0.12509690425E+03 0.  0.
         23    2    1    2    0    0 -0.13709398059E+01 -0.68051033557E+02  0.35736259079E+02  0.11924057111E+03  0.91150485146E+02 0.  0.
          5    1    3    3  502    0  0.71261015877E+01  0.22380430269E+02 -0.23264172725E+02  0.33322051489E+02  0.41800000000E+01 0. -1.
         -5    1    3    3    0  502 -0.57551617817E+01  0.45670603288E+02  0.15124112279E+03  0.15814637370E+03  0.41800000000E+01 0. -1.
        -11    1    4    4    0    0 -0.11583962802E+02 -0.16717580484E+02 -0.29357391048E+02  0.35714452265E+02  0.00000000000E+00 0.  1.
         11    1    4    4    0    0  0.10213022996E+02 -0.51333453073E+02  0.65093650127E+02  0.83526118849E+02  0.00000000000E+00 0. -1.
</event>
<event>
 8    1  0.3654190E-009  0.1377950E+03  0.7561462E-02  0.1216327E+00
          1   -1    0    0  501    0  0.00000000000E+00  0.00000000000E+00  0.44830484630E+03  0.44830484630E+03  0.00000000000E+00 0. -1.
         -1   -1    0    0    0  501 -0.00000000000E+00 -0.00000000000E+00 -0.45879311431E+02  0.45879311431E+02  0.00000000000E+00 0.  1.
         25    2    1    2    0    0  0.42644975807E+02  0.85739070142E+02  0.23627486793E+03  0.28397560062E+03  0.12508615599E+03 0.  0.
         23    2    1    2    0    0 -0.42644975807E+02 -0.85739070142E+02  0.16615066694E+03  0.21020855711E+03  0.86091876784E+02 0.  0.
          5    1    3    3  502    0 -0.40220104888E+02  0.51787881263E+02  0.77168197075E+02  0.10135109532E+03  0.41800000000E+01 0.  1.
         -5    1    3    3    0  502  0.82865080695E+02  0.33951188880E+02  0.15910667085E+03  0.18262450530E+03  0.41800000000E+01 0.  1.
        -11    1    4    4    0    0  0.20508070700E+02 -0.14993842077E+02  0.72937905841E+02  0.77235577116E+02  0.00000000000E+00 0. -1.
         11    1    4    4    0    0 -0.63153046507E+02 -0.70745228066E+02  0.93212761098E+02  0.13297297999E+03  0.00000000000E+00 0.  1.
</event>
<event>
 8    1  0.3654190E-009  0.1223010E+03  0.7561462E-02  0.1239349E+00
         -2   -1    0    0    0  501 -0.00000000000E+00  0.00000000000E+00  0.23479239641E+02  0.23479239641E+02  0.00000000000E+00 0.  1.
          2   -1    0    0  501    0  0.00000000000E+00 -0.00000000000E+00 -0.10021788402E+04  0.10021788402E+04  0.00000000000E+00 0. -1.
         25    2    1    2    0    0 -0.39328443813E+02  0.58314095832E+02 -0.80279053734E+03  0.81551676803E+03  0.12509073438E+03 0.  0.
         23    2    1    2    0    0  0.39328443813E+02 -0.58314095832E+02 -0.17590906322E+03  0.21014131182E+03  0.90929160021E+02 0.  0.
          5    1    3    3  502    0 -0.67611763885E+02 -0.93454700498E+01 -0.32530750726E+03  0.33241711013E+03  0.41800000000E+01 0. -1.
         -5    1    3    3    0  502  0.28283320072E+02  0.67659565882E+02 -0.47748303008E+03  0.48309965790E+03  0.41800000000E+01 0. -1.
        -11    1    4    4    0    0  0.42265956855E+02  0.20654539037E+01 -0.29052504192E+02  0.51329574405E+02  0.00000000000E+00 0.  1.
         11    1    4    4    0    0 -0.29375130418E+01 -0.60379549736E+02 -0.14685655903E+03  0.15881173741E+03  0.00000000000E+00 0. -1.
</event>
<event>
 8    1  0.3654190E-009  0.1403364E+03  0.7561462E-02  0.1212877E+00
         -1   -1    0    0    0  501 -0.00000000000E+00  0.00000000000E+00  0.14324739219E+02  0.14324739219E+02  0.00000000000E+00 0.  1.
          1   -1    0    0  501    0  0.00000000000E+00 -0.00000000000E+00 -0.15691216830E+04  0.15691216830E+04  0.00000000000E+00 0. -1.
         25    2    1    2    0    0  0.24530013610E+01  0.97185670732E+02 -0.10235327549E+04  0.10357210384E+04  0.12509075598E+03 0.  0.
         23    2    1    2    0    0 -0.24530013610E+01 -0.97185670732E+02 -0.53126418890E+03  0.54772538383E+03  0.91161317864E+02 0.  0.
          5    1    3    3  502    0  0.59024879859E+02  0.34431581144E+02 -0.32840731744E+03  0.33546729911E+03  0.41800000000E+01 0.  1.
         -5    1    3    3    0  502 -0.56571878498E+02  0.62754089588E+02 -0.69512543746E+03  0.70025373930E+03  0.41800000000E+01 0.  1.
        -11    1    4    4    0    0 -0.17644501603E+01 -0.11238754975E+03 -0.50512013933E+03  0.51747505233E+03  0.00000000000E+00 0. -1.
         11    1    4    4    0    0 -0.68855120067E+00  0.15201879013E+02 -0.26144049563E+02  0.30250331499E+02  0.00000000000E+00 0.  1.
</event>
<event>
 8    1  0.3654190E-009  0.1836118E+03  0.7561462E-02  0.1164353E+00
          2   -1    0    0  501    0  0.00000000000E+00  0.00000000000E+00  0.35057286584E+03  0.35057286584E+03  0.00000000000E+00 0. -1.
         -2   -1    0    0    0  501 -0.00000000000E+00 -0.00000000000E+00 -0.16208814656E+03  0.16208814656E+03  0.00000000000E+00 0.  1.
         25    2    1    2    0    0  0.14044824050E+03  0.10931779316E+03 -0.26669828363E+02  0.21916809143E+03  0.12508910582E+03 0.  0.
         23    2    1    2    0    0 -0.14044824050E+03 -0.10931779316E+03  0.21515454764E+03  0.29349292097E+03  0.90390968187E+02 0.  0.
          5    1    3    3  502    0  0.11085084484E+03  0.11025241456E+03 -0.66003213563E+02  0.16975688887E+03  0.41800000000E+01 0. -1.
         -5    1    3    3    0  502  0.29597395661E+02 -0.93462139920E+00  0.39333385200E+02  0.49411202559E+02  0.41800000000E+01 0. -1.
        -11    1    4    4    0    0 -0.11827939877E+03 -0.10535553879E+03  0.21937263471E+03  0.27058114972E+03  0.00000000000E+00 0. -1.
         11    1    4    4    0    0 -0.22168841726E+02 -0.39622543732E+01 -0.42180870685E+01  0.22911771248E+02  0.00000000000E+00 0.  1.
</event>
<event>
 8    1  0.3654190E-009  0.1412968E+03  0.7561462E-02  0.1211595E+00
          2   -1    0    0  501    0  0.00000000000E+00  0.00000000000E+00  0.33122220989E+03  0.33122220989E+03  0.00000000000E+00 0.  1.
         -2   -1    0    0    0  501 -0.00000000000E+00 -0.00000000000E+00 -0.10115083946E+03  0.10115083946E+03  0.00000000000E+00 0. -1.
         25    2    1    2    0    0  0.11862224844E+03 -0.49308417457E+01  0.22464241793E+03  0.28321044007E+03  0.12509351066E+03 0.  0.
         23    2    1    2    0    0 -0.11862224844E+03  0.49308417457E+01  0.54289524968E+01  0.14916260928E+03  0.90135783440E+02 0.  0.
          5    1    3    3  502    0 -0.14520517900E+01 -0.19695294234E+02 -0.73929005620E+01  0.21497452130E+02  0.41800000000E+01 0. -1.
         -5    1    3    3    0  502  0.12007430023E+03  0.14764452489E+02  0.23203531849E+03  0.26171298794E+03  0.41800000000E+01 0. -1.
        -11    1    4    4    0    0 -0.35143984885E+02 -0.34310214718E+02  0.24628702703E+02  0.54944185356E+02  0.00000000000E+00 0.  1.
         11    1    4    4    0    0 -0.83478263552E+02  0.39241056464E+02 -0.19199750207E+02  0.94218423920E+02  0.00000000000E+00 0. -1.
</event>
<event>
 8    1  0.3654190E-009  0.1017928E+03  0.7561462E-02  0.1276570E+00
          2   -1    0    0  501    0  0.00000000000E+00  0.00000000000E+00  0.41402674660E+03  0.41402674660E+03  0.00000000000E+00 0. -1.
         -2   -1    0    0    0  501 -0.00000000000E+00 -0.00000000000E+00 -0.31842866526E+02  0.31842866526E+02  0.00000000000E+00 0.  1.
         25    2    1    2    0    0  0.14136624966E+02  0.48982439615E+01  0.15375756062E+03  0.19877897240E+03  0.12509138844E+03 0.  0.
         23    2    1    2    0    0 -0.14136624966E+02 -0.48982439615E+01  0.22842631945E+03  0.24709064073E+03  0.93012710724E+02 0.  0.
          5    1    3    3  502    0 -0.48555648624E+02 -0.83643959916E+01  0.26178394378E+02  0.55949931777E+02  0.41800000000E+01 0.  1.
         -5    1    3    3    0  502  0.62692273590E+02  0.13262639953E+02  0.12757916624E+03  0.14282904062E+03  0.41800000000E+01 0.  1.
        -11    1    4    4    0    0 -0.65830836948E+01  0.41952620549E+02  0.14522961670E+03  0.15131094121E+03  0.00000000000E+00 0. -1.
         11    1    4    4    0    0 -0.75535412708E+01 -0.46850864511E+02  0.83196702751E+02  0.95779699518E+02  0.00000000000E+00 0.  1.
</event>
<event>
 8    1  0.3654190E-009  0.1104970E+03  0.7561462E-02  0.1259652E+00
          2   -1    0    0  501    0  0.00000000000E+00  0.00000000000E+00  0.91960592642E+03  0.91960592642E+03  0.00000000000E+00 0. -1.
         -2   -1    0    0    0  501 -0.00000000000E+00 -0.00000000000E+00 -0.21882569167E+02  0.21882569167E+02  0.00000000000E+00 0.  1.
         25    2    1    2    0    0  0.88266314969E+02  0.15452724545E+02  0.52859485072E+03  0.55053631532E+03  0.12509192312E+03 0.  0.
         23    2    1    2    0    0 -0.88266314969E+02 -0.15452724545E+02  0.36912850653E+03  0.39095218026E+03  0.92509587947E+02 0.  0.
          5    1    3    3  502    0  0.43042583027E+02 -0.25229619409E+02  0.60693380472E+02  0.78678818511E+02  0.41800000000E+01 0. -1.
         -5    1    3    3    0  502  0.45223731942E+02  0.40682343954E+02  0.46790147024E+03  0.47185749681E+03  0.41800000000E+01 0. -1.
        -11    1    4    4    0    0 -0.53662916249E+02  0.22859140716E+02  0.29441595360E+03  0.30013830584E+03  0.00000000000E+00 0.  1.
         11    1    4    4    0    0 -0.34603398721E+02 -0.38311865262E+02  0.74712552932E+02  0.90813874427E+02  0.00000000000E+00 0. -1.
</event>
<event>
 8    1  0.3654190E-009  0.9883330E+02  0.7561462E-02  0.1282769E+00
          2   -1    0    0  501    0  0.00000000000E+00  0.00000000000E+00  0.37896737500E+03  0.37896737500E+03  0.00000000000E+00 0. -1.
         -2   -1    0    0    0  501 -0.00000000000E+00 -0.00000000000E+00 -0.53715500871E+02  0.53715500871E+02  0.00000000000E+00 0.  1.
         25    2    1    2    0    0 -0.37620837377E+02  0.64074787498E+02  0.92379745630E+02  0.17234252217E+03  0.12508805598E+03 0.  0.
         23    2    1    2    0    0  0.37620837377E+02 -0.64074787498E+02  0.23287212850E+03  0.26034035370E+03  0.89592219161E+02 0.  0.
          5    1    3    3  502    0 -0.15058795577E+02  0.60477094684E+02 -0.13533032386E+02  0.63912922568E+02  0.41800000000E+01 0. -1.
         -5    1    3    3    0  502 -0.22562041800E+02  0.35976928141E+01  0.10591277802E+03  0.10842959961E+03  0.41800000000E+01 0. -1.
        -11    1    4    4    0    0  0.44522034432E+02  0.29290272651E+01  0.59713045636E+02  0.74541522454E+02  0.00000000000E+00 0.  1.
         11    1    4    4    0    0 -0.69011970551E+01 -0.67003814763E+02  0.17315908287E+03  0.18579883125E+03  0.00000000000E+00 0. -1.
</event>
<event>
 8    1  0.3654190E-009  0.1115885E+03  0.7561462E-02  0.1257656E+00
         -2   -1    0    0    0  501 -0.00000000000E+00  0.00000000000E+00  0.40521487251E+03  0.40521487251E+03  0.00000000000E+00 0.  1.
          2   -1    0    0  501    0  0.00000000000E+00 -0.00000000000E+00 -0.38688807001E+02  0.38688807001E+02  0.00000000000E+00 0. -1.
         25    2    1    2    0    0  0.51297971017E+02  0.30627098974E+02  0.19222987675E+03  0.23699956617E+03  0.12508784046E+03 0.  0.
         23    2    1    2    0    0 -0.51297971017E+02 -0.30627098974E+02  0.17429618877E+03  0.20690411334E+03  0.94131023989E+02 0.  0.
          5    1    3    3  502    0  0.69511565758E+02 -0.70086925109E+01  0.43403143266E+02  0.82354628226E+02  0.41800000000E+01 0. -1.
         -5    1    3    3    0  502 -0.18213594740E+02  0.37635791485E+02  0.14882673348E+03  0.15464493795E+03  0.41800000000E+01 0. -1.
        -11    1    4    4    0    0 -0.49982960849E+02  0.24750346396E+02  0.95306449024E+02  0.11042733017E+03  0.00000000000E+00 0.  1.
         11    1    4    4    0    0 -0.13150101685E+01 -0.55377445370E+02  0.78989739742E+02  0.96476783175E+02  0.00000000000E+00 0. -1.
</event>
<event>
 8    1  0.3654190E-009  0.1481212E+03  0.7561462E-02  0.1202801E+00
         -2   -1    0    0    0  501 -0.00000000000E+00  0.00000000000E+00  0.16828067752E+04  0.16828067752E+04  0.00000000000E+00 0.  1.
          2   -1    0    0  501    0  0.00000000000E+00 -0.00000000000E+00 -0.62331098180E+02  0.62331098180E+02  0.00000000000E+00 0. -1.
         25    2    1    2    0    0  0.77567936052E+02 -0.93088282743E+02  0.15767808395E+04  0.15863693661E+04  0.12509091435E+03 0.  0.
         23    2    1    2    0    0 -0.77567936052E+02  0.93088282743E+02  0.43694837498E+02  0.15876850724E+03  0.92822340953E+02 0.  0.
          5    1    3    3  502    0  0.30257296788E+02 -0.11663771044E+03  0.10340456530E+04  0.10410512688E+04  0.41800000000E+01 0. -1.
         -5    1    3    3    0  502  0.47310639264E+02  0.23549427692E+02  0.54273518653E+03  0.54531809729E+03  0.41800000000E+01 0. -1.
        -11    1    4    4    0    0 -0.38961842684E+02  0.32117009340E+02 -0.27414303140E+02  0.57454951840E+02  0.00000000000E+00 0. -1.
         11    1    4    4    0    0 -0.38606093368E+02  0.60971273403E+02  0.71109140639E+02  0.10131355540E+03  0.00000000000E+00 0.  1.
</event>
<event>
 8    1  0.3654190E-009  0.4161583E+02  0.7561462E-02  0.1496647E+00
         -2   -1    0    0    0  501 -0.00000000000E+00  0.00000000000E+00  0.41806232978E+02  0.41806232978E+02  0.00000000000E+00 0.  1.
          2   -1    0    0  501    0  0.00000000000E+00 -0.00000000000E+00 -0.29706628756E+03  0.29706628756E+03  0.00000000000E+00 0. -1.
         25    2    1    2    0    0 -0.72831299876E+01  0.10295130351E+02 -0.18002075129E+03  0.21957405828E+03  0.12508502103E+03 0.  0.
         23    2    1    2    0    0  0.72831299876E+01 -0.10295130351E+02 -0.75239303295E+02  0.11929846225E+03  0.91717700824E+02 0.  0.
          5    1    3    3  502    0 -0.98183719869E+00 -0.88827501177E+01 -0.19426588304E+03  0.19451625373E+03  0.41800000000E+01 0.  1.
         -5    1    3    3    0  502 -0.63012927889E+01  0.19177880468E+02  0.14245131754E+02  0.25057804548E+02  0.41800000000E+01 0.  1.
        -11    1    4    4    0    0 -0.22006253865E+02 -0.78303763305E+01  0.12692857264E+02  0.26583803869E+02  0.00000000000E+00 0.  1.
         11    1    4    4    0    0  0.29289383852E+02 -0.24647540201E+01 -0.87932160559E+02  0.92714658384E+02  0.00000000000E+00 0. -1.
</event>
<event>
 8    1  0.3654190E-009  0.8238911E+02  0.7561462E-02  0.1322405E+00
          1   -1    0    0  501    0  0.00000000000E+00  0.00000000000E+00  0.40558790109E+02  0.40558790109E+02  0.00000000000E+00 0. -1.
         -1   -1    0    0    0  501 -0.00000000000E+00 -0.00000000000E+00 -0.41151403347E+03  0.41151403347E+03  0.00000000000E+00 0.  1.
         25    2    1    2    0    0  0.29895688761E+02  0.46410491315E+02 -0.27900053473E+03  0.31070363645E+03  0.12509102851E+03 0.  0.
         23    2    1    2    0    0 -0.29895688761E+02 -0.46410491315E+02 -0.91954708625E+02  0.14136918712E+03  0.92097191697E+02 0.  0.
          5    1    3    3  502    0  0.42517443565E+02  0.97707519844E+01 -0.26604325491E+03  0.26962879388E+03  0.41800000000E+01 0.  1.
         -5    1    3    3    0  502 -0.12621754804E+02  0.36639739331E+02 -0.12957279819E+02  0.41074842579E+02  0.41800000000E+01 0.  1.
        -11    1    4    4    0    0 -0.20162054666E+01 -0.53234503049E+02 -0.98451603129E+02  0.11194058941E+03  0.00000000000E+00 0.  1.
         11    1    4    4    0    0 -0.27879483294E+02  0.68240117340E+01  0.64968945042E+01  0.29428597709E+02  0.00000000000E+00 0. -1.
</event>
<event>
 8    1  0.3654190E-009  0.3646837E+03  0.7561462E-02  0.1056745E+00
         -2   -1    0    0    0  501 -0.00000000000E+00  0.00000000000E+00  0.53514203431E+02  0.53514203431E+02  0.00000000000E+00 0. -1.
          2   -1    0    0  501    0  0.00000000000E+00 -0.00000000000E+00 -0.26929106640E+04  0.26929106640E+04  0.00000000000E+00 0.  1.
         25    2    1    2    0    0 -0.34993050150E+03  0.29726901942E+02 -0.99663026757E+03  0.10640738873E+04  0.12508518265E+03 0.  0.
         23    2    1    2    0    0  0.34993050150E+03 -0.29726901942E+02 -0.16427661930E+04  0.16823509801E+04  0.91044004514E+02 0.  0.
          5    1    3    3  502    0  0.11224723689E+01  0.20578633995E+02 -0.43939266559E+02  0.48712130595E+02  0.41800000000E+01 0. -1.
         -5    1    3    3    0  502 -0.35105297386E+03  0.91482679465E+01 -0.95269100101E+03  0.10153617568E+04  0.41800000000E+01 0. -1.
        -11    1    4    4    0    0  0.25527572368E+03 -0.50527659362E+02 -0.13175084900E+04  0.13429621591E+04  0.00000000000E+00 0.  1.
         11    1    4    4    0    0  0.94654777816E+02  0.20800757420E+02 -0.32525770299E+03  0.33938882101E+03  0.00000000000E+00 0. -1.
</event>
<event>
 8    1  0.3654190E-009  0.8165029E+02  0.7561462E-02  0.1324432E+00
          1   -1    0    0  501    0  0.00000000000E+00  0.00000000000E+00  0.10223669650E+04  0.10223669650E+04  0.00000000000E+00 0. -1.
         -1   -1    0    0    0  501 -0.00000000000E+00 -0.00000000000E+00 -0.15837723116E+02  0.15837723116E+02  0.00000000000E+00 0.  1.
         25    2    1    2    0    0  0.55030599256E+02 -0.34325769229E+01  0.40950107931E+03  0.43172113499E+03  0.12510737390E+03 0.  0.
         23    2    1    2    0    0 -0.55030599256E+02  0.34325769229E+01  0.59702816254E+03  0.60648355309E+03  0.91320993547E+02 0.  0.
          5    1    3    3  502    0  0.11087221379E+02 -0.40135102309E+01 -0.60047552922E+01  0.13876751364E+02  0.41800000000E+01 0. -1.
         -5    1    3    3    0  502  0.43943377877E+02  0.58093330799E+00  0.41550583460E+03  0.41784438363E+03  0.41800000000E+01 0. -1.
        -11    1    4    4    0    0 -0.23903484495E+02 -0.43904932867E+02  0.28714421554E+03  0.29146323991E+03  0.00000000000E+00 0. -1.
         11    1    4    4    0    0 -0.31127114761E+02  0.47337509790E+02  0.30988394700E+03  0.31502031318E+03  0.00000000000E+00 0.  1.
</event>
<event>
 8    1  0.3654190E-009  0.1042705E+03  0.7561462E-02  0.1271564E+00
         -1   -1    0    0    0  501 -0.00000000000E+00  0.00000000000E+00  0.24193647062E+03  0.24193647062E+03  0.00000000000E+00 0.  1.
          1   -1    0    0  501    0  0.00000000000E+00 -0.00000000000E+00 -0.62561224106E+02  0.62561224106E+02  0.00000000000E+00 0. -1.
         25    2    1    2    0    0 -0.54998388748E+01 -0.46193335426E+02  0.14490096353E+03  0.19699358180E+03  0.12508440979E+03 0.  0.
         23    2    1    2    0    0  0.54998388748E+01  0.46193335426E+02  0.34474282983E+02  0.10750411292E+03  0.90579167821E+02 0.  0.
          5    1    3    3  502    0 -0.53084102814E+02 -0.27176337089E+02  0.13059272312E+03  0.14362592732E+03  0.41800000000E+01 0.  1.
         -5    1    3    3    0  502  0.47584263939E+02 -0.19016998337E+02  0.14308240412E+02  0.53367654474E+02  0.41800000000E+01 0.  1.
        -11    1    4    4    0    0  0.26830431345E+02 -0.16243693678E+02 -0.31972474420E+01  0.31527004642E+02  0.00000000000E+00 0. -1.
         11    1    4    4    0    0 -0.21330592471E+02  0.62437029104E+02  0.37671530425E+02  0.75977108283E+02  0.00000000000E+00 0.  1.
</event>
<event>
 8    1  0.3654190E-009  0.1255517E+03  0.7561462E-02  0.1234210E+00
          3   -1    0    0  501    0  0.00000000000E+00  0.00000000000E+00  0.82314657964E+03  0.82314657964E+03  0.00000000000E+00 0. -1.
         -3   -1    0    0    0  501 -0.00000000000E+00 -0.00000000000E+00 -0.35102510822E+02  0.35102510822E+02  0.00000000000E+00 0.  1.
         25    2    1    2    0    0 -0.89841042489E+02  0.64514728722E+02  0.23451487457E+03  0.28788691786E+03  0.12509231768E+03 0.  0.
         23    2    1    2    0    0  0.89841042489E+02 -0.64514728722E+02  0.55352919425E+03  0.57036217260E+03  0.81761090461E+02 0.  0.
          5    1    3    3  502    0 -0.50756338428E+02  0.50840131381E+02  0.23550798376E+03  0.24625679212E+03  0.41800000000E+01 0.  1.
         -5    1    3    3    0  502 -0.39084704061E+02  0.13674597340E+02 -0.99310918304E+00  0.41630125748E+02  0.41800000000E+01 0.  1.
        -11    1    4    4    0    0  0.99267278919E+02 -0.32967150298E+02  0.42513200467E+03  0.43781051502E+03  0.00000000000E+00 0.  1.
         11    1    4    4    0    0 -0.94262364308E+01 -0.31547578424E+02  0.12839718957E+03  0.13255165758E+03  0.00000000000E+00 0. -1.
</event>
<event>
 8    1  0.3654190E-009  0.9282627E+02  0.7561462E-02  0.1296148E+00
          2   -1    0    0  501    0  0.00000000000E+00  0.00000000000E+00  0.59429036305E+03  0.59429036305E+03  0.00000000000E+00 0. -1.
         -2   -1    0    0    0  501 -0.00000000000E+00 -0.00000000000E+00 -0.22294192029E+02  0.22294192029E+02  0.00000000000E+00 0.  1.
         25    2    1    2    0    0 -0.53064541707E+01  0.24945238721E+02  0.24586758546E+03  0.27703765023E+03  0.12509423117E+03 0.  0.
         23    2    1    2    0    0  0.53064541707E+01 -0.24945238721E+02  0.32612858556E+03  0.33954690485E+03  0.91004521238E+02 0.  0.
          5    1    3    3  502    0 -0.46644256615E+02 -0.10869404210E+02  0.35840329562E+02  0.59965258660E+02  0.41800000000E+01 0. -1.
         -5    1    3    3    0  502  0.41337802444E+02  0.35814642931E+02  0.21002725590E+03  0.21707239157E+03  0.41800000000E+01 0. -1.
        -11    1    4    4    0    0  0.19659810915E+02  0.24398417447E+02  0.52539762856E+02  0.61173667702E+02  0.00000000000E+00 0.  1.
         11    1    4    4    0    0 -0.14353356745E+02 -0.49343656168E+02  0.27358882270E+03  0.27837323715E+03  0.00000000000E+00 0. -1.
</event>
<event>
 8    1  0.3654190E-009  0.1117956E+03  0.7561462E-02  0.1257280E+00
          1   -1    0    0  501    0  0.00000000000E+00  0.00000000000E+00  0.46309457659E+03  0.46309457659E+03  0.00000000000E+00 0. -1.
         -1   -1    0    0    0  501 -0.00000000000E+00 -0.00000000000E+00 -0.56107542953E+02  0.56107542953E+02  0.00000000000E+00 0.  1.
         25    2    1    2    0    0  0.34054125596E+02  0.11932063686E+02  0.34594165154E+02  0.13470922048E+03  0.12509100769E+03 0.  0.
         23    2    1    2    0    0 -0.34054125596E+02 -0.11932063686E+02  0.37239286848E+03  0.38449289907E+03  0.88635677471E+02 0.  0.
          5    1    3    3  502    0  0.57274806992E+02  0.54670497585E+02  0.32950328100E+02  0.85863049934E+02  0.41800000000E+01 0.  1.
         -5    1    3    3    0  502 -0.23220681396E+02 -0.42738433898E+02  0.16438370536E+01  0.48846170544E+02  0.41800000000E+01 0.  1.
        -11    1    4    4    0    0 -0.22386685639E+02 -0.50473292346E+02  0.22794760503E+03  0.23453960769E+03  0.00000000000E+00 0.  1.
         11    1    4    4    0    0 -0.11667439957E+02  0.38541228660E+02  0.14444526345E+03  0.14995329138E+03  0.00000000000E+00 0. -1.
</event>
<event>
 8    1  0.3654190E-009  0.8293452E+02  0.7561462E-02  0.1320924E+00
         -3   -1    0    0    0  501 -0.00000000000E+00  0.00000000000E+00  0.17650988982E+03  0.17650988982E+03  0.00000000000E+00 0.  1.
          3   -1    0    0  501    0  0.00000000000E+00 -0.00000000000E+00 -0.79745189004E+02  0.79745189004E+02  0.00000000000E+00 0. -1.
         25    2    1    2    0    0 -0.44833021150E+01 -0.39597225529E+02  0.86181480901E+02  0.15704645620E+03  0.12509317122E+03 0.  0.
         23    2    1    2    0    0  0.44833021150E+01  0.39597225529E+02  0.10583219917E+02  0.99208622628E+02  0.90234727197E+02 0.  0.
          5    1    3    3  502    0  0.70410983860E+01  0.33844706940E+02  0.73750762080E+02  0.81557884731E+02  0.41800000000E+01 0. -1.
         -5    1    3    3    0  502 -0.11524400501E+02 -0.73441932470E+02  0.12430718821E+02  0.75488571468E+02  0.41800000000E+01 0. -1.
        -11    1    4    4    0    0 -0.17918197572E+02  0.15546813042E+02  0.45464898886E+02  0.51281792389E+02  0.00000000000E+00 0.  1.
         11    1    4    4    0    0  0.22401499687E+02  0.24050412488E+02 -0.34881678968E+02  0.47926830238E+02  0.00000000000E+00 0. -1.
</event>
<event>
 8    1  0.3654190E-009  0.9713760E+02  0.7561462E-02  0.1286433E+00
         -2   -1    0    0    0  501 -0.00000000000E+00  0.00000000000E+00  0.47178424855E+02  0.47178424855E+02  0.00000000000E+00 0. -1.
          2   -1    0    0  501    0  0.00000000000E+00 -0.00000000000E+00 -0.30003819092E+03  0.30003819092E+03  0.00000000000E+00 0.  1.
         25    2    1    2    0    0  0.75654357875E+01 -0.25005141674E+02 -0.20400482517E+03  0.24071595734E+03  0.12507481960E+03 0.  0.
         23    2    1    2    0    0 -0.75654357875E+01  0.25005141674E+02 -0.48854940894E+02  0.10650065843E+03  0.90956539445E+02 0.  0.
          5    1    3    3  502    0  0.11693983357E+02  0.47970731520E+02 -0.11665030934E+03  0.12673873677E+03  0.41800000000E+01 0.  1.
         -5    1    3    3    0  502 -0.41285475698E+01 -0.72975873193E+02 -0.87354515830E+02  0.11397722057E+03  0.41800000000E+01 0.  1.
        -11    1    4    4    0    0  0.21567363144E+02  0.34658043789E+02 -0.61080101597E+02  0.73465025442E+02  0.00000000000E+00 0. -1.
         11    1    4    4    0    0 -0.29132798931E+02 -0.96529021147E+01  0.12225160702E+02  0.33035632989E+02  0.00000000000E+00 0.  1.
</event>
<event>
 8    1  0.3654190E-009  0.1211489E+03  0.7561462E-02  0.1241214E+00
         -1   -1    0    0    0  501 -0.00000000000E+00  0.00000000000E+00  0.16845358504E+02  0.16845358504E+02  0.00000000000E+00 0.  1.
          1   -1    0    0  501    0  0.00000000000E+00 -0.00000000000E+00 -0.97896338512E+03  0.97896338512E+03  0.00000000000E+00 0. -1.
         25    2    1    2    0    0  0.12641652927E+02 -0.65925662421E+02 -0.60381212109E+03  0.62027618237E+03  0.12508980967E+03 0.  0.
         23    2    1    2    0    0 -0.12641652927E+02  0.65925662421E+02 -0.35830590552E+03  0.37553256125E+03  0.90197440513E+02 0.  0.
          5    1    3    3  502    0  0.57002263011E+02 -0.77125744077E+02 -0.40295885474E+03  0.41423537922E+03  0.41800000000E+01 0. -1.
         -5    1    3    3    0  502 -0.44360610084E+02  0.11200081656E+02 -0.20085326635E+03  0.20604080315E+03  0.41800000000E+01 0. -1.
        -11    1    4    4    0    0  0.27008113447E+02  0.46966126760E+01 -0.36991762445E+02  0.46042229001E+02  0.00000000000E+00 0.  1.
         11    1    4    4    0    0 -0.39649766374E+02  0.61229049745E+02 -0.32131414308E+03  0.32949033225E+03  0.00000000000E+00 0. -1.
</event>
<event>
 8    1  0.3654190E-009  0.1066281E+03  0.7561462E-02  0.1266945E+00
         -1   -1    0    0    0  501 -0.00000000000E+00  0.00000000000E+00  0.32071421724E+03  0.32071421724E+03  0.00000000000E+00 0.  1.
          1   -1    0    0  501    0  0.00000000000E+00 -0.00000000000E+00 -0.47021585543E+02  0.47021585543E+02  0.00000000000E+00 0. -1.
         25    2    1    2    0    0  0.57587979930E+02  0.24259147127E+02  0.19404396665E+03  0.23917502297E+03  0.12508696562E+03 0.  0.
         23    2    1    2    0    0 -0.57587979930E+02 -0.24259147127E+02  0.79648665043E+02  0.12856077981E+03  0.79240662607E+02 0.  0.
          5    1    3    3  502    0  0.36742869180E+02 -0.35207652294E+02  0.21436100596E+02  0.55376854591E+02  0.41800000000E+01 0. -1.
         -5    1    3    3    0  502  0.20845110750E+02  0.59466799420E+02  0.17260786605E+03  0.18379816838E+03  0.41800000000E+01 0. -1.
        -11    1    4    4    0    0  0.12341172823E+02 -0.26335475457E+02  0.35259961303E+02  0.45706965391E+02  0.00000000000E+00 0.  1.
         11    1    4    4    0    0 -0.69929152752E+02  0.20763283303E+01  0.44388703740E+02  0.82853814419E+02  0.00000000000E+00 0. -1.
</event>
<event>
 8    1  0.3654190E-009  0.8887909E+02  0.7561462E-02  0.1305589E+00
         -3   -1    0    0    0  501 -0.00000000000E+00  0.00000000000E+00  0.14632762216E+03  0.14632762216E+03  0.00000000000E+00 0.  1.
          3   -1    0    0  501    0  0.00000000000E+00 -0.00000000000E+00 -0.13125862373E+03  0.13125862373E+03  0.00000000000E+00 0. -1.
         25    2    1    2    0    0 -0.42690590245E+01  0.41246279295E+02 -0.66854740551E+02  0.14776829838E+03  0.12508570363E+03 0.  0.
         23    2    1    2    0    0  0.42690590245E+01 -0.41246279295E+02  0.81923738986E+02  0.12981794750E+03  0.91769930060E+02 0.  0.
          5    1    3    3  502    0  0.37808572540E+02  0.27422785527E+02  0.19375779338E+02  0.50738452367E+02  0.41800000000E+01 0.  1.
         -5    1    3    3    0  502 -0.42077631565E+02  0.13823493768E+02 -0.86230519889E+02  0.97029846018E+02  0.41800000000E+01 0.  1.
        -11    1    4    4    0    0 -0.32314244435E+02 -0.14861756066E+01  0.81194979566E+00  0.32358590418E+02  0.00000000000E+00 0. -1.
         11    1    4    4    0    0  0.36583303460E+02 -0.39760103688E+02  0.81111789190E+02  0.97459357083E+02  0.00000000000E+00 0.  1.
</event>
<event>
 8    1  0.3654190E-009  0.1588870E+03  0.7561462E-02  0.1189959E+00
         -2   -1    0    0    0  501 -0.00000000000E+00  0.00000000000E+00  0.11253876888E+03  0.11253876888E+03  0.00000000000E+00 0.  1.
          2   -1    0    0  501    0  0.00000000000E+00 -0.00000000000E+00 -0.26882941038E+03  0.26882941038E+03  0.00000000000E+00 0. -1.
         25    2    1    2    0    0 -0.11922104433E+03 -0.43883533959E+02 -0.28992534556E+02  0.18062668590E+03  0.12508401431E+03 0.  0.
         23    2    1    2    0    0  0.11922104433E+03  0.43883533959E+02 -0.12729810695E+03  0.20074149336E+03  0.89179129632E+02 0.  0.
          5    1    3    3  502    0 -0.16162797333E+02 -0.67083431918E+02  0.56893897784E+01  0.69363278552E+02  0.41800000000E+01 0.  1.
         -5    1    3    3    0  502 -0.10305824699E+03  0.23199897958E+02 -0.34681924334E+02  0.11126340735E+03  0.41800000000E+01 0.  1.
        -11    1    4    4    0    0  0.28681237455E+02  0.43835438847E+02 -0.11296179026E+02  0.53588830380E+02  0.00000000000E+00 0.  1.
         11    1    4    4    0    0  0.90539806872E+02  0.48095112226E-01 -0.11600192792E+03  0.14715266298E+03  0.00000000000E+00 0. -1.
</event>
<event>
 8    1  0.3654190E-009  0.1566117E+03  0.7561462E-02  0.1192576E+00
          2   -1    0    0  501    0  0.00000000000E+00  0.00000000000E+00  0.14622302746E+03  0.14622302746E+03  0.00000000000E+00 0. -1.
         -2   -1    0    0    0  501 -0.00000000000E+00 -0.00000000000E+00 -0.18177163521E+03  0.18177163521E+03  0.00000000000E+00 0.  1.
         25    2    1    2    0    0 -0.93053232675E+02  0.75718719887E+02 -0.35162560999E+02  0.17685105648E+03  0.12509061447E+03 0.  0.
         23    2    1    2    0    0  0.93053232675E+02 -0.75718719887E+02 -0.38604675149E+00  0.15114360619E+03  0.91934824773E+02 0.  0.
          5    1    3    3  502    0 -0.45366107856E+01  0.74133034997E+02  0.13706657052E+02  0.75641473827E+02  0.41800000000E+01 0.  1.
         -5    1    3    3    0  502 -0.88516621890E+02  0.15856848901E+01 -0.48869218051E+02  0.10120958265E+03  0.41800000000E+01 0.  1.
        -11    1    4    4    0    0  0.49626318316E+02 -0.91424360267E+02  0.75019315865E+01  0.10429508185E+03  0.00000000000E+00 0. -1.
         11    1    4    4    0    0  0.43426914359E+02  0.15705640380E+02 -0.78879783380E+01  0.46848524339E+02  0.00000000000E+00 0.  1.
</event>
<event>
 8    1  0.3654190E-009  0.8770289E+02  0.7561462E-02  0.1308512E+00
         -2   -1    0    0    0  501 -0.00000000000E+00  0.00000000000E+00  0.10358205461E+03  0.10358205461E+03  0.00000000000E+00 0.  1.
          2   -1    0    0  501    0  0.00000000000E+00 -0.00000000000E+00 -0.19904800321E+03  0.19904800321E+03  0.00000000000E+00 0. -1.
         25    2    1    2    0    0  0.23456975571E+02 -0.36417284150E+02 -0.13909796649E+03  0.19201595879E+03  0.12508171673E+03 0.  0.
         23    2    1    2    0    0 -0.23456975571E+02  0.36417284150E+02  0.43632017890E+02  0.11061409903E+03  0.91952583606E+02 0.  0.
          5    1    3    3  502    0  0.27623461123E+01  0.34015755805E+02  0.33359402371E+00  0.34384384305E+02  0.41800000000E+01 0.  1.
         -5    1    3    3    0  502  0.20694629459E+02 -0.70433039955E+02 -0.13943156052E+03  0.15763157448E+03  0.41800000000E+01 0.  1.
        -11    1    4    4    0    0  0.21040602793E+01  0.41398452188E+02 -0.16863993977E+02  0.44751013464E+02  0.00000000000E+00 0. -1.
         11    1    4    4    0    0 -0.25561035851E+02 -0.49811680384E+01  0.60496011867E+02  0.65863085568E+02  0.00000000000E+00 0.  1.
</event>
<event>
 8    1  0.3654190E-009  0.2529026E+03  0.7561462E-02  0.1111484E+00
          1   -1    0    0  501    0  0.00000000000E+00  0.00000000000E+00  0.98242647934E+02  0.98242647934E+02  0.00000000000E+00 0. -1.
         -1   -1    0    0    0  501 -0.00000000000E+00 -0.00000000000E+00 -0.82415525608E+03  0.82415525608E+03  0.00000000000E+00 0.  1.
         25    2    1    2    0    0 -0.19622869208E+03  0.14531507422E+03 -0.52971650592E+03  0.59654711850E+03  0.12508684003E+03 0.  0.
         23    2    1    2    0    0  0.19622869208E+03 -0.14531507422E+03 -0.19619610222E+03  0.32585078552E+03  0.89797847981E+02 0.  0.
          5    1    3    3  502    0 -0.68177406460E+02  0.76118432012E+01 -0.62517282143E+02  0.92908459653E+02  0.41800000000E+01 0. -1.
         -5    1    3    3    0  502 -0.12805128562E+03  0.13770323102E+03 -0.46719922378E+03  0.50363865884E+03  0.41800000000E+01 0. -1.
        -11    1    4    4    0    0  0.13110041244E+03 -0.67308678022E+02 -0.68105409331E+02  0.16234568999E+03  0.00000000000E+00 0.  1.
         11    1    4    4    0    0  0.65128279645E+02 -0.78006396196E+02 -0.12809069289E+03  0.16350509552E+03  0.00000000000E+00 0. -1.
</event>
<event>
 8    1  0.3654190E-009  0.1207674E+03  0.7561462E-02  0.1241836E+00
          1   -1    0    0  501    0  0.00000000000E+00  0.00000000000E+00  0.15614337549E+03  0.15614337549E+03  0.00000000000E+00 0. -1.
         -1   -1    0    0    0  501 -0.00000000000E+00 -0.00000000000E+00 -0.16997443672E+03  0.16997443672E+03  0.00000000000E+00 0.  1.
         25    2    1    2    0    0 -0.55073006946E+02 -0.78436704509E+02 -0.81542004005E+02  0.17743018103E+03  0.12508804105E+03 0.  0.
         23    2    1    2    0    0  0.55073006946E+02  0.78436704509E+02  0.67710942770E+02  0.14868763119E+03  0.91312032006E+02 0.  0.
          5    1    3    3  502    0  0.15240735131E+02 -0.30594750255E+01  0.24608753885E+02  0.29405842320E+02  0.41800000000E+01 0.  1.
         -5    1    3    3    0  502 -0.70313742077E+02 -0.75377229483E+02 -0.10615075789E+03  0.14802433871E+03  0.41800000000E+01 0.  1.
        -11    1    4    4    0    0  0.74367754689E+02  0.64871441898E+02  0.75055293898E+02  0.12398453151E+03  0.00000000000E+00 0.  1.
         11    1    4    4    0    0 -0.19294747744E+02  0.13565262611E+02 -0.73443511286E+01  0.24703099678E+02  0.00000000000E+00 0. -1.
</event>
<event>
 8    1  0.3654190E-009  0.1071771E+03  0.7561462E-02  0.1265889E+00
         -2   -1    0    0    0  501 -0.00000000000E+00  0.00000000000E+00  0.46907914288E+02  0.46907914288E+02  0.00000000000E+00 0. -1.
          2   -1    0    0  501    0  0.00000000000E+00 -0.00000000000E+00 -0.27766561395E+03  0.27766561395E+03  0.00000000000E+00 0.  1.
         25    2    1    2    0    0 -0.55341728818E+00  0.21419087254E+01 -0.18199551426E+03  0.22085137105E+03  0.12509223334E+03 0.  0.
         23    2    1    2    0    0  0.55341728818E+00 -0.21419087254E+01 -0.48762185402E+02  0.10372215719E+03  0.91518528847E+02 0.  0.
          5    1    3    3  502    0 -0.49540438009E+02  0.39112707101E+02 -0.10039174946E+03  0.11865932165E+03  0.41800000000E+01 0.  1.
         -5    1    3    3    0  502  0.48987020720E+02 -0.36970798375E+02 -0.81603764804E+02  0.10219204941E+03  0.41800000000E+01 0.  1.
        -11    1    4    4    0    0  0.28640308047E+02  0.33583603111E+02 -0.34722586016E+02  0.56158557875E+02  0.00000000000E+00 0.  1.
         11    1    4    4    0    0 -0.28086890759E+02 -0.35725511836E+02 -0.14039599386E+02  0.47563599311E+02  0.00000000000E+00 0. -1.
</event>
<event>
 8    1  0.3654190E-009  0.1496481E+03  0.7561462E-02  0.1200906E+00
          1   -1    0    0  501    0  0.00000000000E+00  0.00000000000E+00  0.82936188192E+02  0.82936188192E+02  0.00000000000E+00 0. -1.
         -1   -1    0    0    0  501 -0.00000000000E+00 -0.00000000000E+00 -0.38227102367E+03  0.38227102367E+03  0.00000000000E+00 0.  1.
         25    2    1    2    0    0  0.13750525221E+03  0.32338931170E+01 -0.12128668951E+03  0.22198586629E+03  0.12509640815E+03 0.  0.
         23    2    1    2    0    0 -0.13750525221E+03 -0.32338931170E+01 -0.17804814597E+03  0.24322134557E+03  0.92397663443E+02 0.  0.
          5    1    3    3  502    0  0.50877282474E+02 -0.39444660300E+01 -0.12479481855E+03  0.13488986552E+03  0.41800000000E+01 0.  1.
         -5    1    3    3    0  502  0.86627969735E+02  0.71783591470E+01  0.35081290380E+01  0.87096000768E+02  0.41800000000E+01 0.  1.
        -11    1    4    4    0    0 -0.96219357006E+02 -0.41490892368E+02 -0.14164129891E+03  0.17618716290E+03  0.00000000000E+00 0.  1.
         11    1    4    4    0    0 -0.41285895203E+02  0.38256999251E+02 -0.36406847054E+02  0.67034182674E+02  0.00000000000E+00 0. -1.
</event>
<event>
 8    1  0.3654190E-009  0.1154452E+03  0.7561462E-02  0.1250806E+00
         -1   -1    0    0    0  501 -0.00000000000E+00  0.00000000000E+00  0.24746101501E+02  0.24746101501E+02  0.00000000000E+00 0.  1.
          1   -1    0    0  501    0  0.00000000000E+00 -0.00000000000E+00 -0.76009968705E+03  0.76009968705E+03  0.00000000000E+00 0. -1.
         25    2    1    2    0    0 -0.10923185400E+02 -0.78182226320E+02 -0.49297662851E+03  0.51468944446E+03  0.12508993360E+03 0.  0.
         23    2    1    2    0    0  0.10923185400E+02  0.78182226320E+02 -0.24237695704E+03  0.27015634410E+03  0.89476725795E+02 0.  0.
          5    1    3    3  502    0  0.36043947332E+01  0.16600278711E+02 -0.62300914204E+01  0.18570066069E+02  0.41800000000E+01 0. -1.
         -5    1    3    3    0  502 -0.14527580133E+02 -0.94782505031E+02 -0.48674653709E+03  0.49611937839E+03  0.41800000000E+01 0. -1.
        -11    1    4    4    0    0  0.49035408796E+02  0.49864804703E+02 -0.16724930847E+03  0.18128237986E+03  0.00000000000E+00 0. -1.
         11    1    4    4    0    0 -0.38112223396E+02  0.28317421617E+02 -0.75127648578E+02  0.88873964242E+02  0.00000000000E+00 0.  1.
</event>
<event>
 8    1  0.3654190E-009  0.1423600E+03  0.7561462E-02  0.1210188E+00
          2   -1    0    0  501    0  0.00000000000E+00  0.00000000000E+00  0.12504951124E+03  0.12504951124E+03  0.00000000000E+00 0. -1.
         -2   -1    0    0    0  501 -0.00000000000E+00 -0.00000000000E+00 -0.19822365286E+03  0.19822365286E+03  0.00000000000E+00 0.  1.
         25    2    1    2    0    0 -0.31760588995E+02  0.10672148157E+03 -0.15296240837E+02  0.16816560740E+03  0.12508991521E+03 0.  0.
         23    2    1    2    0    0  0.31760588995E+02 -0.10672148157E+03 -0.57877900781E+02  0.15510755670E+03  0.91160809043E+02 0.  0.
          5    1    3    3  502    0  0.36173634954E+02  0.75428583506E+02 -0.34888499411E+02  0.90734132864E+02  0.41800000000E+01 0. -1.
         -5    1    3    3    0  502 -0.67934223949E+02  0.31292898068E+02  0.19592258574E+02  0.77431474537E+02  0.41800000000E+01 0. -1.
        -11    1    4    4    0    0 -0.16506942332E+02 -0.14546960471E+02  0.16251761346E+02  0.27353481514E+02  0.00000000000E+00 0. -1.
         11    1    4    4    0    0  0.48267531326E+02 -0.92174521102E+02 -0.74129662127E+02  0.12775407519E+03  0.00000000000E+00 0.  1.
</event>
<event>
 8    1  0.3654190E-009  0.1102373E+03  0.7561462E-02  0.1260131E+00
         -1   -1    0    0    0  501 -0.00000000000E+00  0.00000000000E+00  0.18899059510E+02  0.18899059510E+02  0.00000000000E+00 0.  1.
          1   -1    0    0  501    0  0.00000000000E+00 -0.00000000000E+00 -0.66484803656E+03  0.66484803656E+03  0.00000000000E+00 0. -1.
         25    2    1    2    0    0 -0.29293594022E+02 -0.69314109798E-01 -0.37688187242E+03  0.39817827315E+03  0.12509145450E+03 0.  0.
         23    2    1    2    0    0  0.29293594022E+02  0.69314109798E-01 -0.26906710463E+03  0.28556882292E+03  0.91073192431E+02 0.  0.
          5    1    3    3  502    0 -0.76976914511E+02  0.17710287903E+00 -0.27519055466E+03  0.28578451762E+03  0.41800000000E+01 0. -1.
         -5    1    3    3    0  502  0.47683320490E+02 -0.24641698883E+00 -0.10169131776E+03  0.11239375553E+03  0.41800000000E+01 0. -1.
        -11    1    4    4    0    0 -0.17264574351E+02 -0.33792512496E+02 -0.99127828402E+02  0.10614294980E+03  0.00000000000E+00 0. -1.
         11    1    4    4    0    0  0.46558168373E+02  0.33861826606E+02 -0.16993927622E+03  0.17942587313E+03  0.00000000000E+00 0.  1.
</event>
<event>
 8    1  0.3654190E-009  0.1204144E+03  0.7561462E-02  0.1242415E+00
         -1   -1    0    0    0  501 -0.00000000000E+00  0.00000000000E+00  0.12553599464E+02  0.12553599464E+02  0.00000000000E+00 0.  1.
          1   -1    0    0  501    0  0.00000000000E+00 -0.00000000000E+00 -0.13904107134E+04  0.13904107134E+04  0.00000000000E+00 0. -1.
         25    2    1    2    0    0 -0.57521542012E+02  0.33589620488E+02 -0.94849094496E+03  0.95902040971E+03  0.12509229858E+03 0.  0.
         23    2    1    2    0    0  0.57521542012E+02 -0.33589620488E+02 -0.42936616894E+03  0.44394390312E+03  0.91070805905E+02 0.  0.
          5    1    3    3  502    0 -0.31169418319E+02 -0.39877979303E+02 -0.19569812075E+03  0.20218064382E+03  0.41800000000E+01 0.  1.
         -5    1    3    3    0  502 -0.26352123693E+02  0.73467599791E+02 -0.75279282421E+03  0.75683976589E+03  0.41800000000E+01 0.  1.
        -11    1    4    4    0    0  0.74830487442E+02 -0.83743328745E+00 -0.31308402309E+03  0.32190357043E+03  0.00000000000E+00 0.  1.
         11    1    4    4    0    0 -0.17308945430E+02 -0.32752187201E+02 -0.11628214585E+03  0.12204033269E+03  0.00000000000E+00 0. -1.
</event>
<event>
 8    1  0.3654190E-009  0.1086069E+03  0.7561462E-02  0.1263172E+00
         -1   -1    0    0    0  501 -0.00000000000E+00  0.00000000000E+00  0.87037301737E+01  0.87037301737E+01  0.00000000000E+00 0.  1.
          1   -1    0    0  501    0  0.00000000000E+00 -0.00000000000E+00 -0.20438528810E+04  0.20438528810E+04  0.00000000000E+00 0. -1.
         25    2    1    2    0    0 -0.41986433379E+02 -0.27258882670E+02 -0.15831940777E+04  0.15889168280E+04  0.12508913385E+03 0.  0.
         23    2    1    2    0    0  0.41986433379E+02  0.27258882670E+02 -0.45195507317E+03  0.46363978321E+03  0.90512723597E+02 0.  0.
          5    1    3    3  502    0 -0.10308987111E+02  0.41654310551E+02 -0.26052556368E+03  0.26406892762E+03  0.41800000000E+01 0.  1.
         -5    1    3    3    0  502 -0.31677446268E+02 -0.68913193220E+02 -0.13226685140E+04  0.13248479004E+04  0.41800000000E+01 0.  1.
        -11    1    4    4    0    0  0.24583593768E+01 -0.29153324277E+02 -0.76206780259E+02  0.81629854861E+02  0.00000000000E+00 0. -1.
         11    1    4    4    0    0  0.39528074002E+02  0.56412206946E+02 -0.37574829291E+03  0.38200992835E+03  0.00000000000E+00 0.  1.
</event>
<event>
 8    1  0.3654190E-009  0.1319981E+03  0.7561462E-02  0.1224521E+00
         -1   -1    0    0    0  501 -0.00000000000E+00  0.00000000000E+00  0.27254494102E+03  0.27254494102E+03  0.00000000000E+00 0.  1.
          1   -1    0    0  501    0  0.00000000000E+00 -0.00000000000E+00 -0.65504923570E+02  0.65504923570E+02  0.00000000000E+00 0. -1.
         25    2    1    2    0    0  0.77200721382E+02 -0.12782696684E+01  0.13770556674E+03  0.20142324020E+03  0.12508762219E+03 0.  0.
         23    2    1    2    0    0 -0.77200721382E+02  0.12782696684E+01  0.69334450714E+02  0.13662662439E+03  0.88870597399E+02 0.  0.
          5    1    3    3  502    0  0.10598766541E+03 -0.25266457938E+02  0.10740566133E+03  0.15305302218E+03  0.41800000000E+01 0.  1.
         -5    1    3    3    0  502 -0.28786944024E+02  0.23988188270E+02  0.30299905412E+02  0.48370218014E+02  0.41800000000E+01 0.  1.
        -11    1    4    4    0    0  0.11272579397E+02  0.23473030594E+02  0.20643417134E+02  0.33229578428E+02  0.00000000000E+00 0.  1.
         11    1    4    4    0    0 -0.88473300779E+02 -0.22194760926E+02  0.48691033580E+02  0.10339704597E+03  0.00000000000E+00 0. -1.
</event>
<event>
 8    1  0.3654190E-009  0.1553682E+03  0.7561462E-02  0.1194027E+00
         -4   -1    0    0    0  501 -0.00000000000E+00  0.00000000000E+00  0.16666023200E+03  0.16666023200E+03  0.00000000000E+00 0.  1.
          4   -1    0    0  501    0  0.00000000000E+00 -0.00000000000E+00 -0.15258135386E+03  0.15258135386E+03  0.00000000000E+00 0. -1.
         25    2    1    2    0    0  0.12345508065E+02 -0.11382745414E+03  0.25059428951E+02  0.17141774336E+03  0.12508783663E+03 0.  0.
         23    2    1    2    0    0 -0.12345508065E+02  0.11382745414E+03 -0.10980550815E+02  0.14782384250E+03  0.92855883121E+02 0.  0.
          5    1    3    3  502    0 -0.20208479490E+02 -0.12921851099E+03  0.31513022813E+02  0.13459698820E+03  0.41800000000E+01 0.  1.
         -5    1    3    3    0  502  0.32553987555E+02  0.15391056850E+02 -0.64535938626E+01  0.36820755158E+02  0.41800000000E+01 0.  1.
        -11    1    4    4    0    0 -0.45385215847E+02  0.95764534737E+02 -0.22716964300E+02  0.10838230666E+03  0.00000000000E+00 0.  1.
         11    1    4    4    0    0  0.33039707782E+02  0.18062919403E+02  0.11736413484E+02  0.39441535837E+02  0.00000000000E+00 0. -1.
</event>
<event>
 8    1  0.3654190E-009  0.1050946E+03  0.7561462E-02  0.1269933E+00
          1   -1    0    0  501    0  0.00000000000E+00  0.00000000000E+00  0.94159627482E+03  0.94159627482E+03  0.00000000000E+00 0. -1.
         -1   -1    0    0    0  501 -0.00000000000E+00 -0.00000000000E+00 -0.12397773939E+02  0.12397773939E+02  0.00000000000E+00 0.  1.
         25    2    1    2    0    0 -0.12721679602E+01  0.58828348855E+01  0.60685816218E+03  0.61964558913E+03  0.12509037119E+03 0.  0.
         23    2    1    2    0    0  0.12721679602E+01 -0.58828348855E+01  0.32234033869E+03  0.33434845962E+03  0.88596683607E+02 0.  0.
          5    1    3    3  502    0 -0.62644971906E+02 -0.27712489218E+01  0.28488771897E+03  0.29173713707E+03  0.41800000000E+01 0.  1.
         -5    1    3    3    0  502  0.61372803946E+02  0.86540838074E+01  0.32197044321E+03  0.32790845206E+03  0.41800000000E+01 0.  1.
        -11    1    4    4    0    0 -0.11947086967E+02 -0.43625739881E+02  0.21719282799E+03  0.22185279488E+03  0.00000000000E+00 0. -1.
         11    1    4    4    0    0  0.13219254927E+02  0.37742904996E+02  0.10514751071E+03  0.11249566474E+03  0.00000000000E+00 0.  1.
</event>
<event>
 8    1  0.3654190E-009  0.1172902E+03  0.7561462E-02  0.1247636E+00
          3   -1    0    0  501    0  0.00000000000E+00  0.00000000000E+00  0.49276172898E+02  0.49276172898E+02  0.00000000000E+00 0. -1.
         -3   -1    0    0    0  501 -0.00000000000E+00 -0.00000000000E+00 -0.34468341181E+03  0.34468341181E+03  0.00000000000E+00 0.  1.
         25    2    1    2    0    0  0.57063239573E+02  0.42627658980E+02 -0.16118090499E+03  0.21610461994E+03  0.12509433243E+03 0.  0.
         23    2    1    2    0    0 -0.57063239573E+02 -0.42627658980E+02 -0.13422633393E+03  0.17785496477E+03  0.92424829745E+02 0.  0.
          5    1    3    3  502    0  0.94417552113E+02  0.12652948050E+02 -0.11564497624E+03  0.14988663774E+03  0.41800000000E+01 0.  1.
         -5    1    3    3    0  502 -0.37354312540E+02  0.29974710930E+02 -0.45535928747E+02  0.66217982207E+02  0.41800000000E+01 0.  1.
        -11    1    4    4    0    0 -0.41212615851E+02  0.44732796596E+01 -0.80291681985E+01  0.42225081150E+02  0.00000000000E+00 0. -1.
         11    1    4    4    0    0 -0.15850623722E+02 -0.47100938639E+02 -0.12619716573E+03  0.13562988362E+03  0.00000000000E+00 0.  1.
</event>
<event>
 8    1  0.3654190E-009  0.1568371E+03  0.7561462E-02  0.1192315E+00
          1   -1    0    0  501    0  0.00000000000E+00  0.00000000000E+00  0.44175098680E+03  0.44175098680E+03  0.00000000000E+00 0. -1.
         -1   -1    0    0    0  501 -0.00000000000E+00 -0.00000000000E+00 -0.67770441256E+02  0.67770441256E+02  0.00000000000E+00 0.  1.
         25    2    1    2    0    0  0.11391251144E+03  0.57362652764E+02  0.26038371225E+03  0.31577543720E+03  0.12509162616E+03 0.  0.
         23    2    1    2    0    0 -0.11391251144E+03 -0.57362652764E+02  0.11359683329E+03  0.19374599086E+03  0.91469854299E+02 0.  0.
          5    1    3    3  502    0  0.12852189586E+03  0.19310141913E+02  0.23191731808E+03  0.26588319639E+03  0.41800000000E+01 0. -1.
         -5    1    3    3    0  502 -0.14609384423E+02  0.38052510851E+02  0.28466394169E+02  0.49892240802E+02  0.41800000000E+01 0. -1.
        -11    1    4    4    0    0 -0.90029470194E+02 -0.71453018333E+02  0.51917645839E+02  0.12612010657E+03  0.00000000000E+00 0.  1.
         11    1    4    4    0    0 -0.23883041248E+02  0.14090365569E+02  0.61679187450E+02  0.67625884287E+02  0.00000000000E+00 0. -1.
</event>
<event>
 8    1  0.3654190E-009  0.1361366E+03  0.7561462E-02  0.1218624E+00
         -2   -1    0    0    0  501 -0.00000000000E+00  0.00000000000E+00  0.31278408765E+02  0.31278408765E+02  0.00000000000E+00 0.  1.
          2   -1    0    0  501    0  0.00000000000E+00 -0.00000000000E+00 -0.72597728372E+03  0.72597728372E+03  0.00000000000E+00 0. -1.
         25    2    1    2    0    0  0.85394460060E+02 -0.58198128885E+02 -0.40513197578E+03  0.43641603064E+03  0.12509115869E+03 0.  0.
         23    2    1    2    0    0 -0.85394460060E+02  0.58198128885E+02 -0.28956689917E+03  0.32083966185E+03  0.91705307930E+02 0.  0.
          5    1    3    3  502    0  0.11695290267E+03 -0.55226758273E+02 -0.30540160377E+03  0.33168597839E+03  0.41800000000E+01 0.  1.
         -5    1    3    3    0  502 -0.31558442610E+02 -0.29713706113E+01 -0.99730372008E+02  0.10473005225E+03  0.41800000000E+01 0.  1.
        -11    1    4    4    0    0 -0.82818096441E+02  0.39026613358E+02 -0.28709388432E+03  0.30133836805E+03  0.00000000000E+00 0. -1.
         11    1    4    4    0    0 -0.25763636186E+01  0.19171515527E+02 -0.24730148539E+01  0.19501293792E+02  0.00000000000E+00 0.  1.
</event>
<event>
 8    1  0.3654190E-009  0.6551237E+02  0.7561462E-02  0.1376054E+00
          2   -1    0    0  501    0  0.00000000000E+00  0.00000000000E+00  0.39215047365E+03  0.39215047365E+03  0.00000000000E+00 0. -1.
         -2   -1    0    0    0  501 -0.00000000000E+00 -0.00000000000E+00 -0.50416646128E+02  0.50416646128E+02  0.00000000000E+00 0.  1.
         25    2    1    2    0    0 -0.31751560937E+02 -0.51818582409E+01  0.31804121939E+03  0.34326724676E+03  0.12508865733E+03 0.  0.
         23    2    1    2    0    0  0.31751560937E+02  0.51818582409E+01  0.23692608127E+02  0.99299873012E+02  0.90907160463E+02 0.  0.
          5    1    3    3  502    0 -0.25392638948E+02  0.12731785491E+02  0.32210704233E+03  0.32338414246E+03  0.41800000000E+01 0.  1.
         -5    1    3    3    0  502 -0.63589219890E+01 -0.17913643732E+02 -0.40658229394E+01  0.19883104305E+02  0.41800000000E+01 0.  1.
        -11    1    4    4    0    0 -0.25465366760E+02  0.20439166097E+01 -0.15494725935E+02  0.29878906124E+02  0.00000000000E+00 0.  1.
         11    1    4    4    0    0  0.57216927697E+02  0.31379416312E+01  0.39187334062E+02  0.69420966888E+02  0.00000000000E+00 0. -1.
</event>
<event>
 8    1  0.3654190E-009  0.1168920E+03  0.7561462E-02  0.1248314E+00
          1   -1    0    0  501    0  0.00000000000E+00  0.00000000000E+00  0.58649732845E+03  0.58649732845E+03  0.00000000000E+00 0.  1.
         -1   -1    0    0    0  501 -0.00000000000E+00 -0.00000000000E+00 -0.41226481419E+02  0.41226481419E+02  0.00000000000E+00 0. -1.
         25    2    1    2    0    0 -0.58328628270E+02 -0.78712692146E+02  0.39611297571E+03  0.42679127244E+03  0.12508950366E+03 0.  0.
         23    2    1    2    0    0  0.58328628270E+02  0.78712692146E+02  0.14915787133E+03  0.20093253744E+03  0.92346614666E+02 0.  0.
          5    1    3    3  502    0 -0.30963456363E+02 -0.97309222528E+02  0.17094423925E+03  0.19916632686E+03  0.41800000000E+01 0.  1.
         -5    1    3    3    0  502 -0.27365171907E+02  0.18596530382E+02  0.22516873645E+03  0.22762494558E+03  0.41800000000E+01 0.  1.
        -11    1    4    4    0    0  0.27690137816E+02  0.43402954720E+02  0.14515206435E+03  0.15401195406E+03  0.00000000000E+00 0.  1.
         11    1    4    4    0    0  0.30638490454E+02  0.35309737426E+02  0.40058069834E+01  0.46920583373E+02  0.00000000000E+00 0. -1.
</event>
<event>
 8    1  0.3654190E-009  0.9654959E+02  0.7561462E-02  0.1287724E+00
          1   -1    0    0  501    0  0.00000000000E+00  0.00000000000E+00  0.16463958633E+03  0.16463958633E+03  0.00000000000E+00 0. -1.
         -1   -1    0    0    0  501 -0.00000000000E+00 -0.00000000000E+00 -0.99006203488E+02  0.99006203488E+02  0.00000000000E+00 0.  1.
         25    2    1    2    0    0  0.92593340573E+01 -0.29295523280E+02  0.97721741712E+02  0.16168167605E+03  0.12508981819E+03 0.  0.
         23    2    1    2    0    0 -0.92593340573E+01  0.29295523280E+02 -0.32088358868E+02  0.10196411377E+03  0.91777201805E+02 0.  0.
          5    1    3    3  502    0 -0.50748001136E+02 -0.42295132240E+02  0.40210873096E+02  0.77450787896E+02  0.41800000000E+01 0.  1.
         -5    1    3    3    0  502  0.60007335193E+02  0.12999608961E+02  0.57510868616E+02  0.84230888153E+02  0.41800000000E+01 0.  1.
        -11    1    4    4    0    0  0.24401939214E+02  0.15953989747E+02  0.22244405044E+02  0.36671487316E+02  0.00000000000E+00 0. -1.
         11    1    4    4    0    0 -0.33661273271E+02  0.13341533533E+02 -0.54332763912E+02  0.65292626456E+02  0.00000000000E+00 0.  1.
</event>
<event>
 8    1  0.3654190E-009  0.1061582E+03  0.7561462E-02  0.1267854E+00
          3   -1    0    0  501    0  0.00000000000E+00  0.00000000000E+00  0.35863766520E+03  0.35863766520E+03  0.00000000000E+00 0. -1.
         -3   -1    0    0    0  501 -0.00000000000E+00 -0.00000000000E+00 -0.50694989372E+02  0.50694989372E+02  0.00000000000E+00 0.  1.
         25    2    1    2    0    0 -0.47247769888E+02  0.52094677575E+02  0.22825742146E+03  0.26961871604E+03  0.12508634777E+03 0.  0.
         23    2    1    2    0    0  0.47247769888E+02 -0.52094677575E+02  0.79685254372E+02  0.13971393853E+03  0.90686480056E+02 0.  0.
          5    1    3    3  502    0  0.18256026088E+02  0.48357061912E+02  0.28185185189E+02  0.59021733195E+02  0.41800000000E+01 0. -1.
         -5    1    3    3    0  502 -0.65503795976E+02  0.37376156636E+01  0.20007223627E+03  0.21059698285E+03  0.41800000000E+01 0. -1.
        -11    1    4    4    0    0  0.59165784218E+02 -0.56691550706E+02  0.28186309954E+02  0.86654428695E+02  0.00000000000E+00 0.  1.
         11    1    4    4    0    0 -0.11918014329E+02  0.45968731309E+01  0.51498944418E+02  0.53059509838E+02  0.00000000000E+00 0. -1.
</event>
<event>
 8    1  0.3654190E-009  0.1100340E+03  0.7561462E-02  0.1260507E+00
          1   -1    0    0  501    0  0.00000000000E+00  0.00000000000E+00  0.20191361613E+03  0.20191361613E+03  0.00000000000E+00 0. -1.
         -1   -1    0    0    0  501 -0.00000000000E+00 -0.00000000000E+00 -0.10580732364E+03  0.10580732364E+03  0.00000000000E+00 0.  1.
         25    2    1    2    0    0 -0.52172810172E+02  0.47637489461E+02 -0.19255255932E+02  0.14493716668E+03  0.12507871474E+03 0.  0.
         23    2    1    2    0    0  0.52172810172E+02 -0.47637489461E+02  0.11536154842E+03  0.16278377308E+03  0.90547983969E+02 0.  0.
          5    1    3    3  502    0  0.31775381284E+02  0.41188707184E+02 -0.29611574756E+02  0.60004184977E+02  0.41800000000E+01 0.  1.
         -5    1    3    3    0  502 -0.83948191456E+02  0.64487822766E+01  0.10356318824E+02  0.84932981704E+02  0.41800000000E+01 0.  1.
        -11    1    4    4    0    0  0.39449829989E+02 -0.55893523994E+02  0.12660291946E+03  0.14390508791E+03  0.00000000000E+00 0. -1.
         11    1    4    4    0    0  0.12722980183E+02  0.82560345337E+01 -0.11241371038E+02  0.18878685171E+02  0.00000000000E+00 0.  1.
</event>
<event>
 8    1  0.3654190E-009  0.1205491E+03  0.7561462E-02  0.1242194E+00
          2   -1    0    0  501    0  0.00000000000E+00  0.00000000000E+00  0.65169717534E+02  0.65169717534E+02  0.00000000000E+00 0. -1.
         -2   -1    0    0    0  501 -0.00000000000E+00 -0.00000000000E+00 -0.39982586744E+03  0.39982586744E+03  0.00000000000E+00 0.  1.
         25    2    1    2    0    0  0.91096402887E+02 -0.26444479193E+02 -0.76534908355E+02  0.17465215153E+03  0.12509163337E+03 0.  0.
         23    2    1    2    0    0 -0.91096402887E+02  0.26444479193E+02 -0.25812124155E+03  0.29034343344E+03  0.93138976284E+02 0.  0.
          5    1    3    3  502    0  0.41323645408E+02 -0.38854680938E+02 -0.10233714813E+03  0.11707986244E+03  0.41800000000E+01 0.  1.
         -5    1    3    3    0  502  0.49772757479E+02  0.12410201746E+02  0.25802239775E+02  0.57572289097E+02  0.41800000000E+01 0.  1.
        -11    1    4    4    0    0 -0.34720076658E+02  0.58408669112E+02 -0.13970852966E+03  0.15535613799E+03  0.00000000000E+00 0.  1.
         11    1    4    4    0    0 -0.56376326229E+02 -0.31964189919E+02 -0.11841271188E+03  0.13498729545E+03  0.00000000000E+00 0. -1.
</event>
<event>
 8    1  0.3654190E-009  0.6189975E+02  0.7561462E-02  0.1390028E+00
          2   -1    0    0  501    0  0.00000000000E+00  0.00000000000E+00  0.24820046691E+03  0.24820046691E+03  0.00000000000E+00 0. -1.
         -2   -1    0    0    0  501 -0.00000000000E+00 -0.00000000000E+00 -0.59853519689E+02  0.59853519689E+02  0.00000000000E+00 0.  1.
         25    2    1    2    0    0 -0.15495630034E+02  0.24035628848E+02  0.45550931387E+02  0.13616413150E+03  0.12509179571E+03 0.  0.
         23    2    1    2    0    0  0.15495630034E+02 -0.24035628848E+02  0.14279601583E+03  0.17188985510E+03  0.91310427353E+02 0.  0.
          5    1    3    3  502    0 -0.58126650250E+01  0.59828675765E+01  0.88186163295E+02  0.88678371522E+02  0.41800000000E+01 0. -1.
         -5    1    3    3    0  502 -0.96829650094E+01  0.18052761272E+02 -0.42635231908E+02  0.47485759979E+02  0.41800000000E+01 0. -1.
        -11    1    4    4    0    0 -0.63159383311E+01 -0.55179228806E+02  0.66481834088E+02  0.86628359285E+02  0.00000000000E+00 0.  1.
         11    1    4    4    0    0  0.21811568365E+02  0.31143599958E+02  0.76314181745E+02  0.85261495813E+02  0.00000000000E+00 0. -1.
</event>
<event>
 8    1  0.3654190E-009  0.1769773E+03  0.7561462E-02  0.1170761E+00
          2   -1    0    0  501    0  0.00000000000E+00  0.00000000000E+00  0.34129865143E+03  0.34129865143E+03  0.00000000000E+00 0. -1.
         -2   -1    0    0    0  501 -0.00000000000E+00 -0.00000000000E+00 -0.11882854873E+03  0.11882854873E+03  0.00000000000E+00 0.  1.
         25    2    1    2    0    0 -0.16682544872E+03  0.48226554986E+01  0.16014145174E+03  0.26295959729E+03  0.12509387232E+03 0.  0.
         23    2    1    2    0    0  0.16682544872E+03 -0.48226554986E+01  0.62328650953E+02  0.19716760287E+03  0.84476118198E+02 0.  0.
          5    1    3    3  502    0 -0.80413041557E+02 -0.78417340268E+01  0.45633367747E+00  0.80903836036E+02  0.41800000000E+01 0.  1.
         -5    1    3    3    0  502 -0.86412407166E+02  0.12664389525E+02  0.15968511806E+03  0.18205576125E+03  0.41800000000E+01 0.  1.
        -11    1    4    4    0    0  0.13936021318E+03  0.28694476020E+02  0.57884363364E+02  0.15360742655E+03  0.00000000000E+00 0. -1.
         11    1    4    4    0    0  0.27465235547E+02 -0.33517131518E+02  0.44442875891E+01  0.43560176320E+02  0.00000000000E+00 0.  1.
</event>
<event>
 8    1  0.3654190E-009  0.2492399E+03  0.7561462E-02  0.1113786E+00
          2   -1    0    0  501    0  0.00000000000E+00  0.00000000000E+00  0.24254608481E+03  0.24254608481E+03  0.00000000000E+00 0. -1.
         -2   -1    0    0    0  501 -0.00000000000E+00 -0.00000000000E+00 -0.28732932861E+03  0.28732932861E+03  0.00000000000E+00 0.  1.
         25    2    1    2    0    0 -0.92143210486E+01  0.23203637689E+03 -0.82008762457E+02  0.27622196099E+03  0.12508937085E+03 0.  0.
         23    2    1    2    0    0  0.92143210486E+01 -0.23203637689E+03  0.37225518654E+02  0.25365345244E+03  0.95018686477E+02 0.  0.
          5    1    3    3  502    0  0.38710243550E+02  0.12043659424E+03 -0.88623168947E+02  0.15451535413E+03  0.41800000000E+01 0.  1.
         -5    1    3    3    0  502 -0.47924564599E+02  0.11159978265E+03  0.66144064903E+01  0.12170660686E+03  0.41800000000E+01 0.  1.
        -11    1    4    4    0    0 -0.41291789490E+02 -0.13213730106E+03  0.12398852942E+02  0.13899284070E+03  0.00000000000E+00 0. -1.
         11    1    4    4    0    0  0.50506110539E+02 -0.99899075829E+02  0.24826665713E+02  0.11466061174E+03  0.00000000000E+00 0.  1.
</event>
<event>
 8    1  0.3654190E-009  0.1430758E+03  0.7561462E-02  0.1209249E+00
          2   -1    0    0  501    0  0.00000000000E+00  0.00000000000E+00  0.38222425403E+03  0.38222425403E+03  0.00000000000E+00 0. -1.
         -2   -1    0    0    0  501 -0.00000000000E+00 -0.00000000000E+00 -0.55603040599E+02  0.55603040599E+02  0.00000000000E+00 0.  1.
         25    2    1    2    0    0 -0.19291658083E+02 -0.94281518701E+02  0.14900386909E+03  0.21705047688E+03  0.12509030206E+03 0.  0.
         23    2    1    2    0    0  0.19291658083E+02  0.94281518701E+02  0.17761734434E+03  0.22077681775E+03  0.89069127116E+02 0.  0.
          5    1    3    3  502    0 -0.63303245851E+02 -0.16263325103E+02  0.43676201736E+02  0.78720262174E+02  0.41800000000E+01 0. -1.
         -5    1    3    3    0  502  0.44011587768E+02 -0.78018193598E+02  0.10532766736E+03  0.13833021471E+03  0.41800000000E+01 0. -1.
        -11    1    4    4    0    0 -0.34247171221E+02  0.54169333382E+02  0.81771744381E+02  0.10389323171E+03  0.00000000000E+00 0.  1.
         11    1    4    4    0    0  0.53538829305E+02  0.40112185320E+02  0.95845599957E+02  0.11688358604E+03  0.00000000000E+00 0. -1.
</event>
<event>
 8    1  0.3654190E-009  0.1803490E+03  0.7561462E-02  0.1167466E+00
          2   -1    0    0  501    0  0.00000000000E+00  0.00000000000E+00  0.49418181424E+03  0.49418181424E+03  0.00000000000E+00 0. -1.
         -2   -1    0    0    0  501 -0.00000000000E+00 -0.00000000000E+00 -0.18889491266E+03  0.18889491266E+03  0.00000000000E+00 0.  1.
         25    2    1    2    0    0  0.28232746985E+02  0.17427392349E+03  0.40498458036E+03  0.45916053928E+03  0.12508957626E+03 0.  0.
         23    2    1    2    0    0 -0.28232746985E+02 -0.17427392349E+03 -0.99697678787E+02  0.22391618762E+03  0.95028119583E+02 0.  0.
          5    1    3    3  502    0  0.14394197326E+02  0.43864763046E+02  0.16642610006E+02  0.49251997132E+02  0.41800000000E+01 0.  1.
         -5    1    3    3    0  502  0.13838549659E+02  0.13040916044E+03  0.38834197036E+03  0.40990854215E+03  0.41800000000E+01 0.  1.
        -11    1    4    4    0    0 -0.31257274966E+00 -0.13471658903E+03 -0.11058155380E+03  0.17428980780E+03  0.00000000000E+00 0.  1.
         11    1    4    4    0    0 -0.27920174235E+02 -0.39557334452E+02  0.10883875012E+02  0.49626379815E+02  0.00000000000E+00 0. -1.
</event>
<event>
 8    1  0.3654190E-009  0.8514781E+02  0.7561462E-02  0.1315046E+00
          2   -1    0    0  501    0  0.00000000000E+00  0.00000000000E+00  0.10137403662E+04  0.10137403662E+04  0.00000000000E+00 0. -1.
         -2   -1    0    0    0  501 -0.00000000000E+00 -0.00000000000E+00 -0.17319803052E+02  0.17319803052E+02  0.00000000000E+00 0.  1.
         25    2    1    2    0    0  0.15515946563E+02  0.56078727977E+02  0.74652567745E+03  0.75916673454E+03  0.12509186787E+03 0.  0.
         23    2    1    2    0    0 -0.15515946563E+02 -0.56078727977E+02  0.24989488573E+03  0.27189343474E+03  0.89961200602E+02 0.  0.
          5    1    3    3  502    0  0.12859505837E+02 -0.52704285434E+01  0.53923087972E+01  0.15482044489E+02  0.41800000000E+01 0.  1.
         -5    1    3    3    0  502  0.26564407261E+01  0.61349156520E+02  0.74113336865E+03  0.74368469005E+03  0.41800000000E+01 0.  1.
        -11    1    4    4    0    0 -0.41783742844E+02 -0.12965504826E+02  0.53483567135E+02  0.69097593554E+02  0.00000000000E+00 0.  1.
         11    1    4    4    0    0  0.26267796281E+02 -0.43113223151E+02  0.19641131859E+03  0.20279584119E+03  0.00000000000E+00 0. -1.
</event>
<event>
 8    1  0.3654190E-009  0.1723716E+03  0.7561462E-02  0.1175397E+00
          1   -1    0    0  501    0  0.00000000000E+00  0.00000000000E+00  0.23339019697E+03  0.23339019697E+03  0.00000000000E+00 0. -1.
         -1   -1    0    0    0  501 -0.00000000000E+00 -0.00000000000E+00 -0.18261737837E+03  0.18261737837E+03  0.00000000000E+00 0.  1.
         25    2    1    2    0    0 -0.14050364296E+02 -0.14310792914E+03  0.12608068252E+03  0.22851931768E+03  0.12508975949E+03 0.  0.
         23    2    1    2    0    0  0.14050364296E+02  0.14310792914E+03 -0.75307863911E+02  0.18748825766E+03  0.93825797488E+02 0.  0.
          5    1    3    3  502    0 -0.45869862162E+02 -0.15031739419E+03  0.11021272964E+03  0.19199917038E+03  0.41800000000E+01 0.  1.
         -5    1    3    3    0  502  0.31819497866E+02  0.72094650471E+01  0.15867952872E+02  0.36520147303E+02  0.41800000000E+01 0.  1.
        -11    1    4    4    0    0 -0.22263776993E+02  0.55389500833E+02 -0.70569107476E+02  0.92431983093E+02  0.00000000000E+00 0.  1.
         11    1    4    4    0    0  0.36314141289E+02  0.87718428307E+02 -0.47387564350E+01  0.95056274568E+02  0.00000000000E+00 0. -1.
</event>
<event>
 8    1  0.3654190E-009  0.2038939E+03  0.7561462E-02  0.1146495E+00
         -1   -1    0    0    0  501 -0.00000000000E+00  0.00000000000E+00  0.61944183847E+02  0.61944183847E+02  0.00000000000E+00 0. -1.
          1   -1    0    0  501    0  0.00000000000E+00 -0.00000000000E+00 -0.83634803427E+03  0.83634803427E+03  0.00000000000E+00 0.  1.
         25    2    1    2    0    0 -0.11360911000E+03  0.16299877414E+03 -0.43220944252E+03  0.49186214888E+03  0.12509093112E+03 0.  0.
         23    2    1    2    0    0  0.11360911000E+03 -0.16299877414E+03 -0.34219440790E+03  0.40643006924E+03  0.92804946728E+02 0.  0.
          5    1    3    3  502    0 -0.16218854581E+02  0.77871594499E+02 -0.28467651705E+03  0.29560992581E+03  0.41800000000E+01 0.  1.
         -5    1    3    3    0  502 -0.97390255414E+02  0.85127179642E+02 -0.14753292547E+03  0.19625222307E+03  0.41800000000E+01 0.  1.
        -11    1    4    4    0    0  0.88578015341E+02 -0.12965627082E+03 -0.32573202212E+03  0.36160498282E+03  0.00000000000E+00 0.  1.
         11    1    4    4    0    0  0.25031094654E+02 -0.33342503318E+02 -0.16462385785E+02  0.44825086423E+02  0.00000000000E+00 0. -1.
</event>
<event>
 8    1  0.3654190E-009  0.9631047E+02  0.7561462E-02  0.1288252E+00
          2   -1    0    0  501    0  0.00000000000E+00  0.00000000000E+00  0.13409419564E+03  0.13409419564E+03  0.00000000000E+00 0. -1.
         -2   -1    0    0    0  501 -0.00000000000E+00 -0.00000000000E+00 -0.10122313839E+03  0.10122313839E+03  0.00000000000E+00 0.  1.
         25    2    1    2    0    0 -0.38357573494E+02 -0.77519022065E+00  0.23761253746E+02  0.13296440333E+03  0.12507210324E+03 0.  0.
         23    2    1    2    0    0  0.38357573494E+02  0.77519022065E+00  0.91098035007E+01  0.10235293070E+03  0.94452260636E+02 0.  0.
          5    1    3    3  502    0 -0.74395084885E+02  0.11449140817E+02  0.46367394728E+02  0.88504910453E+02  0.41800000000E+01 0. -1.
         -5    1    3    3    0  502  0.36037511391E+02 -0.12224331038E+02 -0.22606140982E+02  0.44459492875E+02  0.41800000000E+01 0. -1.
        -11    1    4    4    0    0 -0.20177937833E+02 -0.24519779447E+01  0.33235448027E+02  0.38958392890E+02  0.00000000000E+00 0.  1.
         11    1    4    4    0    0  0.58535511326E+02  0.32271681654E+01 -0.24125644526E+02  0.63394537812E+02  0.00000000000E+00 0. -1.
</event>
<event>
 8    1  0.3654190E-009  0.1191987E+03  0.7561462E-02  0.1244425E+00
          4   -1    0    0  501    0  0.00000000000E+00  0.00000000000E+00  0.99895245947E+02  0.99895245947E+02  0.00000000000E+00 0. -1.
         -4   -1    0    0    0  501 -0.00000000000E+00 -0.00000000000E+00 -0.19108160562E+03  0.19108160562E+03  0.00000000000E+00 0.  1.
         25    2    1    2    0    0  0.38286646248E+01  0.83698173817E+02 -0.41320053617E+02  0.15612475916E+03  0.12509016995E+03 0.  0.
         23    2    1    2    0    0 -0.38286646248E+01 -0.83698173817E+02 -0.49866306060E+02  0.13485209241E+03  0.93157905596E+02 0.  0.
          5    1    3    3  502    0  0.39092282997E+02 -0.13182624925E+02  0.72262290441E+01  0.42091317109E+02  0.41800000000E+01 0. -1.
         -5    1    3    3    0  502 -0.35263618372E+02  0.96880798742E+02 -0.48546282661E+02  0.11403344205E+03  0.41800000000E+01 0. -1.
        -11    1    4    4    0    0 -0.14248505977E+02 -0.61784587854E+01 -0.54331796631E+02  0.56507852558E+02  0.00000000000E+00 0.  1.
         11    1    4    4    0    0  0.10419841352E+02 -0.77519715031E+02  0.44654905717E+01  0.78344239854E+02  0.00000000000E+00 0. -1.
</event>
<event>
 8    1  0.3654190E-009  0.1186864E+03  0.7561462E-02  0.1245280E+00
          1   -1    0    0  501    0  0.00000000000E+00  0.00000000000E+00  0.78199308431E+02  0.78199308431E+02  0.00000000000E+00 0. -1.
         -1   -1    0    0    0  501 -0.00000000000E+00 -0.00000000000E+00 -0.31721319938E+03  0.31721319938E+03  0.00000000000E+00 0.  1.
         25    2    1    2    0    0 -0.26334027955E+02  0.47122119615E+02 -0.25657704520E+03  0.29050565525E+03  0.12509108850E+03 0.  0.
         23    2    1    2    0    0  0.26334027955E+02 -0.47122119615E+02  0.17563154251E+02  0.10490685256E+03  0.88221358765E+02 0.  0.
          5    1    3    3  502    0  0.41636585087E+02  0.51754679369E+02 -0.14768972344E+03  0.16199345315E+03  0.41800000000E+01 0. -1.
         -5    1    3    3    0  502 -0.67970613042E+02 -0.46325597546E+01 -0.10888732177E+03  0.12851220210E+03  0.41800000000E+01 0. -1.
        -11    1    4    4    0    0  0.56176440248E+02 -0.46150928239E+02  0.62267253049E+01  0.72968984673E+02  0.00000000000E+00 0. -1.
         11    1    4    4    0    0 -0.29842412293E+02 -0.97119137594E+00  0.11336428946E+02  0.31937867891E+02  0.00000000000E+00 0.  1.
</event>
<event>
 8    1  0.3654190E-009  0.1476215E+03  0.7561462E-02  0.1203426E+00
          1   -1    0    0  501    0  0.00000000000E+00  0.00000000000E+00  0.14031942672E+03  0.14031942672E+03  0.00000000000E+00 0. -1.
         -1   -1    0    0    0  501 -0.00000000000E+00 -0.00000000000E+00 -0.17590480242E+03  0.17590480242E+03  0.00000000000E+00 0.  1.
         25    2    1    2    0    0 -0.11364296887E+03 -0.55696354157E+01 -0.26215671869E+02  0.17111870546E+03  0.12509438315E+03 0.  0.
         23    2    1    2    0    0  0.11364296887E+03  0.55696354157E+01 -0.93697038296E+01  0.14510552368E+03  0.89566045129E+02 0.  0.
          5    1    3    3  502    0 -0.42372690084E+02 -0.50997539936E+02  0.26383893861E+02  0.71482698604E+02  0.41800000000E+01 0.  1.
         -5    1    3    3    0  502 -0.71270278790E+02  0.45427904520E+02 -0.52599565730E+02  0.99636006859E+02  0.41800000000E+01 0.  1.
        -11    1    4    4    0    0  0.44165573622E+02  0.46026500110E+02 -0.10788204577E+02  0.64694837227E+02  0.00000000000E+00 0.  1.
         11    1    4    4    0    0  0.69477395251E+02 -0.40456864694E+02  0.14185007471E+01  0.80410686455E+02  0.00000000000E+00 0. -1.
</event>
<event>
 8    1  0.3654190E-009  0.3359194E+03  0.7561462E-02  0.1068547E+00
          2   -1    0    0  501    0  0.00000000000E+00  0.00000000000E+00  0.46904425575E+03  0.46904425575E+03  0.00000000000E+00 0. -1.
         -2   -1    0    0    0  501 -0.00000000000E+00 -0.00000000000E+00 -0.28551437084E+03  0.28551437084E+03  0.00000000000E+00 0.  1.
         25    2    1    2    0    0  0.31737268620E+03  0.91447052216E+02 -0.23939026107E+02  0.35399114286E+03  0.12509463198E+03 0.  0.
         23    2    1    2    0    0 -0.31737268620E+03 -0.91447052216E+02  0.20746891102E+03  0.40056748372E+03  0.91230338540E+02 0.  0.
          5    1    3    3  502    0  0.16169629708E+03  0.40500109435E+02  0.50211724767E+02  0.17413971706E+03  0.41800000000E+01 0.  1.
         -5    1    3    3    0  502  0.15567638912E+03  0.50946942780E+02 -0.74150750875E+02  0.17985142580E+03  0.41800000000E+01 0.  1.
        -11    1    4    4    0    0 -0.14713196388E+03 -0.87026789946E+02  0.85766380080E+02  0.19125205598E+03  0.00000000000E+00 0. -1.
         11    1    4    4    0    0 -0.17024072232E+03 -0.44202622697E+01  0.12170253094E+03  0.20931542774E+03  0.00000000000E+00 0.  1.
</event>
<event>
 8    1  0.3654190E-009  0.9735942E+02  0.7561462E-02  0.1285949E+00
          1   -1    0    0  501    0  0.00000000000E+00  0.00000000000E+00  0.19865549123E+03  0.19865549123E+03  0.00000000000E+00 0. -1.
         -1   -1    0    0    0  501 -0.00000000000E+00 -0.00000000000E+00 -0.75931752901E+02  0.75931752901E+02  0.00000000000E+00 0.  1.
         25    2    1    2    0    0  0.52950917727E+02  0.19565694700E+02  0.82207560283E+02  0.15997753719E+03  0.12509241919E+03 0.  0.
         23    2    1    2    0    0 -0.52950917727E+02 -0.19565694700E+02  0.40516178045E+02  0.11460970694E+03  0.91143887042E+02 0.  0.
          5    1    3    3  502    0 -0.21289455098E+02  0.51698200989E+02  0.29732963335E+02  0.63462322621E+02  0.41800000000E+01 0.  1.
         -5    1    3    3    0  502  0.74240372825E+02 -0.32132506289E+02  0.52474596948E+02  0.96515214564E+02  0.41800000000E+01 0.  1.
        -11    1    4    4    0    0 -0.19948627471E+02 -0.14494334318E+01 -0.29190882423E+02  0.35385819361E+02  0.00000000000E+00 0.  1.
         11    1    4    4    0    0 -0.33002290256E+02 -0.18116261268E+02  0.69707060468E+02  0.79223887582E+02  0.00000000000E+00 0. -1.
</event>
<event>
 8    1  0.3654190E-009  0.1169941E+03  0.7561462E-02  0.1248140E+00
         -1   -1    0    0    0  501 -0.00000000000E+00  0.00000000000E+00  0.47261804771E+03  0.47261804771E+03  0.00000000000E+00 0.  1.
          1   -1    0    0  501    0  0.00000000000E+00 -0.00000000000E+00 -0.52038030700E+02  0.52038030700E+02  0.00000000000E+00 0. -1.
         25    2    1    2    0    0  0.34513108679E+02  0.91645940982E+02  0.31727844213E+03  0.35482982139E+03  0.12509380137E+03 0.  0.
         23    2    1    2    0    0 -0.34513108679E+02 -0.91645940982E+02  0.10330157488E+03  0.16982625702E+03  0.92626178969E+02 0.  0.
          5    1    3    3  502    0  0.46221013368E+02  0.70290607747E+02  0.31912214895E+03  0.33005085966E+03  0.41800000000E+01 0. -1.
         -5    1    3    3    0  502 -0.11707904690E+02  0.21355333235E+02 -0.18437068180E+01  0.24778961734E+02  0.41800000000E+01 0. -1.
        -11    1    4    4    0    0 -0.46136064556E+01 -0.94864009015E+02  0.10250759263E+03  0.13974359419E+03  0.00000000000E+00 0.  1.
         11    1    4    4    0    0 -0.29899502223E+02  0.32180680336E+01  0.79398225725E+00  0.30082662829E+02  0.00000000000E+00 0. -1.
</event>
<event>
 8    1  0.3654190E-009  0.1386407E+03  0.7561462E-02  0.1215170E+00
         -1   -1    0    0    0  501 -0.00000000000E+00  0.00000000000E+00  0.88501095515E+02  0.88501095515E+02  0.00000000000E+00 0.  1.
          1   -1    0    0  501    0  0.00000000000E+00 -0.00000000000E+00 -0.27644634327E+03  0.27644634327E+03  0.00000000000E+00 0. -1.
         25    2    1    2    0    0 -0.29862500791E+02 -0.92676873182E+02 -0.16253971753E+03  0.22704060243E+03  0.12508998202E+03 0.  0.
         23    2    1    2    0    0  0.29862500791E+02  0.92676873182E+02 -0.25405530222E+02  0.13790683635E+03  0.94297840753E+02 0.  0.
          5    1    3    3  502    0  0.47887193545E+02 -0.37135541968E+02 -0.81729376818E+02  0.10183022743E+03  0.41800000000E+01 0.  1.
         -5    1    3    3    0  502 -0.77749694336E+02 -0.55541331214E+02 -0.80810340712E+02  0.12521037500E+03  0.41800000000E+01 0.  1.
        -11    1    4    4    0    0  0.92894490489E+01 -0.11457245953E+02 -0.28088756559E+02  0.31726023916E+02  0.00000000000E+00 0. -1.
         11    1    4    4    0    0  0.20573051742E+02  0.10413411914E+03  0.26832263371E+01  0.10618081244E+03  0.00000000000E+00 0.  1.
</event>
<event>
 8    1  0.3654190E-009  0.1156100E+03  0.7561462E-02  0.1250520E+00
         -3   -1    0    0    0  501 -0.00000000000E+00  0.00000000000E+00  0.23294603111E+02  0.23294603111E+02  0.00000000000E+00 0.  1.
          3   -1    0    0  501    0  0.00000000000E+00 -0.00000000000E+00 -0.98703112775E+03  0.98703112775E+03  0.00000000000E+00 0. -1.
         25    2    1    2    0    0  0.14729081017E+02 -0.69859603577E+02 -0.78244066662E+03  0.79558767064E+03  0.12509610245E+03 0.  0.
         23    2    1    2    0    0 -0.14729081017E+02  0.69859603577E+02 -0.18129585802E+03  0.21473806023E+03  0.90260380760E+02 0.  0.
          5    1    3    3  502    0  0.60457211403E+02 -0.58534090876E+02 -0.32631926936E+03  0.33702084826E+03  0.41800000000E+01 0.  1.
         -5    1    3    3    0  502 -0.45728130386E+02 -0.11325512701E+02 -0.45612139726E+03  0.45856682238E+03  0.41800000000E+01 0.  1.
        -11    1    4    4    0    0 -0.40468651916E+02  0.59426308499E+02 -0.17032185087E+03  0.18487490585E+03  0.00000000000E+00 0. -1.
         11    1    4    4    0    0  0.25739570900E+02  0.10433295078E+02 -0.10974007149E+02  0.29863154374E+02  0.00000000000E+00 0.  1.
</event>
<event>
 8    1  0.3654190E-009  0.1733231E+03  0.7561462E-02  0.1174426E+00
          1   -1    0    0  501    0  0.00000000000E+00  0.00000000000E+00  0.10541072506E+03  0.10541072506E+03  0.00000000000E+00 0. -1.
         -1   -1    0    0    0  501 -0.00000000000E+00 -0.00000000000E+00 -0.32750067329E+03  0.32750067329E+03  0.00000000000E+00 0.  1.
         25    2    1    2    0    0  0.98215662131E+02 -0.10270280752E+03 -0.58738247645E+02  0.19822126976E+03  0.12508919653E+03 0.  0.
         23    2    1    2    0    0 -0.98215662131E+02  0.10270280752E+03 -0.16335170058E+03  0.23469012859E+03  0.90562108043E+02 0.  0.
          5    1    3    3  502    0  0.12264182623E+03 -0.80186858283E+02 -0.21523251870E+02  0.14816096839E+03  0.41800000000E+01 0. -1.
         -5    1    3    3    0  502 -0.24426164103E+02 -0.22515949238E+02 -0.37214995775E+02  0.50060301372E+02  0.41800000000E+01 0. -1.
        -11    1    4    4    0    0 -0.74990236509E+02  0.15820016528E+02 -0.57626301222E+02  0.95888472129E+02  0.00000000000E+00 0. -1.
         11    1    4    4    0    0 -0.23225425621E+02  0.86882790994E+02 -0.10572539936E+03  0.13880165646E+03  0.00000000000E+00 0.  1.
</event>
<event>
 8    1  0.3654190E-009  0.1760051E+03  0.7561462E-02  0.1171726E+00
         -2   -1    0    0    0  501 -0.00000000000E+00  0.00000000000E+00  0.46165826968E+02  0.46165826968E+02  0.00000000000E+00 0.  1.
          2   -1    0    0  501    0  0.00000000000E+00 -0.00000000000E+00 -0.73373990171E+03  0.73373990171E+03  0.00000000000E+00 0. -1.
         25    2    1    2    0    0 -0.55271315500E+02 -0.12911610244E+03 -0.25868123136E+03  0.31982748524E+03  0.12509098540E+03 0.  0.
         23    2    1    2    0    0  0.55271315500E+02  0.12911610244E+03 -0.42889284339E+03  0.46007824345E+03  0.89426130161E+02 0.  0.
          5    1    3    3  502    0 -0.38278580398E+02 -0.15272848705E+03 -0.22999260360E+03  0.27875672294E+03  0.41800000000E+01 0.  1.
         -5    1    3    3    0  502 -0.16992735102E+02  0.23612384606E+02 -0.28688627755E+02  0.41070762295E+02  0.41800000000E+01 0.  1.
        -11    1    4    4    0    0  0.78649245151E+02  0.89812264195E+02 -0.33511141845E+03  0.35574093008E+03  0.00000000000E+00 0. -1.
         11    1    4    4    0    0 -0.23377929652E+02  0.39303838248E+02 -0.93781424942E+02  0.10433731336E+03  0.00000000000E+00 0.  1.
</event>
<event>
 8    1  0.3654190E-009  0.1974102E+03  0.7561462E-02  0.1151943E+00
         -2   -1    0    0    0  501 -0.00000000000E+00  0.00000000000E+00  0.26499063540E+02  0.26499063540E+02  0.00000000000E+00 0. -1.
          2   -1    0    0  501    0  0.00000000000E+00 -0.00000000000E+00 -0.17846568016E+04  0.17846568016E+04  0.00000000000E+00 0.  1.
         25    2    1    2    0    0 -0.13216830240E+03  0.12884087343E+03 -0.10711128134E+04  0.10940738766E+04  0.12508620124E+03 0.  0.
         23    2    1    2    0    0  0.13216830240E+03 -0.12884087343E+03 -0.68704492468E+03  0.71708198850E+03  0.90041206516E+02 0.  0.
          5    1    3    3  502    0  0.15242091789E+02  0.21590558492E+02 -0.49060431515E+02  0.55882662057E+02  0.41800000000E+01 0.  1.
         -5    1    3    3    0  502 -0.14741039419E+03  0.10725031494E+03 -0.10220523819E+04  0.10381912146E+04  0.41800000000E+01 0.  1.
        -11    1    4    4    0    0  0.14626616138E+02 -0.24559172643E+02 -0.29715146829E+02  0.41232036229E+02  0.00000000000E+00 0.  1.
         11    1    4    4    0    0  0.11754168626E+03 -0.10428170079E+03 -0.65732977785E+03  0.67584995227E+03  0.00000000000E+00 0. -1.
</event>
<event>
 8    1  0.3654190E-009  0.1042053E+03  0.7561462E-02  0.1271693E+00
          4   -1    0    0  501    0  0.00000000000E+00  0.00000000000E+00  0.98018357121E+02  0.98018357121E+02  0.00000000000E+00 0. -1.
         -4   -1    0    0    0  501 -0.00000000000E+00 -0.00000000000E+00 -0.16552361245E+03  0.16552361245E+03  0.00000000000E+00 0.  1.
         25    2    1    2    0    0 -0.29663433327E+01  0.62740489719E+02 -0.22715225219E+02  0.14180041678E+03  0.12508480523E+03 0.  0.
         23    2    1    2    0    0  0.29663433327E+01 -0.62740489719E+02 -0.44790030115E+02  0.12174155280E+03  0.94179035020E+02 0.  0.
          5    1    3    3  502    0  0.32050598312E+02  0.59848401506E+01 -0.57677349354E+02  0.66386807367E+02  0.41800000000E+01 0.  1.
         -5    1    3    3    0  502 -0.35016941645E+02  0.56755649569E+02  0.34962124136E+02  0.75413609410E+02  0.41800000000E+01 0.  1.
        -11    1    4    4    0    0 -0.40416660631E+02 -0.48337425228E+02 -0.42443106662E+02  0.75969931140E+02  0.00000000000E+00 0.  1.
         11    1    4    4    0    0  0.43383003964E+02 -0.14403064491E+02 -0.23469234530E+01  0.45771621659E+02  0.00000000000E+00 0. -1.
</event>
<event>
 8    1  0.3654190E-009  0.1892803E+03  0.7561462E-02  0.1159112E+00
          1   -1    0    0  501    0  0.00000000000E+00  0.00000000000E+00  0.25608120962E+03  0.25608120962E+03  0.00000000000E+00 0. -1.
         -1   -1    0    0    0  501 -0.00000000000E+00 -0.00000000000E+00 -0.17928767612E+03  0.17928767612E+03  0.00000000000E+00 0.  1.
         25    2    1    2    0    0 -0.14256833885E+03  0.62085167818E+02 -0.61276943946E+02  0.20875811118E+03  0.12507911824E+03 0.  0.
         23    2    1    2    0    0  0.14256833885E+03 -0.62085167818E+02  0.13807047745E+03  0.22661077457E+03  0.90048248748E+02 0.  0.
          5    1    3    3  502    0 -0.53486767266E+02  0.90946199973E+02 -0.37538850009E+02  0.11206553093E+03  0.41800000000E+01 0.  1.
         -5    1    3    3    0  502 -0.89081571580E+02 -0.28861032156E+02 -0.23738093938E+02  0.96692580253E+02  0.41800000000E+01 0.  1.
        -11    1    4    4    0    0  0.13645860473E+03 -0.21438254796E+02  0.11300388919E+03  0.17846688361E+03  0.00000000000E+00 0.  1.
         11    1    4    4    0    0  0.61097341120E+01 -0.40646913022E+02  0.25066588254E+02  0.48143890950E+02  0.00000000000E+00 0. -1.
</event>
<event>
 8    1  0.3654190E-009  0.1272948E+03  0.7561462E-02  0.1231526E+00
         -1   -1    0    0    0  501 -0.00000000000E+00  0.00000000000E+00  0.37245875440E+02  0.37245875440E+02  0.00000000000E+00 0.  1.
          1   -1    0    0  501    0  0.00000000000E+00 -0.00000000000E+00 -0.73275975564E+03  0.73275975564E+03  0.00000000000E+00 0. -1.
         25    2    1    2    0    0 -0.31162700811E+02 -0.79247099986E+02 -0.58156118931E+03  0.60092639998E+03  0.12509158447E+03 0.  0.
         23    2    1    2    0    0  0.31162700811E+02  0.79247099986E+02 -0.11395269089E+03  0.16907923110E+03  0.91385742047E+02 0.  0.
          5    1    3    3  502    0  0.42946026585E+02 -0.58646570042E+02 -0.32468713036E+03  0.33275063696E+03  0.41800000000E+01 0.  1.
         -5    1    3    3    0  502 -0.74108727396E+02 -0.20600529944E+02 -0.25687405895E+03  0.26817576302E+03  0.41800000000E+01 0.  1.
        -11    1    4    4    0    0 -0.18662068295E+02  0.22439902041E+02  0.35259249809E+01  0.29398199666E+02  0.00000000000E+00 0.  1.
         11    1    4    4    0    0  0.49824769106E+02  0.56807197946E+02 -0.11747861587E+03  0.13968103143E+03  0.00000000000E+00 0. -1.
</event>
<event>
 8    1  0.3654190E-009  0.1777342E+03  0.7561462E-02  0.1170014E+00
          1   -1    0    0  501    0  0.00000000000E+00  0.00000000000E+00  0.29656763995E+03  0.29656763995E+03  0.00000000000E+00 0. -1.
         -1   -1    0    0    0  501 -0.00000000000E+00 -0.00000000000E+00 -0.13317077058E+03  0.13317077058E+03  0.00000000000E+00 0.  1.
         25    2    1    2    0    0  0.27256197652E+01  0.15595394180E+03  0.24605127145E+02  0.20145007141E+03  0.12509059927E+03 0.  0.
         23    2    1    2    0    0 -0.27256197652E+01 -0.15595394180E+03  0.13879174223E+03  0.22828833912E+03  0.92322029348E+02 0.  0.
          5    1    3    3  502    0 -0.15465971100E+02 -0.17978803932E+02  0.94296112080E+01  0.25861624474E+02  0.41800000000E+01 0. -1.
         -5    1    3    3    0  502  0.18191590865E+02  0.17393274573E+03  0.15175515937E+02  0.17558844694E+03  0.41800000000E+01 0. -1.
        -11    1    4    4    0    0 -0.74767513939E+01 -0.78115107477E+02  0.11929103582E+02  0.79373643862E+02  0.00000000000E+00 0.  1.
         11    1    4    4    0    0  0.47511316287E+01 -0.77838834318E+02  0.12686263865E+03  0.14891469526E+03  0.00000000000E+00 0. -1.
</event>
<event>
 8    1  0.3654190E-009  0.1255758E+03  0.7561462E-02  0.1234172E+00
          1   -1    0    0  501    0  0.00000000000E+00  0.00000000000E+00  0.30636431094E+03  0.30636431094E+03  0.00000000000E+00 0. -1.
         -1   -1    0    0    0  501 -0.00000000000E+00 -0.00000000000E+00 -0.53405125012E+02  0.53405125012E+02  0.00000000000E+00 0.  1.
         25    2    1    2    0    0 -0.42240220052E+02  0.50658249009E+02  0.16258791104E+03  0.21548189155E+03  0.12508845825E+03 0.  0.
         23    2    1    2    0    0  0.42240220052E+02 -0.50658249009E+02  0.90371274892E+02  0.14428754440E+03  0.91112204240E+02 0.  0.
          5    1    3    3  502    0 -0.49203016464E+02 -0.30018697637E+02  0.88191635821E+02  0.10543858907E+03  0.41800000000E+01 0.  1.
         -5    1    3    3    0  502  0.69627964118E+01  0.80676946646E+02  0.74396275219E+02  0.11004330248E+03  0.41800000000E+01 0.  1.
        -11    1    4    4    0    0  0.71169168166E+02 -0.38296594908E+02  0.61089668534E+02  0.10130956164E+03  0.00000000000E+00 0.  1.
         11    1    4    4    0    0 -0.28928948114E+02 -0.12361654101E+02  0.29281606359E+02  0.42977982759E+02  0.00000000000E+00 0. -1.
</event>
<event>
 8    1  0.3654190E-009  0.7937180E+02  0.7561462E-02  0.1330844E+00
         -2   -1    0    0    0  501 -0.00000000000E+00  0.00000000000E+00  0.93416625361E+02  0.93416625361E+02  0.00000000000E+00 0.  1.
          2   -1    0    0  501    0  0.00000000000E+00 -0.00000000000E+00 -0.16688913194E+03  0.16688913194E+03  0.00000000000E+00 0. -1.
         25    2    1    2    0    0 -0.39390436345E+02  0.16091012789E+02 -0.89283886957E+02  0.15946546077E+03  0.12508834295E+03 0.  0.
         23    2    1    2    0    0  0.39390436345E+02 -0.16091012789E+02  0.15811380379E+02  0.10084029653E+03  0.90045757738E+02 0.  0.
          5    1    3    3  502    0  0.72523402534E+01 -0.31454638819E+02 -0.86779588270E+02  0.92683116492E+02  0.41800000000E+01 0.  1.
         -5    1    3    3    0  502 -0.46642776598E+02  0.47545651608E+02 -0.25042986877E+01  0.66782344280E+02  0.41800000000E+01 0.  1.
        -11    1    4    4    0    0  0.87573482267E+01 -0.25862552979E+02  0.48076370268E+02  0.55289241021E+02  0.00000000000E+00 0.  1.
         11    1    4    4    0    0  0.30633088118E+02  0.97715401901E+01 -0.32264989889E+02  0.45551055508E+02  0.00000000000E+00 0. -1.
</event>
<event>
 8    1  0.3654190E-009  0.1092030E+03  0.7561462E-02  0.1262053E+00
         -2   -1    0    0    0  501 -0.00000000000E+00  0.00000000000E+00  0.27104280982E+03  0.27104280982E+03  0.00000000000E+00 0.  1.
          2   -1    0    0  501    0  0.00000000000E+00 -0.00000000000E+00 -0.52901581191E+02  0.52901581191E+02  0.00000000000E+00 0. -1.
         25    2    1    2    0    0 -0.50626765436E+01 -0.20531195284E+01  0.57879820619E+02  0.13793246220E+03  0.12508175127E+03 0.  0.
         23    2    1    2    0    0  0.50626765436E+01  0.20531195284E+01  0.16026140801E+03  0.18601192881E+03  0.94270211466E+02 0.  0.
          5    1    3    3  502    0  0.50061120515E+02  0.31583857947E+02  0.18389648070E+02  0.62123324334E+02  0.41800000000E+01 0. -1.
         -5    1    3    3    0  502 -0.55123797059E+02 -0.33636977476E+02  0.39490172549E+02  0.75809137865E+02  0.41800000000E+01 0. -1.
        -11    1    4    4    0    0 -0.18292264350E+02 -0.41267822132E+02  0.73028859111E+02  0.85853679837E+02  0.00000000000E+00 0.  1.
         11    1    4    4    0    0  0.23354940894E+02  0.43320941660E+02  0.87232548900E+02  0.10015824898E+03  0.00000000000E+00 0. -1.
</event>
<event>
 8    1  0.3654190E-009  0.1272443E+03  0.7561462E-02  0.1231603E+00
         -1   -1    0    0    0  501 -0.00000000000E+00  0.00000000000E+00  0.33578032379E+02  0.33578032379E+02  0.00000000000E+00 0.  1.
          1   -1    0    0  501    0  0.00000000000E+00 -0.00000000000E+00 -0.63367212173E+03  0.63367212173E+03  0.00000000000E+00 0. -1.
         25    2    1    2    0    0  0.14353385914E+02 -0.92234869654E+02 -0.25701959796E+03  0.30069881915E+03  0.12508962881E+03 0.  0.
         23    2    1    2    0    0 -0.14353385914E+02  0.92234869654E+02 -0.34307449138E+03  0.36655133495E+03  0.89143051608E+02 0.  0.
          5    1    3    3  502    0 -0.32620485471E+02 -0.70669701731E+02 -0.22868948266E+03  0.24160847397E+03  0.41800000000E+01 0.  1.
         -5    1    3    3    0  502  0.46973871385E+02 -0.21565167923E+02 -0.28330115300E+02  0.59090345178E+02  0.41800000000E+01 0.  1.
        -11    1    4    4    0    0 -0.11150840383E+02  0.10801208806E+03 -0.25722490703E+03  0.27920531013E+03  0.00000000000E+00 0.  1.
         11    1    4    4    0    0 -0.32025455316E+01 -0.15777218407E+02 -0.85849584355E+02  0.87346024823E+02  0.00000000000E+00 0. -1.
</event>
<event>
 8    1  0.3654190E-009  0.1598000E+03  0.7561462E-02  0.1188923E+00
          4   -1    0    0  501    0  0.00000000000E+00  0.00000000000E+00  0.50884717284E+02  0.50884717284E+02  0.00000000000E+00 0. -1.
         -4   -1    0    0    0  501 -0.00000000000E+00 -0.00000000000E+00 -0.74224510901E+03  0.74224510901E+03  0.00000000000E+00 0.  1.
         25    2    1    2    0    0  0.10245642545E+03  0.12030474693E+03 -0.29854867733E+03  0.36020878839E+03  0.12509399365E+03 0.  0.
         23    2    1    2    0    0 -0.10245642545E+03 -0.12030474693E+03 -0.39281171439E+03  0.43292103790E+03  0.90271982621E+02 0.  0.
          5    1    3    3  502    0  0.90782266149E+02  0.86418591109E+02 -0.29887966602E+03  0.32412361823E+03  0.41800000000E+01 0.  1.
         -5    1    3    3    0  502  0.11674159301E+02  0.33886155817E+02  0.33098869123E+00  0.36085170153E+02  0.41800000000E+01 0.  1.
        -11    1    4    4    0    0 -0.58708045099E+02 -0.72931662679E+02 -0.32953454923E+03  0.34257653323E+03  0.00000000000E+00 0.  1.
         11    1    4    4    0    0 -0.43748380351E+02 -0.47373084247E+02 -0.63277165161E+02  0.90344504676E+02  0.00000000000E+00 0. -1.
</event>
<event>
 8    1  0.3654190E-009  0.1017412E+03  0.7561462E-02  0.1276676E+00
          2   -1    0    0  501    0  0.00000000000E+00  0.00000000000E+00  0.61287681611E+03  0.61287681611E+03  0.00000000000E+00 0. -1.
         -2   -1    0    0    0  501 -0.00000000000E+00 -0.00000000000E+00 -0.26307011207E+02  0.26307011207E+02  0.00000000000E+00 0.  1.
         25    2    1    2    0    0 -0.56574065262E+02  0.16513186232E+01  0.25654866532E+03  0.29097769676E+03  0.12508977026E+03 0.  0.
         23    2    1    2    0    0  0.56574065262E+02 -0.16513186232E+01  0.33002113958E+03  0.34820613055E+03  0.95552106569E+02 0.  0.
          5    1    3    3  502    0 -0.20041040071E+00 -0.30730374315E+02  0.20652630340E+03  0.20884200359E+03  0.41800000000E+01 0.  1.
         -5    1    3    3    0  502 -0.56373654862E+02  0.32381692938E+02  0.50022361918E+02  0.82135693166E+02  0.41800000000E+01 0.  1.
        -11    1    4    4    0    0  0.43692405299E+02 -0.44628585136E+02  0.23447073038E+03  0.24264636881E+03  0.00000000000E+00 0.  1.
         11    1    4    4    0    0  0.12881659963E+02  0.42977266513E+02  0.95550409206E+02  0.10555976175E+03  0.00000000000E+00 0. -1.
</event>
<event>
 8    1  0.3654190E-009  0.1020996E+03  0.7561462E-02  0.1275942E+00
         -1   -1    0    0    0  501 -0.00000000000E+00  0.00000000000E+00  0.62659835105E+02  0.62659835105E+02  0.00000000000E+00 0.  1.
          1   -1    0    0  501    0  0.00000000000E+00 -0.00000000000E+00 -0.22758283303E+03  0.22758283303E+03  0.00000000000E+00 0. -1.
         25    2    1    2    0    0  0.26020479721E+02  0.38250122080E+02 -0.67451100305E+02  0.14945721854E+03  0.12509065527E+03 0.  0.
         23    2    1    2    0    0 -0.26020479721E+02 -0.38250122080E+02 -0.97471897616E+02  0.14078544960E+03  0.90441333409E+02 0.  0.
          5    1    3    3  502    0  0.49762020684E+02 -0.22554853019E+02 -0.63579624527E+02  0.83933432863E+02  0.41800000000E+01 0. -1.
         -5    1    3    3    0  502 -0.23741540963E+02  0.60804975100E+02 -0.38714757786E+01  0.65523785673E+02  0.41800000000E+01 0. -1.
        -11    1    4    4    0    0  0.13044512215E+02 -0.42727698530E+02 -0.90396418904E+02  0.10083316950E+03  0.00000000000E+00 0. -1.
         11    1    4    4    0    0 -0.39064991936E+02  0.44775764503E+01 -0.70754787114E+01  0.39952280095E+02  0.00000000000E+00 0.  1.
</event>
<event>
 8    1  0.3654190E-009  0.1037706E+03  0.7561462E-02  0.1272561E+00
          2   -1    0    0  501    0  0.00000000000E+00  0.00000000000E+00  0.11465603508E+04  0.11465603508E+04  0.00000000000E+00 0.  1.
         -2   -1    0    0    0  501 -0.00000000000E+00 -0.00000000000E+00 -0.12104965683E+02  0.12104965683E+02  0.00000000000E+00 0. -1.
         25    2    1    2    0    0 -0.37879647128E+02  0.25587188793E+02  0.65715599657E+03  0.67051603652E+03  0.12509268365E+03 0.  0.
         23    2    1    2    0    0  0.37879647128E+02 -0.25587188793E+02  0.47729938853E+03  0.48814927995E+03  0.91572055376E+02 0.  0.
          5    1    3    3  502    0 -0.36825917869E+02 -0.32216810924E+02  0.50994830514E+03  0.51230734666E+03  0.41800000000E+01 0.  1.
         -5    1    3    3    0  502 -0.10537292588E+01  0.57803999717E+02  0.14720769144E+03  0.15820868986E+03  0.41800000000E+01 0.  1.
        -11    1    4    4    0    0 -0.21031655528E+02 -0.34978116133E+02  0.14977434670E+03  0.15523580152E+03  0.00000000000E+00 0. -1.
         11    1    4    4    0    0  0.58911302656E+02  0.93909273400E+01  0.32752504183E+03  0.33291347843E+03  0.00000000000E+00 0.  1.
</event>
<event>
 8    1  0.3654190E-009  0.1095137E+03  0.7561462E-02  0.1261473E+00
          2   -1    0    0  501    0  0.00000000000E+00  0.00000000000E+00  0.65973928563E+03  0.65973928563E+03  0.00000000000E+00 0. -1.
         -2   -1    0    0    0  501 -0.00000000000E+00 -0.00000000000E+00 -0.19903468517E+02  0.19903468517E+02  0.00000000000E+00 0.  1.
         25    2    1    2    0    0  0.60977832402E+01 -0.36310208001E+02  0.42465545461E+03  0.44422644242E+03  0.12509701375E+03 0.  0.
         23    2    1    2    0    0 -0.60977832402E+01  0.36310208001E+02  0.21518036250E+03  0.23541631173E+03  0.88105829860E+02 0.  0.
          5    1    3    3  502    0  0.54807913359E+02  0.16988223683E+02  0.16817781645E+03  0.17774632896E+03  0.41800000000E+01 0.  1.
         -5    1    3    3    0  502 -0.48710130119E+02 -0.53298431685E+02  0.25647763816E+03  0.26648011346E+03  0.41800000000E+01 0.  1.
        -11    1    4    4    0    0 -0.30526843521E+02  0.51884566389E+02  0.10065281042E+03  0.11728122036E+03  0.00000000000E+00 0.  1.
         11    1    4    4    0    0  0.24429060281E+02 -0.15574358387E+02  0.11452755208E+03  0.11813509137E+03  0.00000000000E+00 0. -1.
</event>
<event>
 8    1  0.3654190E-009  0.9014290E+02  0.7561462E-02  0.1302506E+00
         -1   -1    0    0    0  501 -0.00000000000E+00  0.00000000000E+00  0.23060208776E+02  0.23060208776E+02  0.00000000000E+00 0.  1.
          1   -1    0    0  501    0  0.00000000000E+00 -0.00000000000E+00 -0.52460481013E+03  0.52460481013E+03  0.00000000000E+00 0. -1.
         25    2    1    2    0    0 -0.75951812630E+01  0.84414065401E+01 -0.33831636974E+03  0.36088335569E+03  0.12509950542E+03 0.  0.
         23    2    1    2    0    0  0.75951812630E+01 -0.84414065401E+01 -0.16322823162E+03  0.18678166322E+03  0.90083239260E+02 0.  0.
          5    1    3    3  502    0  0.50433918678E+02  0.31224713934E+02 -0.20848729689E+03  0.21680172572E+03  0.41800000000E+01 0. -1.
         -5    1    3    3    0  502 -0.58029099941E+02 -0.22783307394E+02 -0.12982907285E+03  0.14408162997E+03  0.41800000000E+01 0. -1.
        -11    1    4    4    0    0 -0.24970926279E+02 -0.60041566327E+01 -0.62361322219E+01  0.26428893303E+02  0.00000000000E+00 0.  1.
         11    1    4    4    0    0  0.32566107542E+02 -0.24372499074E+01 -0.15699209939E+03  0.16035276992E+03  0.00000000000E+00 0. -1.
</event>
<event>
 8    1  0.3654190E-009  0.6316331E+02  0.7561462E-02  0.1385017E+00
         -1   -1    0    0    0  501 -0.00000000000E+00  0.00000000000E+00  0.12355187177E+03  0.12355187177E+03  0.00000000000E+00 0.  1.
          1   -1    0    0  501    0  0.00000000000E+00 -0.00000000000E+00 -0.10232610118E+03  0.10232610118E+03  0.00000000000E+00 0. -1.
         25    2    1    2    0    0  0.26071760358E+02 -0.83427529418E+01  0.42059065349E+01  0.12812179329E+03  0.12509262988E+03 0.  0.
         23    2    1    2    0    0 -0.26071760358E+02  0.83427529418E+01  0.17019864057E+02  0.97756179665E+02  0.92288984583E+02 0.  0.
          5    1    3    3  502    0  0.25934588104E+02  0.17093913304E+02  0.59424201010E+02  0.67182682276E+02  0.41800000000E+01 0. -1.
         -5    1    3    3    0  502  0.13717225422E+00 -0.25436666246E+02 -0.55218294475E+02  0.60939111009E+02  0.41800000000E+01 0. -1.
        -11    1    4    4    0    0  0.17741113435E+02  0.16972722898E+02 -0.25992615735E+02  0.35755230404E+02  0.00000000000E+00 0. -1.
         11    1    4    4    0    0 -0.43812873793E+02 -0.86299699566E+01  0.43012479792E+02  0.62000949261E+02  0.00000000000E+00 0.  1.
</event>
<event>
 8    1  0.3654190E-009  0.1119464E+03  0.7561462E-02  0.1257007E+00
          1   -1    0    0  501    0  0.00000000000E+00  0.00000000000E+00  0.17705261481E+03  0.17705261481E+03  0.00000000000E+00 0. -1.
         -1   -1    0    0    0  501 -0.00000000000E+00 -0.00000000000E+00 -0.80694556911E+02  0.80694556911E+02  0.00000000000E+00 0.  1.
         25    2    1    2    0    0  0.16547912784E+02 -0.45876756981E+02  0.71024655802E+02  0.15189026735E+03  0.12509053256E+03 0.  0.
         23    2    1    2    0    0 -0.16547912784E+02  0.45876756981E+02  0.25333402093E+02  0.10585690437E+03  0.90473160065E+02 0.  0.
          5    1    3    3  502    0 -0.31438531159E+01 -0.81025251248E+02  0.75834754469E+02  0.11110066398E+03  0.41800000000E+01 0.  1.
         -5    1    3    3    0  502  0.19691765900E+02  0.35148494268E+02 -0.48100986668E+01  0.40789603366E+02  0.41800000000E+01 0.  1.
        -11    1    4    4    0    0 -0.51294474812E+01  0.72783818769E+02  0.12914559941E+02  0.74098457234E+02  0.00000000000E+00 0.  1.
         11    1    4    4    0    0 -0.11418465303E+02 -0.26907061788E+02  0.12418842152E+02  0.31758447133E+02  0.00000000000E+00 0. -1.
</event>
<event>
 8    1  0.3654190E-009  0.1000881E+03  0.7561462E-02  0.1280111E+00
         -3   -1    0    0    0  501 -0.00000000000E+00  0.00000000000E+00  0.28272573266E+02  0.28272573266E+02  0.00000000000E+00 0.  1.
          3   -1    0    0  501    0  0.00000000000E+00 -0.00000000000E+00 -0.42184040746E+03  0.42184040746E+03  0.00000000000E+00 0. -1.
         25    2    1    2    0    0  0.11131055043E+02 -0.57294862506E+01 -0.21654499065E+03  0.25038834352E+03  0.12508342096E+03 0.  0.
         23    2    1    2    0    0 -0.11131055043E+02  0.57294862506E+01 -0.17702284355E+03  0.19972463720E+03  0.91630323414E+02 0.  0.
          5    1    3    3  502    0  0.21410413039E+02  0.48947504092E+02 -0.16831457263E+03  0.17663955305E+03  0.41800000000E+01 0.  1.
         -5    1    3    3    0  502 -0.10279357996E+02 -0.54676990342E+02 -0.48230418016E+02  0.73748790470E+02  0.41800000000E+01 0.  1.
        -11    1    4    4    0    0 -0.50865738112E+02  0.40223260710E+01 -0.80246363411E+02  0.95094591126E+02  0.00000000000E+00 0.  1.
         11    1    4    4    0    0  0.39734683069E+02  0.17071601795E+01 -0.96776480136E+02  0.10463004608E+03  0.00000000000E+00 0. -1.
</event>
<event>
 8    1  0.3654190E-009  0.1396007E+03  0.7561462E-02  0.1213867E+00
          2   -1    0    0  501    0  0.00000000000E+00  0.00000000000E+00  0.81168580817E+03  0.81168580817E+03  0.00000000000E+00 0. -1.
         -2   -1    0    0    0  501 -0.00000000000E+00 -0.00000000000E+00 -0.36408069746E+02  0.36408069746E+02  0.00000000000E+00 0.  1.
         25    2    1    2    0    0  0.36663048210E+02 -0.12336624926E+03  0.52496224550E+03  0.55479393953E+03  0.12509014983E+03 0.  0.
         23    2    1    2    0    0 -0.36663048210E+02  0.12336624926E+03  0.25031549293E+03  0.29329993838E+03  0.82483921434E+02 0.  0.
          5    1    3    3  502    0  0.99103336547E+01 -0.97391333274E+02  0.50050334819E+03  0.51000427494E+03  0.41800000000E+01 0.  1.
         -5    1    3    3    0  502  0.26752714555E+02 -0.25974915988E+02  0.24458897304E+02  0.44789664589E+02  0.41800000000E+01 0.  1.
        -11    1    4    4    0    0 -0.41027404741E+02  0.31496988527E+02  0.14243339935E+03  0.15153409345E+03  0.00000000000E+00 0. -1.
         11    1    4    4    0    0  0.43643565318E+01  0.91869260735E+02  0.10788209357E+03  0.14176584493E+03  0.00000000000E+00 0.  1.
</event>
<event>
 8    1  0.3654190E-009  0.1861560E+03  0.7561462E-02  0.1161975E+00
         -2   -1    0    0    0  501 -0.00000000000E+00  0.00000000000E+00  0.27414861472E+02  0.27414861472E+02  0.00000000000E+00 0.  1.
          2   -1    0    0  501    0  0.00000000000E+00 -0.00000000000E+00 -0.13936776090E+04  0.13936776090E+04  0.00000000000E+00 0. -1.
         25    2    1    2    0    0  0.71791699120E+02 -0.14147322392E+03 -0.59309177145E+03  0.62655755622E+03  0.12509116974E+03 0.  0.
         23    2    1    2    0    0 -0.71791699120E+02  0.14147322392E+03 -0.77317097608E+03  0.79453491425E+03  0.91234042808E+02 0.  0.
          5    1    3    3  502    0  0.39854933687E+02 -0.15302878102E+03 -0.54527780875E+03  0.56776014713E+03  0.41800000000E+01 0. -1.
         -5    1    3    3    0  502  0.31936765433E+02  0.11555557100E+02 -0.47813962701E+02  0.58797409087E+02  0.41800000000E+01 0. -1.
        -11    1    4    4    0    0  0.13807967597E+02  0.60562094179E+02 -0.20156189855E+03  0.21091615910E+03  0.00000000000E+00 0.  1.
         11    1    4    4    0    0 -0.85599666717E+02  0.80911129740E+02 -0.57160907753E+03  0.58361875516E+03  0.00000000000E+00 0. -1.
</event>
<event>
 8    1  0.3654190E-009  0.1476087E+03  0.7561462E-02  0.1203443E+00
         -1   -1    0    0    0  501 -0.00000000000E+00  0.00000000000E+00  0.68626655579E+02  0.68626655579E+02  0.00000000000E+00 0.  1.
          1   -1    0    0  501    0  0.00000000000E+00 -0.00000000000E+00 -0.62297566199E+03  0.62297566199E+03  0.00000000000E+00 0. -1.
         25    2    1    2    0    0  0.11712428457E+03 -0.52793090986E+02 -0.88043173552E+02  0.19975291446E+03  0.12507764762E+03 0.  0.
         23    2    1    2    0    0 -0.11712428457E+03  0.52793090986E+02 -0.46630583286E+03  0.49184940311E+03  0.89272039796E+02 0.  0.
          5    1    3    3  502    0  0.86573972304E+02  0.50691998450E+01 -0.10071647123E+03  0.13297379232E+03  0.41800000000E+01 0. -1.
         -5    1    3    3    0  502  0.30550312268E+02 -0.57862290831E+02  0.12673297673E+02  0.66779122140E+02  0.41800000000E+01 0. -1.
        -11    1    4    4    0    0 -0.30915676667E+02 -0.13838597766E+02 -0.42959079101E+02  0.54706200097E+02  0.00000000000E+00 0.  1.
         11    1    4    4    0    0 -0.86208607906E+02  0.66631688752E+02 -0.42334675376E+03  0.43714320302E+03  0.00000000000E+00 0. -1.
</event>
<event>
 8    1  0.3654190E-009  0.9740620E+02  0.7561462E-02  0.1285847E+00
          1   -1    0    0  501    0  0.00000000000E+00  0.00000000000E+00  0.38768639028E+02  0.38768639028E+02  0.00000000000E+00 0. -1.
         -1   -1    0    0    0  501 -0.00000000000E+00 -0.00000000000E+00 -0.41512554627E+03  0.41512554627E+03  0.00000000000E+00 0.  1.
         25    2    1    2    0    0  0.63142315840E+02  0.17466476998E+02 -0.18915044060E+03  0.23604487933E+03  0.12508903233E+03 0.  0.
         23    2    1    2    0    0 -0.63142315840E+02 -0.17466476998E+02 -0.18720646664E+03  0.21784930597E+03  0.90111204029E+02 0.  0.
          5    1    3    3  502    0  0.88271972402E+02  0.37790125796E+02 -0.17672133470E+03  0.20116644168E+03  0.41800000000E+01 0. -1.
         -5    1    3    3    0  502 -0.25129656562E+02 -0.20323648798E+02 -0.12429105905E+02  0.34878437651E+02  0.41800000000E+01 0. -1.
        -11    1    4    4    0    0 -0.38712581364E+02 -0.61872558252E+01 -0.18687132993E+03  0.19093936220E+03  0.00000000000E+00 0.  1.
         11    1    4    4    0    0 -0.24429734476E+02 -0.11279221173E+02 -0.33513671255E+00  0.26909943765E+02  0.00000000000E+00 0. -1.
</event>
<event>
 8    1  0.3654190E-009  0.1032409E+03  0.7561462E-02  0.1273625E+00
         -1   -1    0    0    0  501 -0.00000000000E+00  0.00000000000E+00  0.60241662968E+02  0.60241662968E+02  0.00000000000E+00 0.  1.
          1   -1    0    0  501    0  0.00000000000E+00 -0.00000000000E+00 -0.23568351528E+03  0.23568351528E+03  0.00000000000E+00 0. -1.
         25    2    1    2    0    0  0.13212586333E+02  0.41817072821E+02 -0.12686825574E+03  0.18348349728E+03  0.12508956568E+03 0.  0.
         23    2    1    2    0    0 -0.13212586333E+02 -0.41817072821E+02 -0.48573596570E+02  0.11244168097E+03  0.91435755143E+02 0.  0.
          5    1    3    3  502    0 -0.31618070997E+02  0.58205490446E+02 -0.25024837010E+02  0.70931631865E+02  0.41800000000E+01 0.  1.
         -5    1    3    3    0  502  0.44830657331E+02 -0.16388417626E+02 -0.10184341873E+03  0.11255186541E+03  0.41800000000E+01 0.  1.
        -11    1    4    4    0    0 -0.28679331250E+02  0.15658788861E+02  0.41367098463E+01  0.32936515874E+02  0.00000000000E+00 0. -1.
         11    1    4    4    0    0  0.15466744917E+02 -0.57475861682E+02 -0.52710306416E+02  0.79505165095E+02  0.00000000000E+00 0.  1.
</event>
<event>
 8    1  0.3654190E-009  0.5505509E+02  0.7561462E-02  0.1419839E+00
          1   -1    0    0  501    0  0.00000000000E+00  0.00000000000E+00  0.30642604424E+02  0.30642604424E+02  0.00000000000E+00 0. -1.
         -1   -1    0    0    0  501 -0.00000000000E+00 -0.00000000000E+00 -0.50543445149E+03  0.50543445149E+03  0.00000000000E+00 0.  1.
         25    2    1    2    0    0 -0.16094634830E+02  0.11159763321E+01 -0.40226688332E+03  0.42157878504E+03  0.12509893647E+03 0.  0.
         23    2    1    2    0    0  0.16094634830E+02 -0.11159763321E+01 -0.72524963747E+02  0.11449827088E+03  0.87118889995E+02 0.  0.
          5    1    3    3  502    0 -0.42634752219E+01  0.58692890867E+01  0.77104292600E+01  0.11381954785E+02  0.41800000000E+01 0. -1.
         -5    1    3    3    0  502 -0.11831159608E+02 -0.47533127546E+01 -0.40997731258E+03  0.41019683025E+03  0.41800000000E+01 0. -1.
        -11    1    4    4    0    0  0.37927554968E+02 -0.32595709346E+02 -0.45547217034E+02  0.67642654244E+02  0.00000000000E+00 0. -1.
         11    1    4    4    0    0 -0.21832920138E+02  0.31479733014E+02 -0.26977746713E+02  0.46855616633E+02  0.00000000000E+00 0.  1.
</event>
<event>
 8    1  0.3654190E-009  0.8680157E+02  0.7561462E-02  0.1310787E+00
         -2   -1    0    0    0  501 -0.00000000000E+00  0.00000000000E+00  0.30256438420E+03  0.30256438420E+03  0.00000000000E+00 0.  1.
          2   -1    0    0  501    0  0.00000000000E+00 -0.00000000000E+00 -0.41676754864E+02  0.41676754864E+02  0.00000000000E+00 0. -1.
         25    2    1    2    0    0  0.32014241697E+01  0.33587780979E+02  0.20034579592E+03  0.23859022852E+03  0.12509384900E+03 0.  0.
         23    2    1    2    0    0 -0.32014241697E+01 -0.33587780979E+02  0.60541833418E+02  0.10565091054E+03  0.79739658618E+02 0.  0.
          5    1    3    3  502    0  0.16066501008E+02 -0.37650188068E+02  0.23336286078E+02  0.47304585022E+02  0.41800000000E+01 0. -1.
         -5    1    3    3    0  502 -0.12865076838E+02  0.71237969047E+02  0.17700950984E+03  0.19128564350E+03  0.41800000000E+01 0. -1.
        -11    1    4    4    0    0  0.16266823013E+02  0.47505470977E+01 -0.12386488267E+02  0.20990529299E+02  0.00000000000E+00 0. -1.
         11    1    4    4    0    0 -0.19468247183E+02 -0.38338328076E+02  0.72928321685E+02  0.84660381241E+02  0.00000000000E+00 0.  1.
</event>
<event>
 8    1  0.3654190E-009  0.1250050E+03  0.7561462E-02  0.1235061E+00
          4   -1    0    0  501    0  0.00000000000E+00  0.00000000000E+00  0.30103411297E+03  0.30103411297E+03  0.00000000000E+00 0. -1.
         -4   -1    0    0    0  501 -0.00000000000E+00 -0.00000000000E+00 -0.11409322464E+03  0.11409322464E+03  0.00000000000E+00 0.  1.
         25    2    1    2    0    0  0.23148477682E+02 -0.58846201789E+02 -0.53411939473E+02  0.14999825386E+03  0.12509162001E+03 0.  0.
         23    2    1    2    0    0 -0.23148477682E+02  0.58846201789E+02  0.24035282780E+03  0.26512908375E+03  0.92332127325E+02 0.  0.
          5    1    3    3  502    0  0.69174098699E+02 -0.62799545217E+02 -0.31362680899E+02  0.98640402287E+02  0.41800000000E+01 0.  1.
         -5    1    3    3    0  502 -0.46025621016E+02  0.39533434276E+01 -0.22049258574E+02  0.51357851570E+02  0.41800000000E+01 0.  1.
        -11    1    4    4    0    0  0.29694109118E+02  0.47562139579E+02  0.14604383182E+03  0.15643752124E+03  0.00000000000E+00 0. -1.
         11    1    4    4    0    0 -0.52842586800E+02  0.11284062210E+02  0.94308995979E+02  0.10869156252E+03  0.00000000000E+00 0.  1.
</event>
<event>
 8    1  0.3654190E-009  0.8951079E+02  0.7561462E-02  0.1304041E+00
         -3   -1    0    0    0  501 -0.00000000000E+00  0.00000000000E+00  0.31918997282E+03  0.31918997282E+03  0.00000000000E+00 0.  1.
          3   -1    0    0  501    0  0.00000000000E+00 -0.00000000000E+00 -0.48213766303E+02  0.48213766303E+02  0.00000000000E+00 0. -1.
         25    2    1    2    0    0 -0.45111589838E+02  0.36252169831E+02  0.14124751967E+03  0.19735000326E+03  0.12508751584E+03 0.  0.
         23    2    1    2    0    0  0.45111589838E+02 -0.36252169831E+02  0.12972868684E+03  0.17005373586E+03  0.93485108628E+02 0.  0.
          5    1    3    3  502    0  0.19074557001E+02 -0.14328865612E+02 -0.93459905621E+01  0.25961029527E+02  0.41800000000E+01 0. -1.
         -5    1    3    3    0  502 -0.64186146839E+02  0.50581035442E+02  0.15059351024E+03  0.17138897373E+03  0.41800000000E+01 0. -1.
        -11    1    4    4    0    0  0.13205202094E+02  0.10153429652E+02 -0.99823575873E+01  0.19419499454E+02  0.00000000000E+00 0. -1.
         11    1    4    4    0    0  0.31906387744E+02 -0.46405599483E+02  0.13971104443E+03  0.15063423640E+03  0.00000000000E+00 0.  1.
</event>
<event>
 8    1  0.3654190E-009  0.1758810E+03  0.7561462E-02  0.1171850E+00
          1   -1    0    0  501    0  0.00000000000E+00  0.00000000000E+00  0.15039126358E+04  0.15039126358E+04  0.00000000000E+00 0. -1.
         -1   -1    0    0    0  501 -0.00000000000E+00 -0.00000000000E+00 -0.22433133464E+02  0.22433133464E+02  0.00000000000E+00 0.  1.
         25    2    1    2    0    0  0.13950300605E+03  0.50683519239E+02  0.75896947701E+03  0.78339861204E+03  0.12509520570E+03 0.  0.
         23    2    1    2    0    0 -0.13950300605E+03 -0.50683519239E+02  0.72251002532E+03  0.74294715722E+03  0.88993448714E+02 0.  0.
          5    1    3    3  502    0  0.14527915519E+03  0.67941833557E+02  0.53206906281E+03  0.55573112715E+03  0.41800000000E+01 0.  1.
         -5    1    3    3    0  502 -0.57761491436E+01 -0.17258314318E+02  0.22690041420E+03  0.22766748489E+03  0.41800000000E+01 0.  1.
        -11    1    4    4    0    0  0.26137779784E+00 -0.31589488748E+02  0.11356012704E+03  0.11787224683E+03  0.00000000000E+00 0.  1.
         11    1    4    4    0    0 -0.13976438385E+03 -0.19094030490E+02  0.60894989828E+03  0.62507491039E+03  0.00000000000E+00 0. -1.
</event>
<event>
 8    1  0.3654190E-009  0.1010978E+03  0.7561462E-02  0.1278004E+00
         -1   -1    0    0    0  501 -0.00000000000E+00  0.00000000000E+00  0.27505980759E+03  0.27505980759E+03  0.00000000000E+00 0.  1.
          1   -1    0    0  501    0  0.00000000000E+00 -0.00000000000E+00 -0.65321392287E+02  0.65321392287E+02  0.00000000000E+00 0. -1.
         25    2    1    2    0    0  0.33694212809E+01 -0.71115958441E+02  0.76318824029E+02  0.16291324700E+03  0.12508929052E+03 0.  0.
         23    2    1    2    0    0 -0.33694212809E+01  0.71115958441E+02  0.13341959128E+03  0.17746795288E+03  0.92872247835E+02 0.  0.
          5    1    3    3  502    0 -0.46529450822E+02 -0.15134711644E+02  0.72682387658E+02  0.87716880736E+02  0.41800000000E+01 0. -1.
         -5    1    3    3    0  502  0.49898872103E+02 -0.55981246797E+02  0.36364363709E+01  0.75196366266E+02  0.41800000000E+01 0. -1.
        -11    1    4    4    0    0 -0.15992397776E+02  0.56242417641E+02  0.14389780478E+03  0.15532399863E+03  0.00000000000E+00 0.  1.
         11    1    4    4    0    0  0.12622976495E+02  0.14873540800E+02 -0.10478213507E+02  0.22143954250E+02  0.00000000000E+00 0. -1.
</event>
<event>
 8    1  0.3654190E-009  0.9391693E+02  0.7561462E-02  0.1293634E+00
          1   -1    0    0  501    0  0.00000000000E+00  0.00000000000E+00  0.64925634139E+02  0.64925634139E+02  0.00000000000E+00 0. -1.
         -1   -1    0    0    0  501 -0.00000000000E+00 -0.00000000000E+00 -0.20950600501E+03  0.20950600501E+03  0.00000000000E+00 0.  1.
         25    2    1    2    0    0  0.26635740621E+02 -0.32068854121E+02 -0.64481724392E+02  0.14677253150E+03  0.12508560725E+03 0.  0.
         23    2    1    2    0    0 -0.26635740621E+02  0.32068854121E+02 -0.80098646481E+02  0.12765910765E+03  0.90239572883E+02 0.  0.
          5    1    3    3  502    0  0.71667911344E+02  0.77053387843E+00 -0.17841367806E+02  0.73977496876E+02  0.41800000000E+01 0. -1.
         -5    1    3    3    0  502 -0.45032170723E+02 -0.32839388000E+02 -0.46640356586E+02  0.72795034629E+02  0.41800000000E+01 0. -1.
        -11    1    4    4    0    0 -0.15274524567E+01  0.34853419282E+02 -0.92974822216E+02  0.99304639935E+02  0.00000000000E+00 0.  1.
         11    1    4    4    0    0 -0.25108288164E+02 -0.27845651610E+01  0.12876175734E+02  0.28354467712E+02  0.00000000000E+00 0. -1.
</event>
<event>
 8    1  0.3654190E-009  0.1471748E+03  0.7561462E-02  0.1203988E+00
         -2   -1    0    0    0  501 -0.00000000000E+00  0.00000000000E+00  0.86384138276E+02  0.86384138276E+02  0.00000000000E+00 0.  1.
          2   -1    0    0  501    0  0.00000000000E+00 -0.00000000000E+00 -0.34703079532E+03  0.34703079532E+03  0.00000000000E+00 0. -1.
         25    2    1    2    0    0 -0.73066529317E+02 -0.85534649530E+02 -0.22957320936E+03  0.28461686495E+03  0.12509199566E+03 0.  0.
         23    2    1    2    0    0  0.73066529317E+02  0.85534649530E+02 -0.31073447677E+02  0.14879806865E+03  0.92306078377E+02 0.  0.
          5    1    3    3  502    0 -0.78719630092E+01  0.30806099499E+02 -0.67160824664E+02  0.74424675596E+02  0.41800000000E+01 0. -1.
         -5    1    3    3    0  502 -0.65194566308E+02 -0.11634074903E+03 -0.16241238470E+03  0.21019218935E+03  0.41800000000E+01 0. -1.
        -11    1    4    4    0    0 -0.10676956013E+02  0.19398128885E+02  0.20592923473E+02  0.30238275266E+02  0.00000000000E+00 0.  1.
         11    1    4    4    0    0  0.83743485330E+02  0.66136520645E+02 -0.51666371149E+02  0.11855979338E+03  0.00000000000E+00 0. -1.
</event>
<event>
 8    1  0.3654190E-009  0.1783052E+03  0.7561462E-02  0.1169453E+00
          1   -1    0    0  501    0  0.00000000000E+00  0.00000000000E+00  0.18463589263E+04  0.18463589263E+04  0.00000000000E+00 0. -1.
         -1   -1    0    0    0  501 -0.00000000000E+00 -0.00000000000E+00 -0.20436085825E+02  0.20436085825E+02  0.00000000000E+00 0.  1.
         25    2    1    2    0    0  0.10163117286E+03  0.10347739560E+03  0.12754257200E+04  0.12897263315E+04  0.12508707505E+03 0.  0.
         23    2    1    2    0    0 -0.10163117286E+03 -0.10347739560E+03  0.55049712051E+03  0.57706868062E+03  0.94470713776E+02 0.  0.
          5    1    3    3  502    0 -0.67488409573E+01 -0.22463994738E+02  0.11354108899E+03  0.11601391814E+03  0.41800000000E+01 0. -1.
         -5    1    3    3    0  502  0.10838001382E+03  0.12594139034E+03  0.11618846310E+04  0.11737124134E+04  0.41800000000E+01 0. -1.
        -11    1    4    4    0    0 -0.31511069800E+02 -0.89756939387E+02  0.23380089656E+03  0.25241258867E+03  0.00000000000E+00 0.  1.
         11    1    4    4    0    0 -0.70120103058E+02 -0.13720456211E+02  0.31669622395E+03  0.32465609195E+03  0.00000000000E+00 0. -1.
</event>
<event>
 8    1  0.3654190E-009  0.1918515E+03  0.7561462E-02  0.1156802E+00
          1   -1    0    0  501    0  0.00000000000E+00  0.00000000000E+00  0.37600481437E+03  0.37600481437E+03  0.00000000000E+00 0. -1.
         -1   -1    0    0    0  501 -0.00000000000E+00 -0.00000000000E+00 -0.12060678978E+03  0.12060678978E+03  0.00000000000E+00 0.  1.
         25    2    1    2    0    0 -0.13660630323E+03  0.82061937659E+02  0.28269011982E+02  0.20455241612E+03  0.12508840956E+03 0.  0.
         23    2    1    2    0    0  0.13660630323E+03 -0.82061937659E+02  0.22712901260E+03  0.29205918803E+03  0.91189567665E+02 0.  0.
          5    1    3    3  502    0 -0.14526597551E+03  0.10376978485E+03  0.28362245415E+02  0.18081001426E+03  0.41800000000E+01 0.  1.
         -5    1    3    3    0  502  0.86596722820E+01 -0.21707847193E+02 -0.93233433609E-01  0.23742401864E+02  0.41800000000E+01 0.  1.
        -11    1    4    4    0    0  0.88864692158E+02 -0.96819195488E+02  0.14306038255E+03  0.19426055488E+03  0.00000000000E+00 0. -1.
         11    1    4    4    0    0  0.47741611074E+02  0.14757257829E+02  0.84068630052E+02  0.97798633147E+02  0.00000000000E+00 0.  1.
</event>
<event>
 8    1  0.3654190E-009  0.9319443E+02  0.7561462E-02  0.1295295E+00
          1   -1    0    0  501    0  0.00000000000E+00  0.00000000000E+00  0.43622041122E+03  0.43622041122E+03  0.00000000000E+00 0. -1.
         -1   -1    0    0    0  501 -0.00000000000E+00 -0.00000000000E+00 -0.42835160659E+02  0.42835160659E+02  0.00000000000E+00 0.  1.
         25    2    1    2    0    0  0.47962314660E+02  0.10369246245E+02  0.33354322083E+03  0.35959284642E+03  0.12509208664E+03 0.  0.
         23    2    1    2    0    0 -0.47962314660E+02 -0.10369246245E+02  0.59842029732E+02  0.11946272546E+03  0.91007523626E+02 0.  0.
          5    1    3    3  502    0  0.62284434342E+02  0.20500934918E+02  0.72174293931E+02  0.97602460002E+02  0.41800000000E+01 0. -1.
         -5    1    3    3    0  502 -0.14322119682E+02 -0.10131688673E+02  0.26136892690E+03  0.26199038642E+03  0.41800000000E+01 0. -1.
        -11    1    4    4    0    0 -0.34984584389E+02 -0.49957089859E+02  0.28446274388E+02  0.67296526646E+02  0.00000000000E+00 0. -1.
         11    1    4    4    0    0 -0.12977730271E+02  0.39587843614E+02  0.31395755344E+02  0.52166198814E+02  0.00000000000E+00 0.  1.
</event>
<event>
 8    1  0.3654190E-009  0.1683412E+03  0.7561462E-02  0.1179589E+00
         -1   -1    0    0    0  501 -0.00000000000E+00  0.00000000000E+00  0.53782208785E+02  0.53782208785E+02  0.00000000000E+00 0.  1.
          1   -1    0    0  501    0  0.00000000000E+00 -0.00000000000E+00 -0.72087842333E+03  0.72087842333E+03  0.00000000000E+00 0. -1.
         25    2    1    2    0    0  0.12580027599E+03  0.96321541344E+02 -0.26376630097E+03  0.33215046094E+03  0.12509084062E+03 0.  0.
         23    2    1    2    0    0 -0.12580027599E+03 -0.96321541344E+02 -0.40332991357E+03  0.44251017118E+03  0.89647552394E+02 0.  0.
          5    1    3    3  502    0  0.17097090529E+02 -0.93428204985E+01 -0.12503896392E+03  0.12661679863E+03  0.41800000000E+01 0.  1.
         -5    1    3    3    0  502  0.10870318546E+03  0.10566436184E+03 -0.13872733706E+03  0.20553366230E+03  0.41800000000E+01 0.  1.
        -11    1    4    4    0    0 -0.64307291479E+02 -0.20535599721E+02 -0.79507706798E+02  0.10430059460E+03  0.00000000000E+00 0.  1.
         11    1    4    4    0    0 -0.61492984507E+02 -0.75785941622E+02 -0.32382220678E+03  0.33820957658E+03  0.00000000000E+00 0. -1.
</event>
<event>
 8    1  0.3654190E-009  0.2366734E+03  0.7561462E-02  0.1122029E+00
         -2   -1    0    0    0  501 -0.00000000000E+00  0.00000000000E+00  0.79992598216E+03  0.79992598216E+03  0.00000000000E+00 0. -1.
          2   -1    0    0  501    0  0.00000000000E+00 -0.00000000000E+00 -0.87062053045E+02  0.87062053045E+02  0.00000000000E+00 0.  1.
         25    2    1    2    0    0  0.21009956619E+03  0.84406323587E+02  0.49695217303E+03  0.56024560145E+03  0.12508963380E+03 0.  0.
         23    2    1    2    0    0 -0.21009956619E+03 -0.84406323587E+02  0.21591175608E+03  0.32674243376E+03  0.94215054138E+02 0.  0.
          5    1    3    3  502    0  0.19314472579E+03  0.67944747705E+02  0.30858573408E+03  0.37035658698E+03  0.41800000000E+01 0.  1.
         -5    1    3    3    0  502  0.16954840407E+02  0.16461575882E+02  0.18836643895E+03  0.18988901447E+03  0.41800000000E+01 0.  1.
        -11    1    4    4    0    0 -0.10544621738E+03 -0.91575337352E+02  0.13526300815E+03  0.19442486607E+03  0.00000000000E+00 0. -1.
         11    1    4    4    0    0 -0.10465334882E+03  0.71690137653E+01  0.80648747928E+02  0.13231756769E+03  0.00000000000E+00 0.  1.
</event>
<event>
 8    1  0.3654190E-009  0.1300510E+03  0.7561462E-02  0.1227380E+00
          2   -1    0    0  501    0  0.00000000000E+00  0.00000000000E+00  0.62616633903E+03  0.62616633903E+03  0.00000000000E+00 0. -1.
         -2   -1    0    0    0  501 -0.00000000000E+00 -0.00000000000E+00 -0.32588547367E+02  0.32588547367E+02  0.00000000000E+00 0.  1.
         25    2    1    2    0    0  0.86477905471E+02 -0.14471973549E+02  0.25670980762E+03  0.29872284302E+03  0.12509014935E+03 0.  0.
         23    2    1    2    0    0 -0.86477905471E+02  0.14471973549E+02  0.33686798404E+03  0.36003204337E+03  0.91951984351E+02 0.  0.
          5    1    3    3  502    0  0.10265541060E+03 -0.45078802710E+02  0.15606387394E+03  0.19220727595E+03  0.41800000000E+01 0. -1.
         -5    1    3    3    0  502 -0.16177505129E+02  0.30606829161E+02  0.10064593368E+03  0.10651556708E+03  0.41800000000E+01 0. -1.
        -11    1    4    4    0    0 -0.37409525414E+02  0.42426318189E+02  0.25073997635E+03  0.25704085435E+03  0.00000000000E+00 0. -1.
         11    1    4    4    0    0 -0.49068380057E+02 -0.27954344640E+02  0.86128007694E+02  0.10299118902E+03  0.00000000000E+00 0.  1.
</event>
<event>
 8    1  0.3654190E-009  0.9054690E+02  0.7561462E-02  0.1301533E+00
         -3   -1    0    0    0  501 -0.00000000000E+00  0.00000000000E+00  0.50814063052E+03  0.50814063052E+03  0.00000000000E+00 0.  1.
          3   -1    0    0  501    0  0.00000000000E+00 -0.00000000000E+00 -0.51115924861E+02  0.51115924861E+02  0.00000000000E+00 0. -1.
         25    2    1    2    0    0 -0.46479221618E+02  0.74100719683E+01  0.54803482726E+02  0.14445138795E+03  0.12509018568E+03 0.  0.
         23    2    1    2    0    0  0.46479221618E+02 -0.74100719683E+01  0.40222122293E+03  0.41480516743E+03  0.89811956545E+02 0.  0.
          5    1    3    3  502    0 -0.65195613498E+01 -0.26355762401E+02 -0.32520516827E+02  0.42569793358E+02  0.41800000000E+01 0. -1.
         -5    1    3    3    0  502 -0.39959660268E+02  0.33765834369E+02  0.87323999553E+02  0.10188159460E+03  0.41800000000E+01 0. -1.
        -11    1    4    4    0    0 -0.26963976046E+02 -0.62991591296E+01  0.97440039085E+02  0.10129805836E+03  0.00000000000E+00 0. -1.
         11    1    4    4    0    0  0.73443197664E+02 -0.11109128387E+01  0.30478118385E+03  0.31350710907E+03  0.00000000000E+00 0.  1.
</event>
<event>
 8    1  0.3654190E-009  0.9192557E+02  0.7561462E-02  0.1298255E+00
          4   -1    0    0  501    0  0.00000000000E+00  0.00000000000E+00  0.96459378154E+02  0.96459378154E+02  0.00000000000E+00 0. -1.
         -4   -1    0    0    0  501 -0.00000000000E+00 -0.00000000000E+00 -0.15704312059E+03  0.15704312059E+03  0.00000000000E+00 0.  1.
         25    2    1    2    0    0  0.15344008087E+01 -0.98483404448E+01  0.25466998632E+02  0.12805567713E+03  0.12510133585E+03 0.  0.
         23    2    1    2    0    0 -0.15344008087E+01  0.98483404448E+01 -0.86050741068E+02  0.12544682161E+03  0.90734948167E+02 0.  0.
          5    1    3    3  502    0 -0.14612756061E+00 -0.67209844545E+02  0.73871996075E+01  0.67743838651E+02  0.41800000000E+01 0.  1.
         -5    1    3    3    0  502  0.16805283693E+01  0.57361504101E+02  0.18079799025E+02  0.60311838482E+02  0.41800000000E+01 0.  1.
        -11    1    4    4    0    0 -0.44825571719E-02 -0.24545391387E+02  0.75784033992E+01  0.25688683433E+02  0.00000000000E+00 0. -1.
         11    1    4    4    0    0 -0.15299182515E+01  0.34393731832E+02 -0.93629144467E+02  0.99758138178E+02  0.00000000000E+00 0.  1.
</event>
<event>
 8    1  0.3654190E-009  0.1591582E+03  0.7561462E-02  0.1189650E+00
          2   -1    0    0  501    0  0.00000000000E+00  0.00000000000E+00  0.17841565123E+04  0.17841565123E+04  0.00000000000E+00 0. -1.
         -2   -1    0    0    0  501 -0.00000000000E+00 -0.00000000000E+00 -0.41165675830E+02  0.41165675830E+02  0.00000000000E+00 0.  1.
         25    2    1    2    0    0  0.10365912217E+03 -0.95347702370E+02  0.15789620164E+04  0.15901587388E+04  0.12508943830E+03 0.  0.
         23    2    1    2    0    0 -0.10365912217E+03  0.95347702370E+02  0.16402882010E+03  0.23516344930E+03  0.92520247016E+02 0.  0.
          5    1    3    3  502    0 -0.77698404911E+01  0.23331028193E+01  0.77608036875E+01  0.11979827374E+02  0.41800000000E+01 0. -1.
         -5    1    3    3    0  502  0.11142896266E+03 -0.97680805189E+02  0.15712012127E+04  0.15781789115E+04  0.41800000000E+01 0. -1.
        -11    1    4    4    0    0 -0.11548953805E+03  0.75939905478E+02  0.16106467068E+03  0.21224168013E+03  0.00000000000E+00 0. -1.
         11    1    4    4    0    0  0.11830415880E+02  0.19407796892E+02  0.29641494172E+01  0.22921769170E+02  0.00000000000E+00 0.  1.
</event>
<event>
 8    1  0.3654190E-009  0.8609370E+02  0.7561462E-02  0.1312597E+00
         -2   -1    0    0    0  501 -0.00000000000E+00  0.00000000000E+00  0.74961858317E+02  0.74961858317E+02  0.00000000000E+00 0.  1.
          2   -1    0    0  501    0  0.00000000000E+00 -0.00000000000E+00 -0.22825731589E+03  0.22825731589E+03  0.00000000000E+00 0. -1.
         25    2    1    2    0    0 -0.55620421364E-01 -0.69657395115E+02 -0.11444833803E+03  0.18329777553E+03  0.12508995424E+03 0.  0.
         23    2    1    2    0    0  0.55620421364E-01  0.69657395115E+02 -0.38847119544E+02  0.11992139867E+03  0.89553823896E+02 0.  0.
          5    1    3    3  502    0 -0.72723418938E+01  0.15048031988E+02 -0.94259815820E+02  0.95821268525E+02  0.41800000000E+01 0.  1.
         -5    1    3    3    0  502  0.72167214725E+01 -0.84705427103E+02 -0.20188522207E+02  0.87476507009E+02  0.41800000000E+01 0.  1.
        -11    1    4    4    0    0  0.25662331376E+01  0.39067115864E+02  0.26805437030E+02  0.47448462028E+02  0.00000000000E+00 0.  1.
         11    1    4    4    0    0 -0.25106127163E+01  0.30590279251E+02 -0.65652556574E+02  0.72472936643E+02  0.00000000000E+00 0. -1.
</event>
<event>
 8    1  0.3654190E-009  0.1478870E+03  0.7561462E-02  0.1203094E+00
          2   -1    0    0  501    0  0.00000000000E+00  0.00000000000E+00  0.18226303996E+03  0.18226303996E+03  0.00000000000E+00 0.  1.
         -2   -1    0    0    0  501 -0.00000000000E+00 -0.00000000000E+00 -0.16689690166E+03  0.16689690166E+03  0.00000000000E+00 0. -1.
         25    2    1    2    0    0  0.92187974953E+02 -0.62434393860E+02  0.85948374586E+02  0.18823401722E+03  0.12509294898E+03 0.  0.
         23    2    1    2    0    0 -0.92187974953E+02  0.62434393860E+02 -0.70582236290E+02  0.16092592439E+03  0.92296396457E+02 0.  0.
          5    1    3    3  502    0 -0.28041856440E+02 -0.12352254192E+02  0.38888330487E+02  0.49685999480E+02  0.41800000000E+01 0. -1.
         -5    1    3    3    0  502  0.12022983139E+03 -0.50082139668E+02  0.47060044099E+02  0.13854801774E+03  0.41800000000E+01 0. -1.
        -11    1    4    4    0    0 -0.93183735401E+02  0.24179486199E+02 -0.21417362038E+02  0.98623321242E+02  0.00000000000E+00 0. -1.
         11    1    4    4    0    0  0.99576044811E+00  0.38254907661E+02 -0.49164874251E+02  0.62302603149E+02  0.00000000000E+00 0.  1.
</event>
<event>
 8    1  0.3654190E-009  0.1109160E+03  0.7561462E-02  0.1258883E+00
          2   -1    0    0  501    0  0.00000000000E+00  0.00000000000E+00  0.26695393534E+03  0.26695393534E+03  0.00000000000E+00 0. -1.
         -2   -1    0    0    0  501 -0.00000000000E+00 -0.00000000000E+00 -0.47179763404E+02  0.47179763404E+02  0.00000000000E+00 0.  1.
         25    2    1    2    0    0 -0.95200214319E+01 -0.23152540968E+02  0.11089918160E+03  0.16902901788E+03  0.12508201088E+03 0.  0.
         23    2    1    2    0    0  0.95200214319E+01  0.23152540968E+02  0.10887499034E+03  0.14510468086E+03  0.92600939125E+02 0.  0.
          5    1    3    3  502    0  0.16825974193E+02 -0.70821366049E+02  0.61750370881E+02  0.95547684433E+02  0.41800000000E+01 0. -1.
         -5    1    3    3    0  502 -0.26345995625E+02  0.47668825082E+02  0.49148810722E+02  0.73481333450E+02  0.41800000000E+01 0. -1.
        -11    1    4    4    0    0 -0.30818152771E+02 -0.18795945762E+02  0.55072047047E+02  0.65848131965E+02  0.00000000000E+00 0. -1.
         11    1    4    4    0    0  0.40338174203E+02  0.41948486730E+02  0.53802943288E+02  0.79256548899E+02  0.00000000000E+00 0.  1.
</event>
<event>
 8    1  0.3654190E-009  0.9882644E+02  0.7561462E-02  0.1282783E+00
         -2   -1    0    0    0  501 -0.00000000000E+00  0.00000000000E+00  0.28080904407E+02  0.28080904407E+02  0.00000000000E+00 0. -1.
          2   -1    0    0  501    0  0.00000000000E+00 -0.00000000000E+00 -0.41595881309E+03  0.41595881309E+03  0.00000000000E+00 0.  1.
         25    2    1    2    0    0  0.73865421271E+01 -0.77616805348E+01 -0.23841306443E+03  0.26944914233E+03  0.12508895364E+03 0.  0.
         23    2    1    2    0    0 -0.73865421271E+01  0.77616805348E+01 -0.14946484425E+03  0.17459057517E+03  0.89595337942E+02 0.  0.
          5    1    3    3  502    0 -0.32147872433E+02 -0.43353353794E+02 -0.50232366278E+02  0.73849590446E+02  0.41800000000E+01 0. -1.
         -5    1    3    3    0  502  0.39534414560E+02  0.35591673259E+02 -0.18818069815E+03  0.19559955189E+03  0.41800000000E+01 0. -1.
        -11    1    4    4    0    0  0.31370980313E+00  0.48600429374E+02 -0.84083384290E+02  0.97119079808E+02  0.00000000000E+00 0.  1.
         11    1    4    4    0    0 -0.77002519302E+01 -0.40838748839E+02 -0.65381459963E+02  0.77471495361E+02  0.00000000000E+00 0. -1.
</event>
<event>
 8    1  0.3654190E-009  0.9544216E+02  0.7561462E-02  0.1290183E+00
          3   -1    0    0  501    0  0.00000000000E+00  0.00000000000E+00  0.63725977790E+02  0.63725977790E+02  0.00000000000E+00 0. -1.
         -3   -1    0    0    0  501 -0.00000000000E+00 -0.00000000000E+00 -0.54296909835E+03  0.54296909835E+03  0.00000000000E+00 0.  1.
         25    2    1    2    0    0  0.41774771654E+02  0.46102317204E+02 -0.47584290397E+03  0.49592748320E+03  0.12508814549E+03 0.  0.
         23    2    1    2    0    0 -0.41774771654E+02 -0.46102317204E+02 -0.34002165892E+01  0.11076759293E+03  0.91582438126E+02 0.  0.
          5    1    3    3  502    0  0.27726206791E+01  0.68245193658E+02 -0.12766418480E+03  0.14484719660E+03  0.41800000000E+01 0.  1.
         -5    1    3    3    0  502  0.39002150975E+02 -0.22142876455E+02 -0.34817871917E+03  0.35108028660E+03  0.41800000000E+01 0.  1.
        -11    1    4    4    0    0  0.37650897648E+01 -0.28245780360E+02 -0.40397390382E+02  0.49436314170E+02  0.00000000000E+00 0.  1.
         11    1    4    4    0    0 -0.45539861419E+02 -0.17856536843E+02  0.36997173792E+02  0.61331278763E+02  0.00000000000E+00 0. -1.
</event>
<event>
 8    1  0.3654190E-009  0.9966527E+02  0.7561462E-02  0.1281001E+00
          4   -1    0    0  501    0  0.00000000000E+00  0.00000000000E+00  0.47761957282E+02  0.47761957282E+02  0.00000000000E+00 0. -1.
         -4   -1    0    0    0  501 -0.00000000000E+00 -0.00000000000E+00 -0.26892001400E+03  0.26892001400E+03  0.00000000000E+00 0.  1.
         25    2    1    2    0    0 -0.19494925424E+01  0.19636121476E+01 -0.18161600369E+03  0.22054850629E+03  0.12509841939E+03 0.  0.
         23    2    1    2    0    0  0.19494925424E+01 -0.19636121476E+01 -0.39542053031E+02  0.96133464999E+02  0.87580893128E+02 0.  0.
          5    1    3    3  502    0  0.51641373353E+02 -0.31465286050E+02 -0.73571414691E+02  0.95326392608E+02  0.41800000000E+01 0.  1.
         -5    1    3    3    0  502 -0.53590865895E+02  0.33428898198E+02 -0.10804458900E+03  0.12522211368E+03  0.41800000000E+01 0.  1.
        -11    1    4    4    0    0 -0.15257086013E+02  0.33049337406E+02 -0.43729009790E+02  0.56896956631E+02  0.00000000000E+00 0.  1.
         11    1    4    4    0    0  0.17206578556E+02 -0.35012949554E+02  0.41869567594E+01  0.39236508369E+02  0.00000000000E+00 0. -1.
</event>
<event>
 8    1  0.3654190E-009  0.1084087E+03  0.7561462E-02  0.1263545E+00
         -1   -1    0    0    0  501 -0.00000000000E+00  0.00000000000E+00  0.61688566440E+02  0.61688566440E+02  0.00000000000E+00 0.  1.
          1   -1    0    0  501    0  0.00000000000E+00 -0.00000000000E+00 -0.22099198796E+03  0.22099198796E+03  0.00000000000E+00 0. -1.
         25    2    1    2    0    0  0.21807469534E+02  0.38351574960E+02 -0.84024283732E+02  0.15701344817E+03  0.12508690427E+03 0.  0.
         23    2    1    2    0    0 -0.21807469534E+02 -0.38351574960E+02 -0.75279137788E+02  0.12566710623E+03  0.90437071895E+02 0.  0.
          5    1    3    3  502    0 -0.23558777563E+02  0.69883338600E+02 -0.30304457656E+02  0.79840651099E+02  0.41800000000E+01 0. -1.
         -5    1    3    3    0  502  0.45366247097E+02 -0.31531763640E+02 -0.53719826077E+02  0.77172797070E+02  0.41800000000E+01 0. -1.
        -11    1    4    4    0    0  0.25109868274E+02  0.26336455429E+01  0.32194827230E+01  0.25452045942E+02  0.00000000000E+00 0.  1.
         11    1    4    4    0    0 -0.46917337808E+02 -0.40985220503E+02 -0.78498620511E+02  0.10021506029E+03  0.00000000000E+00 0. -1.
</event>
<event>
 8    1  0.3654190E-009  0.2336564E+03  0.7561462E-02  0.1124092E+00
         -2   -1    0    0    0  501 -0.00000000000E+00  0.00000000000E+00  0.43667644164E+02  0.43667644164E+02  0.00000000000E+00 0.  1.
          2   -1    0    0  501    0  0.00000000000E+00 -0.00000000000E+00 -0.14589805518E+04  0.14589805518E+04  0.00000000000E+00 0. -1.
         25    2    1    2    0    0 -0.92526063633E+02  0.19445908675E+03 -0.50835664023E+03  0.56608279977E+03  0.12509138121E+03 0.  0.
         23    2    1    2    0    0  0.92526063633E+02 -0.19445908675E+03 -0.90695626737E+03  0.93656539616E+03  0.90607182374E+02 0.  0.
          5    1    3    3  502    0 -0.57878968826E+02  0.76405465938E+01 -0.13486279734E+03  0.14701632389E+03  0.41800000000E+01 0. -1.
         -5    1    3    3    0  502 -0.34647094808E+02  0.18681854015E+03 -0.37349384289E+03  0.41906647588E+03  0.41800000000E+01 0. -1.
        -11    1    4    4    0    0  0.50983370355E+02 -0.14735736967E+03 -0.77362955547E+03  0.78918704218E+03  0.00000000000E+00 0. -1.
         11    1    4    4    0    0  0.41542693278E+02 -0.47101717078E+02 -0.13332671190E+03  0.14737835398E+03  0.00000000000E+00 0.  1.
</event>
<event>
 8    1  0.3654190E-009  0.1008826E+03  0.7561462E-02  0.1278451E+00
         -2   -1    0    0    0  501 -0.00000000000E+00  0.00000000000E+00  0.11799948519E+03  0.11799948519E+03  0.00000000000E+00 0.  1.
          2   -1    0    0  501    0  0.00000000000E+00 -0.00000000000E+00 -0.19293276802E+03  0.19293276802E+03  0.00000000000E+00 0. -1.
         25    2    1    2    0    0 -0.17956415748E+01 -0.16410324357E+02  0.63276111056E+02  0.14115192305E+03  0.12508987199E+03 0.  0.
         23    2    1    2    0    0  0.17956415748E+01  0.16410324357E+02 -0.13820939389E+03  0.16978033016E+03  0.97216258292E+02 0.  0.
          5    1    3    3  502    0 -0.15338078941E+01  0.43760868454E+02 -0.11125944323E+02  0.45372075240E+02  0.41800000000E+01 0.  1.
         -5    1    3    3    0  502 -0.26183368074E+00 -0.60171192811E+02  0.74402055379E+02  0.95779847807E+02  0.41800000000E+01 0.  1.
        -11    1    4    4    0    0 -0.33374165840E+01 -0.40340946945E+02 -0.70396770870E+02  0.81204899475E+02  0.00000000000E+00 0.  1.
         11    1    4    4    0    0  0.51330581588E+01  0.56751271302E+02 -0.67812623021E+02  0.88575430687E+02  0.00000000000E+00 0. -1.
</event>
<event>
 8    1  0.3654190E-009  0.1576936E+03  0.7561462E-02  0.1191325E+00
         -1   -1    0    0    0  501 -0.00000000000E+00  0.00000000000E+00  0.14616531163E+03  0.14616531163E+03  0.00000000000E+00 0.  1.
          1   -1    0    0  501    0  0.00000000000E+00 -0.00000000000E+00 -0.24790618044E+03  0.24790618044E+03  0.00000000000E+00 0. -1.
         25    2    1    2    0    0 -0.30871073060E+02  0.13532953270E+03 -0.11847311754E+03  0.22125130690E+03  0.12509658529E+03 0.  0.
         23    2    1    2    0    0  0.30871073060E+02 -0.13532953270E+03  0.16732248723E+02  0.17282018517E+03  0.10158613430E+03 0.  0.
          5    1    3    3  502    0 -0.37095942631E+02  0.14533180076E+03 -0.13409944198E+03  0.20124009047E+03  0.41800000000E+01 0.  1.
         -5    1    3    3    0  502  0.62248695704E+01 -0.10002268060E+02  0.15626324442E+02  0.20011216431E+02  0.41800000000E+01 0.  1.
        -11    1    4    4    0    0 -0.13752981325E+02 -0.82699388193E+02 -0.30489382371E+02  0.89207262822E+02  0.00000000000E+00 0. -1.
         11    1    4    4    0    0  0.44624054385E+02 -0.52630144507E+02  0.47221631094E+02  0.83612922349E+02  0.00000000000E+00 0.  1.
</event>
<event>
 8    1  0.3654190E-009  0.1263105E+03  0.7561462E-02  0.1233035E+00
          2   -1    0    0  501    0  0.00000000000E+00  0.00000000000E+00  0.68242152744E+03  0.68242152744E+03  0.00000000000E+00 0. -1.
         -2   -1    0    0    0  501 -0.00000000000E+00 -0.00000000000E+00 -0.32596739791E+02  0.32596739791E+02  0.00000000000E+00 0.  1.
         25    2    1    2    0    0 -0.15277958157E+02  0.80593555581E+02  0.49329423193E+03  0.51547537803E+03  0.12508768483E+03 0.  0.
         23    2    1    2    0    0  0.15277958157E+02 -0.80593555581E+02  0.15653055572E+03  0.19954288920E+03  0.92665055706E+02 0.  0.
          5    1    3    3  502    0  0.51983714735E+02  0.51966623046E+02  0.29642816810E+03  0.30543406449E+03  0.41800000000E+01 0. -1.
         -5    1    3    3    0  502 -0.67261672892E+02  0.28626932535E+02  0.19686606382E+03  0.21004131354E+03  0.41800000000E+01 0. -1.
        -11    1    4    4    0    0 -0.26298669385E+02 -0.24384241680E+02  0.10070239714E+02  0.37250784980E+02  0.00000000000E+00 0.  1.
         11    1    4    4    0    0  0.41576627542E+02 -0.56209313901E+02  0.14646031601E+03  0.16229210422E+03  0.00000000000E+00 0. -1.
</event>
<event>
 8    1  0.3654190E-009  0.9736595E+02  0.7561462E-02  0.1285935E+00
          2   -1    0    0  501    0  0.00000000000E+00  0.00000000000E+00  0.57140782724E+03  0.57140782724E+03  0.00000000000E+00 0.  1.
         -2   -1    0    0    0  501 -0.00000000000E+00 -0.00000000000E+00 -0.40991574051E+02  0.40991574051E+02  0.00000000000E+00 0. -1.
         25    2    1    2    0    0  0.64601417333E+02  0.12465430456E+02  0.45620262916E+03  0.47759413113E+03  0.12508631086E+03 0.  0.
         23    2    1    2    0    0 -0.64601417333E+02 -0.12465430456E+02  0.74213624033E+02  0.13480527016E+03  0.91302074417E+02 0.  0.
          5    1    3    3  502    0  0.25761656562E+01 -0.39903662278E+02  0.28786648633E+03  0.29066049825E+03  0.41800000000E+01 0.  1.
         -5    1    3    3    0  502  0.62025251677E+02  0.52369092734E+02  0.16833614283E+03  0.18693363288E+03  0.41800000000E+01 0.  1.
        -11    1    4    4    0    0 -0.34442924493E+02  0.97376007692E+01  0.87919339230E+02  0.94926003429E+02  0.00000000000E+00 0.  1.
         11    1    4    4    0    0 -0.30158492841E+02 -0.22203031225E+02 -0.13705715197E+02  0.39879266731E+02  0.00000000000E+00 0. -1.
</event>
<event>
 8    1  0.3654190E-009  0.1578280E+03  0.7561462E-02  0.1191171E+00
          1   -1    0    0  501    0  0.00000000000E+00  0.00000000000E+00  0.34462304174E+02  0.34462304174E+02  0.00000000000E+00 0. -1.
         -1   -1    0    0    0  501 -0.00000000000E+00 -0.00000000000E+00 -0.90206671220E+03  0.90206671220E+03  0.00000000000E+00 0.  1.
         25    2    1    2    0    0  0.99978920947E+02 -0.58369496789E+02 -0.66406208674E+03  0.68558648365E+03  0.12509032227E+03 0.  0.
         23    2    1    2    0    0 -0.99978920947E+02  0.58369496789E+02 -0.20354232128E+03  0.25094253273E+03  0.90221368799E+02 0.  0.
          5    1    3    3  502    0  0.71854039146E+01 -0.75521277275E+02 -0.29898516946E+03  0.30848775876E+03  0.41800000000E+01 0. -1.
         -5    1    3    3    0  502  0.92793517032E+02  0.17151780485E+02 -0.36507691729E+03  0.37709872489E+03  0.41800000000E+01 0. -1.
        -11    1    4    4    0    0 -0.11548468250E+03  0.59038084112E+02 -0.16866332086E+03  0.21276635794E+03  0.00000000000E+00 0. -1.
         11    1    4    4    0    0  0.15505761557E+02 -0.66858732300E+00 -0.34879000428E+02  0.38176174787E+02  0.00000000000E+00 0.  1.
</event>
<event>
 8    1  0.3654190E-009  0.1502122E+03  0.7561462E-02  0.1200213E+00
          2   -1    0    0  501    0  0.00000000000E+00  0.00000000000E+00  0.85675572033E+03  0.85675572033E+03  0.00000000000E+00 0.  1.
         -2   -1    0    0    0  501 -0.00000000000E+00 -0.00000000000E+00 -0.32336860532E+02  0.32336860532E+02  0.00000000000E+00 0. -1.
         25    2    1    2    0    0 -0.90976273279E+01  0.11045779048E+03  0.27961461135E+03  0.32575411078E+03  0.12509084504E+03 0.  0.
         23    2    1    2    0    0  0.90976273279E+01 -0.11045779048E+03  0.54480424845E+03  0.56333847008E+03  0.90856328565E+02 0.  0.
          5    1    3    3  502    0 -0.38791224529E+02 -0.78811272703E+01  0.10837708011E+03  0.11545533838E+03  0.41800000000E+01 0. -1.
         -5    1    3    3    0  502  0.29693597201E+02  0.11833891775E+03  0.17123753124E+03  0.21029877240E+03  0.41800000000E+01 0. -1.
        -11    1    4    4    0    0  0.26696058527E+02 -0.54680373097E-02  0.57968978977E+02  0.63820702710E+02  0.00000000000E+00 0. -1.
         11    1    4    4    0    0 -0.17598431199E+02 -0.11045232244E+03  0.48683526948E+03  0.49951776737E+03  0.00000000000E+00 0.  1.
</event>
<event>
 8    1  0.3654190E-009  0.1345396E+03  0.7561462E-02  0.1220871E+00
          3   -1    0    0  501    0  0.00000000000E+00  0.00000000000E+00  0.36054277335E+03  0.36054277335E+03  0.00000000000E+00 0. -1.
         -3   -1    0    0    0  501 -0.00000000000E+00 -0.00000000000E+00 -0.65030675278E+02  0.65030675278E+02  0.00000000000E+00 0.  1.
         25    2    1    2    0    0  0.71610807161E+02 -0.63757384628E+02  0.22850221153E+03  0.27758388413E+03  0.12508573164E+03 0.  0.
         23    2    1    2    0    0 -0.71610807161E+02  0.63757384628E+02  0.67009886538E+02  0.14798956449E+03  0.90650286861E+02 0.  0.
          5    1    3    3  502    0  0.10684133909E+03 -0.42522631188E+02  0.15224104522E+03  0.19083514915E+03  0.41800000000E+01 0.  1.
         -5    1    3    3    0  502 -0.35230531930E+02 -0.21234753440E+02  0.76261166311E+02  0.86748734982E+02  0.41800000000E+01 0.  1.
        -11    1    4    4    0    0 -0.28959676702E+02 -0.72303171227E+01 -0.13255888121E+02  0.32659744797E+02  0.00000000000E+00 0.  1.
         11    1    4    4    0    0 -0.42651130459E+02  0.70987701751E+02  0.80265774659E+02  0.11532981969E+03  0.00000000000E+00 0. -1.
</event>
<event>
 8    1  0.3654190E-009  0.1072447E+03  0.7561462E-02  0.1265759E+00
         -1   -1    0    0    0  501 -0.00000000000E+00  0.00000000000E+00  0.83443360049E+03  0.83443360049E+03  0.00000000000E+00 0.  1.
          1   -1    0    0  501    0  0.00000000000E+00 -0.00000000000E+00 -0.26061612001E+02  0.26061612001E+02  0.00000000000E+00 0. -1.
         25    2    1    2    0    0  0.65414686261E+02  0.24179643953E+02  0.64615278467E+03  0.66183367573E+03  0.12508659736E+03 0.  0.
         23    2    1    2    0    0 -0.65414686261E+02 -0.24179643953E+02  0.16221920382E+03  0.19866153675E+03  0.91036255072E+02 0.  0.
          5    1    3    3  502    0  0.29061112158E+02 -0.29023193482E+02  0.64323550131E+02  0.76432228158E+02  0.41800000000E+01 0.  1.
         -5    1    3    3    0  502  0.36353574103E+02  0.53202837436E+02  0.58182923454E+03  0.58540144758E+03  0.41800000000E+01 0.  1.
        -11    1    4    4    0    0  0.16355230252E+02 -0.21243905256E+02  0.72178528684E+02  0.76996993903E+02  0.00000000000E+00 0.  1.
         11    1    4    4    0    0 -0.81769916513E+02 -0.29357386975E+01  0.90040675132E+02  0.12166454285E+03  0.00000000000E+00 0. -1.
</event>
<event>
 8    1  0.3654190E-009  0.1184813E+03  0.7561462E-02  0.1245624E+00
         -4   -1    0    0    0  501 -0.00000000000E+00  0.00000000000E+00  0.19329937591E+02  0.19329937591E+02  0.00000000000E+00 0. -1.
          4   -1    0    0  501    0  0.00000000000E+00 -0.00000000000E+00 -0.92808137630E+03  0.92808137630E+03  0.00000000000E+00 0.  1.
         25    2    1    2    0    0  0.70992180012E+02 -0.45687347196E+01 -0.61567424202E+03  0.63226822354E+03  0.12509025245E+03 0.  0.
         23    2    1    2    0    0 -0.70992180012E+02  0.45687347196E+01 -0.29307719670E+03  0.31514309035E+03  0.91433917193E+02 0.  0.
          5    1    3    3  502    0 -0.27811696823E+02 -0.20195635624E+00 -0.30291342294E+03  0.30421628073E+03  0.41800000000E+01 0. -1.
         -5    1    3    3    0  502  0.98803876835E+02 -0.43667783634E+01 -0.31276081908E+03  0.32805194281E+03  0.41800000000E+01 0. -1.
        -11    1    4    4    0    0 -0.74794904261E+02 -0.25893796744E+02 -0.15918867588E+03  0.17778020402E+03  0.00000000000E+00 0.  1.
         11    1    4    4    0    0  0.38027242488E+01  0.30462531464E+02 -0.13388852081E+03  0.13736288633E+03  0.00000000000E+00 0. -1.
</event>
<event>
 8    1  0.3654190E-009  0.1100493E+03  0.7561462E-02  0.1260479E+00
         -2   -1    0    0    0  501 -0.00000000000E+00  0.00000000000E+00  0.70529183763E+03  0.70529183763E+03  0.00000000000E+00 0.  1.
          2   -1    0    0  501    0  0.00000000000E+00 -0.00000000000E+00 -0.17996516281E+02  0.17996516281E+02  0.00000000000E+00 0. -1.
         25    2    1    2    0    0  0.28595881462E+02  0.29023242170E+01  0.34413100737E+03  0.36729007611E+03  0.12509876837E+03 0.  0.
         23    2    1    2    0    0 -0.28595881462E+02 -0.29023242170E+01  0.34316431397E+03  0.35599827780E+03  0.90260065867E+02 0.  0.
          5    1    3    3  502    0  0.29959394108E+02 -0.58391767685E+02  0.15333416960E+03  0.16684125328E+03  0.41800000000E+01 0.  1.
         -5    1    3    3    0  502 -0.13635126462E+01  0.61294091902E+02  0.19079683777E+03  0.20044882283E+03  0.41800000000E+01 0.  1.
        -11    1    4    4    0    0 -0.19193752066E+02 -0.45436411219E+02  0.21667717584E+03  0.22222030985E+03  0.00000000000E+00 0.  1.
         11    1    4    4    0    0 -0.94021293958E+01  0.42534087002E+02  0.12648713813E+03  0.13377796794E+03  0.00000000000E+00 0. -1.
</event>
<event>
 8    1  0.3654190E-009  0.9238244E+02  0.7561462E-02  0.1297183E+00
          1   -1    0    0  501    0  0.00000000000E+00  0.00000000000E+00  0.62817991237E+03  0.62817991237E+03  0.00000000000E+00 0. -1.
         -1   -1    0    0    0  501 -0.00000000000E+00 -0.00000000000E+00 -0.20350789395E+02  0.20350789395E+02  0.00000000000E+00 0.  1.
         25    2    1    2    0    0 -0.87424587511E+01  0.27865448503E+02  0.37375619496E+03  0.39521476183E+03  0.12509236943E+03 0.  0.
         23    2    1    2    0    0  0.87424587511E+01 -0.27865448503E+02  0.23407292802E+03  0.25331593994E+03  0.92335886805E+02 0.  0.
          5    1    3    3  502    0  0.54288955500E+02 -0.62396040527E+01  0.19575773047E+03  0.20328498417E+03  0.41800000000E+01 0.  1.
         -5    1    3    3    0  502 -0.63031414251E+02  0.34105052555E+02  0.17799846449E+03  0.19192977766E+03  0.41800000000E+01 0.  1.
        -11    1    4    4    0    0  0.15039600954E+02  0.11104543717E+02  0.30469185474E+01  0.18941599738E+02  0.00000000000E+00 0.  1.
         11    1    4    4    0    0 -0.62971422031E+01 -0.38969992220E+02  0.23102600947E+03  0.23437434020E+03  0.00000000000E+00 0. -1.
</event>
<event>
 8    1  0.3654190E-009  0.1216559E+03  0.7561462E-02  0.1240390E+00
         -1   -1    0    0    0  501 -0.00000000000E+00  0.00000000000E+00  0.37782945881E+02  0.37782945881E+02  0.00000000000E+00 0.  1.
          1   -1    0    0  501    0  0.00000000000E+00 -0.00000000000E+00 -0.59629179332E+03  0.59629179332E+03  0.00000000000E+00 0. -1.
         25    2    1    2    0    0  0.22126460071E+02  0.60896318199E+02 -0.13130902493E+03  0.19258123955E+03  0.12509009549E+03 0.  0.
         23    2    1    2    0    0 -0.22126460071E+02 -0.60896318199E+02 -0.42719982251E+03  0.44149349966E+03  0.90658039268E+02 0.  0.
          5    1    3    3  502    0 -0.48780166658E+02  0.32073260598E+02 -0.84412361059E+02  0.10271863416E+03  0.41800000000E+01 0. -1.
         -5    1    3    3    0  502  0.70906626729E+02  0.28823057602E+02 -0.46896663875E+02  0.89862605383E+02  0.41800000000E+01 0. -1.
        -11    1    4    4    0    0 -0.55656408193E+02 -0.41131144981E+02 -0.21858681170E+03  0.22928061651E+03  0.00000000000E+00 0. -1.
         11    1    4    4    0    0  0.33529948122E+02 -0.19765173218E+02 -0.20861301081E+03  0.21221288314E+03  0.00000000000E+00 0.  1.
</event>
<event>
 8    1  0.3654190E-009  0.1210920E+03  0.7561462E-02  0.1241306E+00
          3   -1    0    0  501    0  0.00000000000E+00  0.00000000000E+00  0.15002086805E+03  0.15002086805E+03  0.00000000000E+00 0.  1.
         -3   -1    0    0    0  501 -0.00000000000E+00 -0.00000000000E+00 -0.15676935596E+03  0.15676935596E+03  0.00000000000E+00 0. -1.
         25    2    1    2    0    0 -0.78642539267E+02 -0.44035813744E+02  0.55755992447E+02  0.16395129343E+03  0.12508994384E+03 0.  0.
         23    2    1    2    0    0  0.78642539267E+02  0.44035813744E+02 -0.62504480353E+02  0.14283893058E+03  0.91500536346E+02 0.  0.
          5    1    3    3  502    0 -0.83069258142E+02  0.19278645605E+02  0.10796268377E+02  0.86059279775E+02  0.41800000000E+01 0. -1.
         -5    1    3    3    0  502  0.44267188743E+01 -0.63314459349E+02  0.44959724070E+02  0.77892013654E+02  0.41800000000E+01 0. -1.
        -11    1    4    4    0    0  0.54481264535E+02  0.42299746291E+02  0.69094905000E+01  0.69319678163E+02  0.00000000000E+00 0.  1.
         11    1    4    4    0    0  0.24161274733E+02  0.17360674527E+01 -0.69413970853E+02  0.73519252421E+02  0.00000000000E+00 0. -1.
</event>
<event>
 8    1  0.3654190E-009  0.9070826E+02  0.7561462E-02  0.1301146E+00
          1   -1    0    0  501    0  0.00000000000E+00  0.00000000000E+00  0.26698568286E+03  0.26698568286E+03  0.00000000000E+00 0. -1.
         -1   -1    0    0    0  501 -0.00000000000E+00 -0.00000000000E+00 -0.60224698529E+02  0.60224698529E+02  0.00000000000E+00 0.  1.
         25    2    1    2    0    0  0.53196622653E+02  0.29238825029E+02  0.77484869583E+02  0.15917420815E+03  0.12509090284E+03 0.  0.
         23    2    1    2    0    0 -0.53196622653E+02 -0.29238825029E+02  0.12927611474E+03  0.16803617324E+03  0.88538421731E+02 0.  0.
          5    1    3    3  502    0  0.82139503361E+02  0.24687550197E+02  0.11220350601E+02  0.86601049733E+02  0.41800000000E+01 0. -1.
         -5    1    3    3    0  502 -0.28942880709E+02  0.45512748321E+01  0.66264518982E+02  0.72573158414E+02  0.41800000000E+01 0. -1.
        -11    1    4    4    0    0 -0.26599908701E+02 -0.29001002457E+02  0.35328917290E+01  0.39510689824E+02  0.00000000000E+00 0.  1.
         11    1    4    4    0    0 -0.26596713952E+02 -0.23782257148E+00  0.12574322302E+03  0.12852548341E+03  0.00000000000E+00 0. -1.
</event>
<event>
 8    1  0.3654190E-009  0.1430247E+03  0.7561462E-02  0.1209316E+00
          1   -1    0    0  501    0  0.00000000000E+00  0.00000000000E+00  0.53838465233E+03  0.53838465233E+03  0.00000000000E+00 0. -1.
         -1   -1    0    0    0  501 -0.00000000000E+00 -0.00000000000E+00 -0.41869281518E+02  0.41869281518E+02  0.00000000000E+00 0.  1.
         25    2    1    2    0    0  0.94303407583E+02 -0.29780921378E+02  0.23012373489E+03  0.27997261975E+03  0.12509076100E+03 0.  0.
         23    2    1    2    0    0 -0.94303407583E+02  0.29780921378E+02  0.26639163592E+03  0.30028131410E+03  0.97078977897E+02 0.  0.
          5    1    3    3  502    0  0.50995115860E+01 -0.58685364538E+02  0.52244562156E+02  0.78847597962E+02  0.41800000000E+01 0. -1.
         -5    1    3    3    0  502  0.89203895997E+02  0.28904443160E+02  0.17787917274E+03  0.20112502179E+03  0.41800000000E+01 0. -1.
        -11    1    4    4    0    0 -0.71569577443E+02  0.61324802722E+02  0.14610668062E+03  0.17386804757E+03  0.00000000000E+00 0. -1.
         11    1    4    4    0    0 -0.22733830140E+02 -0.31543881344E+02  0.12028495530E+03  0.12641326653E+03  0.00000000000E+00 0.  1.
</event>
<event>
 8    1  0.3654190E-009  0.1866545E+03  0.7561462E-02  0.1161514E+00
          2   -1    0    0  501    0  0.00000000000E+00  0.00000000000E+00  0.22688163521E+04  0.22688163521E+04  0.00000000000E+00 0.  1.
         -2   -1    0    0    0  501 -0.00000000000E+00 -0.00000000000E+00 -0.28240215913E+02  0.28240215913E+02  0.00000000000E+00 0. -1.
         25    2    1    2    0    0  0.37512697237E+02  0.15232353259E+03  0.19065175242E+04  0.19170464234E+04  0.12509299856E+03 0.  0.
         23    2    1    2    0    0 -0.37512697237E+02 -0.15232353259E+03  0.33405861197E+03  0.38001014462E+03  0.90569822481E+02 0.  0.
          5    1    3    3  502    0  0.22919618248E+02 -0.18040914509E+02  0.25590353076E+03  0.25759439620E+03  0.41800000000E+01 0. -1.
         -5    1    3    3    0  502  0.14593078989E+02  0.17036444709E+03  0.16506139934E+04  0.16594520272E+04  0.41800000000E+01 0. -1.
        -11    1    4    4    0    0  0.18747746730E+02 -0.74189562576E+02  0.93001358843E+02  0.12043596618E+03  0.00000000000E+00 0. -1.
         11    1    4    4    0    0 -0.56260443967E+02 -0.78133970009E+02  0.24105725313E+03  0.25957417844E+03  0.00000000000E+00 0.  1.
</event>
<event>
 8    1  0.3654190E-009  0.1732787E+03  0.7561462E-02  0.1174471E+00
         -2   -1    0    0    0  501 -0.00000000000E+00  0.00000000000E+00  0.37129045567E+02  0.37129045567E+02  0.00000000000E+00 0.  1.
          2   -1    0    0  501    0  0.00000000000E+00 -0.00000000000E+00 -0.10876802589E+04  0.10876802589E+04  0.00000000000E+00 0. -1.
         25    2    1    2    0    0  0.52882754328E+02 -0.15655804636E+03 -0.64733073386E+03  0.67969940112E+03  0.12508872573E+03 0.  0.
         23    2    1    2    0    0 -0.52882754328E+02  0.15655804636E+03 -0.40322047952E+03  0.44510990338E+03  0.90714185240E+02 0.  0.
          5    1    3    3  502    0  0.17767699050E+02 -0.37030347239E+01 -0.27543387673E+03  0.27606284873E+03  0.41800000000E+01 0. -1.
         -5    1    3    3    0  502  0.35115055279E+02 -0.15285501164E+03 -0.37189685712E+03  0.40363655239E+03  0.41800000000E+01 0. -1.
        -11    1    4    4    0    0 -0.21996523372E+02  0.16184439818E+02 -0.16222711861E+03  0.16450963845E+03  0.00000000000E+00 0. -1.
         11    1    4    4    0    0 -0.30886230956E+02  0.14037360654E+03 -0.24099336091E+03  0.28060026493E+03  0.00000000000E+00 0.  1.
</event>
<event>
 8    1  0.3654190E-009  0.1410632E+03  0.7561462E-02  0.1211905E+00
         -1   -1    0    0    0  501 -0.00000000000E+00  0.00000000000E+00  0.15962063439E+03  0.15962063439E+03  0.00000000000E+00 0.  1.
          1   -1    0    0  501    0  0.00000000000E+00 -0.00000000000E+00 -0.12895646577E+03  0.12895646577E+03  0.00000000000E+00 0. -1.
         25    2    1    2    0    0  0.26202793359E+02 -0.82561903866E+02 -0.80801116933E+01  0.15237014408E+03  0.12509323824E+03 0.  0.
         23    2    1    2    0    0 -0.26202793359E+02  0.82561903866E+02  0.38744280310E+02  0.13620695608E+03  0.97714693251E+02 0.  0.
          5    1    3    3  502    0  0.58739107204E+02 -0.99036369084E+02 -0.96788049772E+01  0.11562714553E+03  0.41800000000E+01 0.  1.
         -5    1    3    3    0  502 -0.32536313845E+02  0.16474465218E+02  0.15986932839E+01  0.36742998558E+02  0.41800000000E+01 0.  1.
        -11    1    4    4    0    0  0.97997809931E+01  0.92365097367E+02  0.32311278398E+02  0.98343101592E+02  0.00000000000E+00 0.  1.
         11    1    4    4    0    0 -0.36002574352E+02 -0.98031935007E+01  0.64330019112E+01  0.37863854484E+02  0.00000000000E+00 0. -1.
</event>
<event>
 8    1  0.3654190E-009  0.7722068E+02  0.7561462E-02  0.1337129E+00
         -2   -1    0    0    0  501 -0.00000000000E+00  0.00000000000E+00  0.59047492916E+02  0.59047492916E+02  0.00000000000E+00 0.  1.
          2   -1    0    0  501    0  0.00000000000E+00 -0.00000000000E+00 -0.22575478061E+03  0.22575478061E+03  0.00000000000E+00 0. -1.
         25    2    1    2    0    0 -0.73166242129E+01  0.34395762111E+02 -0.10108423655E+03  0.16462800335E+03  0.12509098755E+03 0.  0.
         23    2    1    2    0    0  0.73166242129E+01 -0.34395762111E+02 -0.65623051145E+02  0.12017427018E+03  0.94333816474E+02 0.  0.
          5    1    3    3  502    0 -0.38945749366E+02 -0.28289949460E+02 -0.75788207577E+02  0.89880016922E+02  0.41800000000E+01 0.  1.
         -5    1    3    3    0  502  0.31629125153E+02  0.62685711571E+02 -0.25296028977E+02  0.74747986428E+02  0.41800000000E+01 0.  1.
        -11    1    4    4    0    0  0.11255320431E+01 -0.20989940147E+02 -0.89590387498E+02  0.92023268480E+02  0.00000000000E+00 0. -1.
         11    1    4    4    0    0  0.61910921698E+01 -0.13405821964E+02  0.23967336353E+02  0.28151001699E+02  0.00000000000E+00 0.  1.
</event>
<event>
 8    1  0.3654190E-009  0.1504271E+03  0.7561462E-02  0.1199949E+00
         -1   -1    0    0    0  501 -0.00000000000E+00  0.00000000000E+00  0.27792998585E+03  0.27792998585E+03  0.00000000000E+00 0.  1.
          1   -1    0    0  501    0  0.00000000000E+00 -0.00000000000E+00 -0.83866057597E+02  0.83866057597E+02  0.00000000000E+00 0. -1.
         25    2    1    2    0    0 -0.10187580667E+03  0.33182256566E+02  0.10766479115E+03  0.19678413802E+03  0.12511014183E+03 0.  0.
         23    2    1    2    0    0  0.10187580667E+03 -0.33182256566E+02  0.86399137105E+02  0.16501190543E+03  0.91018547048E+02 0.  0.
          5    1    3    3  502    0 -0.10191145663E+03 -0.23281936814E+02  0.88432286176E+02  0.13698808420E+03  0.41800000000E+01 0. -1.
         -5    1    3    3    0  502  0.35649960788E-01  0.56464193380E+02  0.19232504972E+02  0.59796053820E+02  0.41800000000E+01 0. -1.
        -11    1    4    4    0    0  0.87549689006E+02 -0.62103695343E+02  0.74287308737E+02  0.13053896453E+03  0.00000000000E+00 0.  1.
         11    1    4    4    0    0  0.14326117660E+02  0.28921438777E+02  0.12111828368E+02  0.34472940904E+02  0.00000000000E+00 0. -1.
</event>
<event>
 8    1  0.3654190E-009  0.1065939E+03  0.7561462E-02  0.1267011E+00
         -2   -1    0    0    0  501 -0.00000000000E+00  0.00000000000E+00  0.44193419049E+02  0.44193419049E+02  0.00000000000E+00 0.  1.
          2   -1    0    0  501    0  0.00000000000E+00 -0.00000000000E+00 -0.54622429116E+03  0.54622429116E+03  0.00000000000E+00 0. -1.
         25    2    1    2    0    0 -0.32153095175E+02 -0.39600989430E+02 -0.45656690542E+03  0.47613329945E+03  0.12509004685E+03 0.  0.
         23    2    1    2    0    0  0.32153095175E+02  0.39600989430E+02 -0.45463966685E+02  0.11428441076E+03  0.91607283459E+02 0.  0.
          5    1    3    3  502    0 -0.71747798572E+02 -0.21966953756E+02 -0.38572924004E+03  0.39298194956E+03  0.41800000000E+01 0.  1.
         -5    1    3    3    0  502  0.39594703397E+02 -0.17634035674E+02 -0.70837665381E+02  0.83151349886E+02  0.41800000000E+01 0.  1.
        -11    1    4    4    0    0 -0.19380096164E+02 -0.10986634558E+02 -0.34753927526E+02  0.41281106389E+02  0.00000000000E+00 0. -1.
         11    1    4    4    0    0  0.51533191338E+02  0.50587623988E+02 -0.10710039159E+02  0.73003304370E+02  0.00000000000E+00 0.  1.
</event>
<event>
 8    1  0.3654190E-009  0.9930113E+02  0.7561462E-02  0.1281772E+00
         -2   -1    0    0    0  501 -0.00000000000E+00  0.00000000000E+00  0.47108704362E+02  0.47108704362E+02  0.00000000000E+00 0. -1.
          2   -1    0    0  501    0  0.00000000000E+00 -0.00000000000E+00 -0.27193759013E+03  0.27193759013E+03  0.00000000000E+00 0.  1.
         25    2    1    2    0    0  0.15593978095E+02 -0.31883557991E+01 -0.90823878933E+02  0.15540031633E+03  0.12508774346E+03 0.  0.
         23    2    1    2    0    0 -0.15593978095E+02  0.31883557991E+01 -0.13400500684E+03  0.16364597816E+03  0.92570657052E+02 0.  0.
          5    1    3    3  502    0 -0.40267840482E+02  0.35872852385E+02 -0.21849765382E+02  0.58337339351E+02  0.41800000000E+01 0.  1.
         -5    1    3    3    0  502  0.55861818577E+02 -0.39061208184E+02 -0.68974113552E+02  0.97062976978E+02  0.41800000000E+01 0.  1.
        -11    1    4    4    0    0 -0.44691656642E+02  0.11131262850E+02 -0.29074174185E+02  0.54466106806E+02  0.00000000000E+00 0. -1.
         11    1    4    4    0    0  0.29097678547E+02 -0.79429070513E+01 -0.10493083265E+03  0.10917987136E+03  0.00000000000E+00 0.  1.
</event>
<event>
 8    1  0.3654190E-009  0.2130812E+03  0.7561462E-02  0.1139149E+00
          2   -1    0    0  501    0  0.00000000000E+00  0.00000000000E+00  0.14882652365E+04  0.14882652365E+04  0.00000000000E+00 0.  1.
         -2   -1    0    0    0  501 -0.00000000000E+00 -0.00000000000E+00 -0.35168996169E+02  0.35168996169E+02  0.00000000000E+00 0. -1.
         25    2    1    2    0    0  0.14687020808E+03 -0.13580768803E+03  0.67946526924E+03  0.71926045492E+03  0.12509182128E+03 0.  0.
         23    2    1    2    0    0 -0.14687020808E+03  0.13580768803E+03  0.77363097106E+03  0.80417377772E+03  0.90421232269E+02 0.  0.
          5    1    3    3  502    0  0.27921003404E+02  0.17016446944E+01  0.26682853921E+03  0.26832334927E+03  0.41800000000E+01 0.  1.
         -5    1    3    3    0  502  0.11894920468E+03 -0.13750933272E+03  0.41263673004E+03  0.45093710565E+03  0.41800000000E+01 0.  1.
        -11    1    4    4    0    0 -0.78860052149E+02  0.19427138541E+02  0.36337043362E+03  0.37233639839E+03  0.00000000000E+00 0. -1.
         11    1    4    4    0    0 -0.68010155932E+02  0.11638054949E+03  0.41026053744E+03  0.43183737934E+03  0.00000000000E+00 0.  1.
</event>
<event>
 8    1  0.3654190E-009  0.1606169E+03  0.7561462E-02  0.1188002E+00
         -2   -1    0    0    0  501 -0.00000000000E+00  0.00000000000E+00  0.62472987856E+02  0.62472987856E+02  0.00000000000E+00 0.  1.
          2   -1    0    0  501    0  0.00000000000E+00 -0.00000000000E+00 -0.53028542160E+03  0.53028542160E+03  0.00000000000E+00 0. -1.
         25    2    1    2    0    0 -0.37664390124E+01 -0.14285198477E+03 -0.28719423144E+03  0.34430794416E+03  0.12508620317E+03 0.  0.
         23    2    1    2    0    0  0.37664390124E+01  0.14285198477E+03 -0.18061820231E+03  0.24845046530E+03  0.93187032830E+02 0.  0.
          5    1    3    3  502    0 -0.27598197952E+02  0.19899283842E+01 -0.11329401284E+03  0.11669886928E+03  0.41800000000E+01 0.  1.
         -5    1    3    3    0  502  0.23831758940E+02 -0.14484191315E+03 -0.17390021859E+03  0.22760907488E+03  0.41800000000E+01 0.  1.
        -11    1    4    4    0    0  0.17899951910E+02  0.81286564744E+02 -0.36090316450E+02  0.90721688849E+02  0.00000000000E+00 0.  1.
         11    1    4    4    0    0 -0.14133512898E+02  0.61565420024E+02 -0.14452788586E+03  0.15772877645E+03  0.00000000000E+00 0. -1.
</event>
<event>
 8    1  0.3654190E-009  0.9609719E+02  0.7561462E-02  0.1288724E+00
         -1   -1    0    0    0  501 -0.00000000000E+00  0.00000000000E+00  0.19256723073E+03  0.19256723073E+03  0.00000000000E+00 0.  1.
          1   -1    0    0  501    0  0.00000000000E+00 -0.00000000000E+00 -0.11415197090E+03  0.11415197090E+03  0.00000000000E+00 0. -1.
         25    2    1    2    0    0 -0.76152277564E+01 -0.66011554851E+02  0.11923096564E+03  0.18514645553E+03  0.12509064617E+03 0.  0.
         23    2    1    2    0    0  0.76152277564E+01  0.66011554851E+02 -0.40815705816E+02  0.12157274611E+03  0.93265715495E+02 0.  0.
          5    1    3    3  502    0 -0.36154199021E+02 -0.42648540663E+02 -0.42301414939E+01  0.56226244981E+02  0.41800000000E+01 0.  1.
         -5    1    3    3    0  502  0.28538971265E+02 -0.23363014188E+02  0.12346110714E+03  0.12892021055E+03  0.41800000000E+01 0.  1.
        -11    1    4    4    0    0 -0.82897188673E+01  0.78407251035E+02 -0.32192476223E+01  0.78909948732E+02  0.00000000000E+00 0.  1.
         11    1    4    4    0    0  0.15904946624E+02 -0.12395696184E+02 -0.37596458194E+02  0.42662797373E+02  0.00000000000E+00 0. -1.
</event>
<event>
 8    1  0.3654190E-009  0.9315323E+02  0.7561462E-02  0.1295390E+00
         -2   -1    0    0    0  501 -0.00000000000E+00  0.00000000000E+00  0.10166031992E+03  0.10166031992E+03  0.00000000000E+00 0.  1.
          2   -1    0    0  501    0  0.00000000000E+00 -0.00000000000E+00 -0.13775088312E+03  0.13775088312E+03  0.00000000000E+00 0. -1.
         25    2    1    2    0    0  0.37116525418E+02  0.23644039832E+02 -0.15645139271E+01  0.13261171546E+03  0.12508693894E+03 0.  0.
         23    2    1    2    0    0 -0.37116525418E+02 -0.23644039832E+02 -0.34526049277E+02  0.10679948758E+03  0.90980247249E+02 0.  0.
          5    1    3    3  502    0  0.14541461689E+01  0.71909822260E+02  0.42708868196E+01  0.72172362805E+02  0.41800000000E+01 0. -1.
         -5    1    3    3    0  502  0.35662379249E+02 -0.48265782428E+02 -0.58354007467E+01  0.60439352652E+02  0.41800000000E+01 0. -1.
        -11    1    4    4    0    0 -0.67997186674E+01 -0.22781374570E+02 -0.61672227620E+02  0.66096072961E+02  0.00000000000E+00 0. -1.
         11    1    4    4    0    0 -0.30316806750E+02 -0.86266526183E+00  0.27146178343E+02  0.40703414617E+02  0.00000000000E+00 0.  1.
</event>
<event>
 8    1  0.3654190E-009  0.1036442E+03  0.7561462E-02  0.1272814E+00
         -1   -1    0    0    0  501 -0.00000000000E+00  0.00000000000E+00  0.37296912161E+03  0.37296912161E+03  0.00000000000E+00 0.  1.
          1   -1    0    0  501    0  0.00000000000E+00 -0.00000000000E+00 -0.67078475946E+02  0.67078475946E+02  0.00000000000E+00 0. -1.
         25    2    1    2    0    0 -0.49920940022E+01 -0.76948149872E+02  0.28179409313E+03  0.31780603330E+03  0.12508726998E+03 0.  0.
         23    2    1    2    0    0  0.49920940022E+01  0.76948149872E+02  0.24096552534E+02  0.12224156425E+03  0.91741034524E+02 0.  0.
          5    1    3    3  502    0  0.46815102789E+02 -0.37775887341E+02  0.54165753512E+02  0.81055985387E+02  0.41800000000E+01 0.  1.
         -5    1    3    3    0  502 -0.51807196791E+02 -0.39172262531E+02  0.22762833962E+03  0.23675004792E+03  0.41800000000E+01 0.  1.
        -11    1    4    4    0    0 -0.92508646290E+01  0.54773222211E+02  0.57329295767E+02  0.79826890963E+02  0.00000000000E+00 0.  1.
         11    1    4    4    0    0  0.14242958631E+02  0.22174927661E+02 -0.33232743233E+02  0.42414673288E+02  0.00000000000E+00 0. -1.
</event>
<event>
 8    1  0.3654190E-009  0.1235929E+03  0.7561462E-02  0.1237285E+00
          3   -1    0    0  501    0  0.00000000000E+00  0.00000000000E+00  0.10836685175E+03  0.10836685175E+03  0.00000000000E+00 0. -1.
         -3   -1    0    0    0  501 -0.00000000000E+00 -0.00000000000E+00 -0.16926397258E+03  0.16926397258E+03  0.00000000000E+00 0.  1.
         25    2    1    2    0    0  0.16235393892E+02  0.78517590477E+02 -0.21414930664E+02  0.15011825056E+03  0.12509312478E+03 0.  0.
         23    2    1    2    0    0 -0.16235393892E+02 -0.78517590477E+02 -0.39482190161E+02  0.12751257376E+03  0.90950608014E+02 0.  0.
          5    1    3    3  502    0 -0.51932632656E+02  0.21524558479E+02  0.68419327307E+01  0.56785468175E+02  0.41800000000E+01 0.  1.
         -5    1    3    3    0  502  0.68168026548E+02  0.56993031998E+02 -0.28256863395E+02  0.93332782390E+02  0.41800000000E+01 0.  1.
        -11    1    4    4    0    0  0.12644465092E+02  0.49193641655E+01 -0.36752311202E+02  0.39176715277E+02  0.00000000000E+00 0.  1.
         11    1    4    4    0    0 -0.28879858984E+02 -0.83436954643E+02 -0.27298789595E+01  0.88335858484E+02  0.00000000000E+00 0. -1.
</event>
<event>
 8    1  0.3654190E-009  0.2769316E+03  0.7561462E-02  0.1097377E+00
         -1   -1    0    0    0  501 -0.00000000000E+00  0.00000000000E+00  0.21962525737E+03  0.21962525737E+03  0.00000000000E+00 0.  1.
          1   -1    0    0  501    0  0.00000000000E+00 -0.00000000000E+00 -0.43415533009E+03  0.43415533009E+03  0.00000000000E+00 0. -1.
         25    2    1    2    0    0 -0.24328382861E+03  0.95667887909E+02 -0.24013987810E+03  0.37637056871E+03  0.12509307695E+03 0.  0.
         23    2    1    2    0    0  0.24328382861E+03 -0.95667887909E+02  0.25609805380E+02  0.27741001875E+03  0.89224942331E+02 0.  0.
          5    1    3    3  502    0 -0.57048778042E+02  0.73401920349E+02 -0.37809779457E+02  0.10044628818E+03  0.41800000000E+01 0. -1.
         -5    1    3    3    0  502 -0.18623505057E+03  0.22265967560E+02 -0.20233009864E+03  0.27592428053E+03  0.41800000000E+01 0. -1.
        -11    1    4    4    0    0  0.40296281589E+02  0.13774488005E+02  0.19189491857E+02  0.46709350535E+02  0.00000000000E+00 0.  1.
         11    1    4    4    0    0  0.20298754702E+03 -0.10944237591E+03  0.64203135231E+01  0.23070066822E+03  0.00000000000E+00 0. -1.
</event>
<event>
 8    1  0.3654190E-009  0.1136191E+03  0.7561462E-02  0.1254011E+00
          1   -1    0    0  501    0  0.00000000000E+00  0.00000000000E+00  0.61532486541E+03  0.61532486541E+03  0.00000000000E+00 0. -1.
         -1   -1    0    0    0  501 -0.00000000000E+00 -0.00000000000E+00 -0.26920492714E+02  0.26920492714E+02  0.00000000000E+00 0.  1.
         25    2    1    2    0    0 -0.25548242228E+02 -0.60391900985E+02  0.25061611229E+03  0.28767776187E+03  0.12510061770E+03 0.  0.
         23    2    1    2    0    0  0.25548242228E+02  0.60391900985E+02  0.33778826041E+03  0.35456759626E+03  0.85541668563E+02 0.  0.
          5    1    3    3  502    0 -0.33660907839E+02  0.19489876984E+02  0.21017507808E+02  0.44408558362E+02  0.41800000000E+01 0.  1.
         -5    1    3    3    0  502  0.81126656106E+01 -0.79881777969E+02  0.22959860448E+03  0.24326920350E+03  0.41800000000E+01 0.  1.
        -11    1    4    4    0    0 -0.77739129293E+01  0.72009025662E+02  0.23291431628E+03  0.24391558423E+03  0.00000000000E+00 0.  1.
         11    1    4    4    0    0  0.33322155157E+02 -0.11617124677E+02  0.10487394413E+03  0.11065201203E+03  0.00000000000E+00 0. -1.
</event>
<event>
 8    1  0.3654190E-009  0.1769916E+03  0.7561462E-02  0.1170747E+00
          1   -1    0    0  501    0  0.00000000000E+00  0.00000000000E+00  0.17027202718E+04  0.17027202718E+04  0.00000000000E+00 0. -1.
         -1   -1    0    0    0  501 -0.00000000000E+00 -0.00000000000E+00 -0.33437763055E+02  0.33437763055E+02  0.00000000000E+00 0.  1.
         25    2    1    2    0    0 -0.12910596443E+03 -0.58712021755E+02  0.14359651448E+04  0.14483649436E+04  0.12509860609E+03 0.  0.
         23    2    1    2    0    0  0.12910596443E+03  0.58712021755E+02  0.23331736396E+03  0.28779309126E+03  0.90952842182E+02 0.  0.
          5    1    3    3  502    0  0.21885542932E+02  0.34710743615E+01  0.10372051422E+03  0.10614350106E+03  0.41800000000E+01 0.  1.
         -5    1    3    3    0  502 -0.15099150737E+03 -0.62183096116E+02  0.13322446306E+04  0.13422214425E+04  0.41800000000E+01 0.  1.
        -11    1    4    4    0    0  0.10315241539E+03 -0.80474914882E+00  0.13338760223E+03  0.16862182792E+03  0.00000000000E+00 0. -1.
         11    1    4    4    0    0  0.25953549042E+02  0.59516770904E+02  0.99929761740E+02  0.11917126335E+03  0.00000000000E+00 0.  1.
</event>
<event>
 8    1  0.3654190E-009  0.1594215E+03  0.7561462E-02  0.1189351E+00
         -1   -1    0    0    0  501 -0.00000000000E+00  0.00000000000E+00  0.11288517339E+03  0.11288517339E+03  0.00000000000E+00 0.  1.
          1   -1    0    0  501    0  0.00000000000E+00 -0.00000000000E+00 -0.33485475715E+03  0.33485475715E+03  0.00000000000E+00 0. -1.
         25    2    1    2    0    0  0.10219557564E+03 -0.10399200524E+03 -0.19512112704E+03  0.27382115880E+03  0.12508996745E+03 0.  0.
         23    2    1    2    0    0 -0.10219557564E+03  0.10399200524E+03 -0.26848456719E+02  0.17391877174E+03  0.90931989441E+02 0.  0.
          5    1    3    3  502    0  0.50087330971E+02  0.41365222210E+01 -0.12489958341E+03  0.13469680722E+03  0.41800000000E+01 0.  1.
         -5    1    3    3    0  502  0.52108244667E+02 -0.10812852746E+03 -0.70221543635E+02  0.13912435158E+03  0.41800000000E+01 0.  1.
        -11    1    4    4    0    0 -0.76982194831E+02  0.93203516156E+02 -0.56579669240E+02  0.13347064365E+03  0.00000000000E+00 0.  1.
         11    1    4    4    0    0 -0.25213380806E+02  0.10788489080E+02  0.29731212521E+02  0.40448128094E+02  0.00000000000E+00 0. -1.
</event>
<event>
 8    1  0.3654190E-009  0.1239331E+03  0.7561462E-02  0.1236746E+00
         -1   -1    0    0    0  501 -0.00000000000E+00  0.00000000000E+00  0.14103414063E+04  0.14103414063E+04  0.00000000000E+00 0.  1.
          1   -1    0    0  501    0  0.00000000000E+00 -0.00000000000E+00 -0.19482280218E+02  0.19482280218E+02  0.00000000000E+00 0. -1.
         25    2    1    2    0    0  0.16940570837E+02  0.60409472610E+02  0.12070277296E+04  0.12151128211E+04  0.12508773243E+03 0.  0.
         23    2    1    2    0    0 -0.16940570837E+02 -0.60409472610E+02  0.18383139654E+03  0.21471086541E+03  0.91490360433E+02 0.  0.
          5    1    3    3  502    0 -0.29026775618E+02  0.81806792642E+02  0.65374127004E+03  0.65949224831E+03  0.41800000000E+01 0.  1.
         -5    1    3    3    0  502  0.45967346455E+02 -0.21397320031E+02  0.55328645951E+03  0.55562057280E+03  0.41800000000E+01 0.  1.
        -11    1    4    4    0    0  0.27874665028E+02 -0.58994916149E+02  0.12173252757E+03  0.13811663676E+03  0.00000000000E+00 0.  1.
         11    1    4    4    0    0 -0.44815235865E+02 -0.14145564610E+01  0.62098868969E+02  0.76594228652E+02  0.00000000000E+00 0. -1.
</event>
<event>
 8    1  0.3654190E-009  0.6160595E+02  0.7561462E-02  0.1391213E+00
         -3   -1    0    0    0  501 -0.00000000000E+00  0.00000000000E+00  0.19715021704E+03  0.19715021704E+03  0.00000000000E+00 0.  1.
          3   -1    0    0  501    0  0.00000000000E+00 -0.00000000000E+00 -0.61884209661E+02  0.61884209661E+02  0.00000000000E+00 0. -1.
         25    2    1    2    0    0  0.79589072764E+01 -0.22219585842E+02  0.78168274122E+02  0.14938088716E+03  0.12508923283E+03 0.  0.
         23    2    1    2    0    0 -0.79589072764E+01  0.22219585842E+02  0.57097733258E+02  0.10965353954E+03  0.90590801910E+02 0.  0.
          5    1    3    3  502    0  0.10076062824E+01 -0.24089369930E+02 -0.31225224600E+02  0.39671149030E+02  0.41800000000E+01 0.  1.
         -5    1    3    3    0  502  0.69513009940E+01  0.18697840877E+01  0.10939349872E+03  0.10970973813E+03  0.41800000000E+01 0.  1.
        -11    1    4    4    0    0  0.39795185239E+02  0.12207048325E+02  0.40602153569E+02  0.58148118383E+02  0.00000000000E+00 0.  1.
         11    1    4    4    0    0 -0.47754092515E+02  0.10012537517E+02  0.16495579689E+02  0.51505421159E+02  0.00000000000E+00 0. -1.
</event>
<event>
 8    1  0.3654190E-009  0.9893602E+02  0.7561462E-02  0.1282549E+00
         -1   -1    0    0    0  501 -0.00000000000E+00  0.00000000000E+00  0.35814254637E+02  0.35814254637E+02  0.00000000000E+00 0. -1.
          1   -1    0    0  501    0  0.00000000000E+00 -0.00000000000E+00 -0.40385780014E+03  0.40385780014E+03  0.00000000000E+00 0.  1.
         25    2    1    2    0    0 -0.28388353697E+02 -0.41908971657E+02 -0.24361911839E+03  0.27849581598E+03  0.12508950452E+03 0.  0.
         23    2    1    2    0    0  0.28388353697E+02  0.41908971657E+02 -0.12442442711E+03  0.16117623880E+03  0.89073460470E+02 0.  0.
          5    1    3    3  502    0  0.54733489993E+01  0.24470376139E+02 -0.18719268512E+01  0.25489867944E+02  0.41800000000E+01 0. -1.
         -5    1    3    3    0  502 -0.33861702696E+02 -0.66379347796E+02 -0.24174719154E+03  0.25300594803E+03  0.41800000000E+01 0. -1.
        -11    1    4    4    0    0 -0.26489960776E+02 -0.33261971264E+01 -0.14863002464E+02  0.30556348792E+02  0.00000000000E+00 0.  1.
         11    1    4    4    0    0  0.54878314474E+02  0.45235168783E+02 -0.10956142465E+03  0.13061989001E+03  0.00000000000E+00 0. -1.
</event>
<event>
 8    1  0.3654190E-009  0.1021869E+03  0.7561462E-02  0.1275763E+00
         -4   -1    0    0    0  501 -0.00000000000E+00  0.00000000000E+00  0.22161512561E+03  0.22161512561E+03  0.00000000000E+00 0.  1.
          4   -1    0    0  501    0  0.00000000000E+00 -0.00000000000E+00 -0.66294712234E+02  0.66294712234E+02  0.00000000000E+00 0. -1.
         25    2    1    2    0    0  0.14479976013E+02  0.22777722738E+02  0.14496217695E+03  0.19336752304E+03  0.12509385223E+03 0.  0.
         23    2    1    2    0    0 -0.14479976013E+02 -0.22777722738E+02  0.10358236433E+02  0.94542314802E+02  0.90013676004E+02 0.  0.
          5    1    3    3  502    0 -0.55403900977E+02  0.71321039967E+01  0.69211885355E+02  0.89040533609E+02  0.41800000000E+01 0.  1.
         -5    1    3    3    0  502  0.69883876990E+02  0.15645618741E+02  0.75750291590E+02  0.10432698944E+03  0.41800000000E+01 0.  1.
        -11    1    4    4    0    0 -0.32145855170E+02 -0.40426628805E+02 -0.19864690274E+02  0.55337819263E+02  0.00000000000E+00 0. -1.
         11    1    4    4    0    0  0.17665879156E+02  0.17648906067E+02  0.30222926708E+02  0.39204495539E+02  0.00000000000E+00 0.  1.
</event>
<event>
 8    1  0.3654190E-009  0.1159970E+03  0.7561462E-02  0.1249851E+00
          2   -1    0    0  501    0  0.00000000000E+00  0.00000000000E+00  0.10323295848E+04  0.10323295848E+04  0.00000000000E+00 0. -1.
         -2   -1    0    0    0  501 -0.00000000000E+00 -0.00000000000E+00 -0.24206790450E+02  0.24206790450E+02  0.00000000000E+00 0.  1.
         25    2    1    2    0    0  0.58981998206E+02  0.55709761619E+02  0.81174606306E+03  0.82532530452E+03  0.12509090189E+03 0.  0.
         23    2    1    2    0    0 -0.58981998206E+02 -0.55709761619E+02  0.19637673133E+03  0.23121107076E+03  0.91171733482E+02 0.  0.
          5    1    3    3  502    0  0.62231124567E+02 -0.94594373387E+00  0.66521915032E+03  0.66813740954E+03  0.41800000000E+01 0. -1.
         -5    1    3    3    0  502 -0.32491263602E+01  0.56655705353E+02  0.14652691274E+03  0.15718789498E+03  0.41800000000E+01 0. -1.
        -11    1    4    4    0    0 -0.28927294069E+02 -0.72661001687E+02  0.17205395582E+03  0.18899463808E+03  0.00000000000E+00 0. -1.
         11    1    4    4    0    0 -0.30054704137E+02  0.16951240067E+02  0.24322775503E+02  0.42216432687E+02  0.00000000000E+00 0.  1.
</event>
<event>
 8    1  0.3654190E-009  0.1680733E+03  0.7561462E-02  0.1179872E+00
          2   -1    0    0  501    0  0.00000000000E+00  0.00000000000E+00  0.16314380006E+04  0.16314380006E+04  0.00000000000E+00 0. -1.
         -2   -1    0    0    0  501 -0.00000000000E+00 -0.00000000000E+00 -0.19266171842E+02  0.19266171842E+02  0.00000000000E+00 0.  1.
         25    2    1    2    0    0  0.29656034199E+01  0.13244159737E+03  0.10670364826E+04  0.10824804721E+04  0.12509015044E+03 0.  0.
         23    2    1    2    0    0 -0.29656034199E+01 -0.13244159737E+03  0.54513534620E+03  0.56822370040E+03  0.90310888038E+02 0.  0.
          5    1    3    3  502    0  0.46395653128E+02  0.67186705053E+01  0.21301150342E+03  0.21814919242E+03  0.41800000000E+01 0. -1.
         -5    1    3    3    0  502 -0.43430049708E+02  0.12572292686E+03  0.85402497916E+03  0.86433127965E+03  0.41800000000E+01 0. -1.
        -11    1    4    4    0    0  0.33318219110E+02 -0.22437819262E+02  0.89604532614E+02  0.98196393634E+02  0.00000000000E+00 0.  1.
         11    1    4    4    0    0 -0.36283822530E+02 -0.11000377811E+03  0.45553081359E+03  0.47002730676E+03  0.00000000000E+00 0. -1.
</event>
<event>
 8    1  0.3654190E-009  0.2669805E+03  0.7561462E-02  0.1103020E+00
          2   -1    0    0  501    0  0.00000000000E+00  0.00000000000E+00  0.12733462323E+04  0.12733462323E+04  0.00000000000E+00 0.  1.
         -2   -1    0    0    0  501 -0.00000000000E+00 -0.00000000000E+00 -0.97762813079E+02  0.97762813079E+02  0.00000000000E+00 0. -1.
         25    2    1    2    0    0  0.23634246655E+03  0.10756915714E+03  0.10116798364E+04  0.10519374102E+04  0.12508932276E+03 0.  0.
         23    2    1    2    0    0 -0.23634246655E+03 -0.10756915714E+03  0.16390358285E+03  0.31917163515E+03  0.87047476414E+02 0.  0.
          5    1    3    3  502    0  0.17761022604E+02  0.55879763269E+01  0.29757016161E+03  0.29818140935E+03  0.41800000000E+01 0.  1.
         -5    1    3    3    0  502  0.21858144394E+03  0.10198118081E+03  0.71410967477E+03  0.75375600089E+03  0.41800000000E+01 0.  1.
        -11    1    4    4    0    0 -0.91029872668E+02  0.29461695004E+01  0.60783887049E+02  0.10949793860E+03  0.00000000000E+00 0. -1.
         11    1    4    4    0    0 -0.14531259388E+03 -0.11051532664E+03  0.10311969580E+03  0.20967369655E+03  0.00000000000E+00 0.  1.
</event>
<event>
 8    1  0.3654190E-009  0.1044407E+03  0.7561462E-02  0.1271226E+00
          1   -1    0    0  501    0  0.00000000000E+00  0.00000000000E+00  0.64392959414E+03  0.64392959414E+03  0.00000000000E+00 0. -1.
         -1   -1    0    0    0  501 -0.00000000000E+00 -0.00000000000E+00 -0.19127292566E+02  0.19127292566E+02  0.00000000000E+00 0.  1.
         25    2    1    2    0    0  0.28002061445E+01  0.20689715671E+02  0.38925171582E+03  0.40938987154E+03  0.12508902093E+03 0.  0.
         23    2    1    2    0    0 -0.28002061445E+01 -0.20689715671E+02  0.23555058575E+03  0.25366701516E+03  0.91798532928E+02 0.  0.
          5    1    3    3  502    0 -0.52455250397E+02 -0.21656893720E+02  0.18561905778E+03  0.19414551592E+03  0.41800000000E+01 0. -1.
         -5    1    3    3    0  502  0.55255456542E+02  0.42346609391E+02  0.20363265804E+03  0.21524435562E+03  0.41800000000E+01 0. -1.
        -11    1    4    4    0    0 -0.40708640406E+02 -0.42959746660E+01  0.17911417530E+03  0.18373224158E+03  0.00000000000E+00 0. -1.
         11    1    4    4    0    0  0.37908434261E+02 -0.16393741005E+02  0.56436410442E+02  0.69934773582E+02  0.00000000000E+00 0.  1.
</event>
<event>
 8    1  0.3654190E-009  0.1324232E+03  0.7561462E-02  0.1223904E+00
          2   -1    0    0  501    0  0.00000000000E+00  0.00000000000E+00  0.29069497738E+03  0.29069497738E+03  0.00000000000E+00 0. -1.
         -2   -1    0    0    0  501 -0.00000000000E+00 -0.00000000000E+00 -0.67336750437E+02  0.67336750437E+02  0.00000000000E+00 0.  1.
         25    2    1    2    0    0  0.54242800518E+02 -0.59360623654E+02  0.17044147403E+03  0.22619810369E+03  0.12509724616E+03 0.  0.
         23    2    1    2    0    0 -0.54242800518E+02  0.59360623654E+02  0.52916752917E+02  0.13183362412E+03  0.90077503639E+02 0.  0.
          5    1    3    3  502    0 -0.38724388700E+02 -0.16812112394E+02  0.75544364059E+02  0.86640918418E+02  0.41800000000E+01 0. -1.
         -5    1    3    3    0  502  0.92967189218E+02 -0.42548511260E+02  0.94897109970E+02  0.13955718528E+03  0.41800000000E+01 0. -1.
        -11    1    4    4    0    0  0.24947284469E+02  0.17942261986E+02  0.77054668618E+01  0.31680687920E+02  0.00000000000E+00 0.  1.
         11    1    4    4    0    0 -0.79190084987E+02  0.41418361668E+02  0.45211286055E+02  0.10015293620E+03  0.00000000000E+00 0. -1.
</event>
<event>
 8    1  0.3654190E-009  0.8337771E+02  0.7561462E-02  0.1319730E+00
         -3   -1    0    0    0  501 -0.00000000000E+00  0.00000000000E+00  0.43293908659E+03  0.43293908659E+03  0.00000000000E+00 0.  1.
          3   -1    0    0  501    0  0.00000000000E+00 -0.00000000000E+00 -0.38457719466E+02  0.38457719466E+02  0.00000000000E+00 0. -1.
         25    2    1    2    0    0 -0.50906150602E+02 -0.23258238087E+02  0.13952277629E+03  0.19556687255E+03  0.12508962677E+03 0.  0.
         23    2    1    2    0    0  0.50906150602E+02  0.23258238087E+02  0.25495859083E+03  0.27582993351E+03  0.89139707049E+02 0.  0.
          5    1    3    3  502    0 -0.18932956127E+02  0.52694790870E+01  0.14993265547E+03  0.15127292492E+03  0.41800000000E+01 0. -1.
         -5    1    3    3    0  502 -0.31973194475E+02 -0.28527717174E+02 -0.10409879175E+02  0.44293947629E+02  0.41800000000E+01 0. -1.
        -11    1    4    4    0    0  0.69871836800E+02  0.38047696749E+02  0.17303407784E+03  0.19044813703E+03  0.00000000000E+00 0.  1.
         11    1    4    4    0    0 -0.18965686198E+02 -0.14789458662E+02  0.81924512992E+02  0.85381796476E+02  0.00000000000E+00 0. -1.
</event>
<event>
 8    1  0.3654190E-009  0.1419111E+03  0.7561462E-02  0.1210780E+00
          1   -1    0    0  501    0  0.00000000000E+00  0.00000000000E+00  0.64841143406E+02  0.64841143406E+02  0.00000000000E+00 0. -1.
         -1   -1    0    0    0  501 -0.00000000000E+00 -0.00000000000E+00 -0.41725003239E+03  0.41725003239E+03  0.00000000000E+00 0.  1.
         25    2    1    2    0    0 -0.44080502068E+02  0.10857972542E+03 -0.12988261444E+03  0.21506623016E+03  0.12510532516E+03 0.  0.
         23    2    1    2    0    0  0.44080502068E+02 -0.10857972542E+03 -0.22252627455E+03  0.26702494564E+03  0.89731439844E+02 0.  0.
          5    1    3    3  502    0 -0.62791727655E+02  0.68648041418E+02 -0.14138606849E+03  0.16930105556E+03  0.41800000000E+01 0.  1.
         -5    1    3    3    0  502  0.18711225587E+02  0.39931684006E+02  0.11503454047E+02  0.45765174593E+02  0.41800000000E+01 0.  1.
        -11    1    4    4    0    0  0.69252686587E+02 -0.59765377176E+02 -0.12215457887E+03  0.15260922661E+03  0.00000000000E+00 0. -1.
         11    1    4    4    0    0 -0.25172184519E+02 -0.48814348248E+02 -0.10037169567E+03  0.11441571903E+03  0.00000000000E+00 0.  1.
</event>
<event>
 8    1  0.3654190E-009  0.1206275E+03  0.7561462E-02  0.1242065E+00
         -1   -1    0    0    0  501 -0.00000000000E+00  0.00000000000E+00  0.25205058745E+02  0.25205058745E+02  0.00000000000E+00 0.  1.
          1   -1    0    0  501    0  0.00000000000E+00 -0.00000000000E+00 -0.68658873184E+03  0.68658873184E+03  0.00000000000E+00 0. -1.
         25    2    1    2    0    0 -0.29702625092E+01  0.69532873230E+02 -0.42079491915E+03  0.44447691580E+03  0.12509085411E+03 0.  0.
         23    2    1    2    0    0  0.29702625092E+01 -0.69532873230E+02 -0.24058875395E+03  0.26731687479E+03  0.93443673397E+02 0.  0.
          5    1    3    3  502    0  0.53623123896E+02  0.90974221781E+00 -0.17279864727E+03  0.18097820849E+03  0.41800000000E+01 0. -1.
         -5    1    3    3    0  502 -0.56593386405E+02  0.68623131012E+02 -0.24799627187E+03  0.26349870732E+03  0.41800000000E+01 0. -1.
        -11    1    4    4    0    0  0.35727486668E+02 -0.45163807195E+02 -0.20571326994E+03  0.21362156308E+03  0.00000000000E+00 0. -1.
         11    1    4    4    0    0 -0.32757224159E+02 -0.24369066035E+02 -0.34875484014E+02  0.53695311706E+02  0.00000000000E+00 0.  1.
</event>
<event>
 8    1  0.3654190E-009  0.1335783E+03  0.7561462E-02  0.1222241E+00
          3   -1    0    0  501    0  0.00000000000E+00  0.00000000000E+00  0.23739811673E+03  0.23739811673E+03  0.00000000000E+00 0. -1.
         -3   -1    0    0    0  501 -0.00000000000E+00 -0.00000000000E+00 -0.97885970326E+02  0.97885970326E+02  0.00000000000E+00 0.  1.
         25    2    1    2    0    0 -0.70992349827E+02  0.38700874055E+02 -0.14764966747E+01  0.14895892464E+03  0.12509560264E+03 0.  0.
         23    2    1    2    0    0  0.70992349827E+02 -0.38700874055E+02  0.14098864308E+03  0.18632516242E+03  0.91113101617E+02 0.  0.
          5    1    3    3  502    0  0.10006083715E+02 -0.36235920710E+02 -0.66891396728E+01  0.38410684068E+02  0.41800000000E+01 0. -1.
         -5    1    3    3    0  502 -0.80998433542E+02  0.74936794765E+02  0.52126429981E+01  0.11054824057E+03  0.41800000000E+01 0. -1.
        -11    1    4    4    0    0  0.82177859219E+02 -0.38083376854E+01  0.77501773161E+02  0.11302313403E+03  0.00000000000E+00 0.  1.
         11    1    4    4    0    0 -0.11185509392E+02 -0.34892536369E+02  0.63486869915E+02  0.73302028391E+02  0.00000000000E+00 0. -1.
</event>
<event>
 8    1  0.3654190E-009  0.1391601E+03  0.7561462E-02  0.1214464E+00
         -1   -1    0    0    0  501 -0.00000000000E+00  0.00000000000E+00  0.38740704855E+02  0.38740704855E+02  0.00000000000E+00 0.  1.
          1   -1    0    0  501    0  0.00000000000E+00 -0.00000000000E+00 -0.59468989401E+03  0.59468989401E+03  0.00000000000E+00 0. -1.
         25    2    1    2    0    0  0.11203773679E+02 -0.93187786917E+02 -0.20113658933E+03  0.25478187899E+03  0.12509352549E+03 0.  0.
         23    2    1    2    0    0 -0.11203773679E+02  0.93187786917E+02 -0.35481259982E+03  0.37864871987E+03  0.93131003929E+02 0.  0.
          5    1    3    3  502    0 -0.27038825565E+02  0.20243839001E+02 -0.27076976737E+02  0.43491909301E+02  0.41800000000E+01 0. -1.
         -5    1    3    3    0  502  0.38242599244E+02 -0.11343162592E+03 -0.17405961260E+03  0.21128996969E+03  0.41800000000E+01 0. -1.
        -11    1    4    4    0    0  0.32134568536E+02  0.15795223120E+02 -0.16898321186E+03  0.17273518883E+03  0.00000000000E+00 0. -1.
         11    1    4    4    0    0 -0.43338342216E+02  0.77392563797E+02 -0.18582938796E+03  0.20591353104E+03  0.00000000000E+00 0.  1.
</event>
<event>
 8    1  0.3654190E-009  0.1125005E+03  0.7561462E-02  0.1256008E+00
          1   -1    0    0  501    0  0.00000000000E+00  0.00000000000E+00  0.69769382267E+03  0.69769382267E+03  0.00000000000E+00 0. -1.
         -1   -1    0    0    0  501 -0.00000000000E+00 -0.00000000000E+00 -0.29758935953E+02  0.29758935953E+02  0.00000000000E+00 0.  1.
         25    2    1    2    0    0 -0.48709352090E+02 -0.15264993208E+02  0.56504020418E+03  0.58096778395E+03  0.12509001817E+03 0.  0.
         23    2    1    2    0    0  0.48709352090E+02  0.15264993208E+02  0.10289468254E+03  0.14648497468E+03  0.90911556542E+02 0.  0.
          5    1    3    3  502    0 -0.80746545426E+02 -0.33242655655E+02  0.48479602366E+03  0.49261520045E+03  0.41800000000E+01 0.  1.
         -5    1    3    3    0  502  0.32037193336E+02  0.17977662447E+02  0.80244180521E+02  0.88352583502E+02  0.41800000000E+01 0.  1.
        -11    1    4    4    0    0 -0.19650577480E+02  0.24737600630E+02  0.15685147186E+02  0.35272055830E+02  0.00000000000E+00 0.  1.
         11    1    4    4    0    0  0.68359929571E+02 -0.94726074225E+01  0.87209535349E+02  0.11121291885E+03  0.00000000000E+00 0. -1.
</event>
<event>
 8    1  0.3654190E-009  0.1873664E+03  0.7561462E-02  0.1160858E+00
         -2   -1    0    0    0  501 -0.00000000000E+00  0.00000000000E+00  0.44482319770E+02  0.44482319770E+02  0.00000000000E+00 0. -1.
          2   -1    0    0  501    0  0.00000000000E+00 -0.00000000000E+00 -0.10259148430E+04  0.10259148430E+04  0.00000000000E+00 0.  1.
         25    2    1    2    0    0 -0.15533562321E+03 -0.75483452283E+02 -0.66960501912E+03  0.70274141400E+03  0.12509079068E+03 0.  0.
         23    2    1    2    0    0  0.15533562321E+03  0.75483452283E+02 -0.31182750415E+03  0.36765574881E+03  0.90041378717E+02 0.  0.
          5    1    3    3  502    0 -0.96959181678E+02  0.33573403982E+01 -0.19214218325E+03  0.21528689145E+03  0.41800000000E+01 0.  1.
         -5    1    3    3    0  502 -0.58376441534E+02 -0.78840792681E+02 -0.47746283587E+03  0.48745452255E+03  0.41800000000E+01 0.  1.
        -11    1    4    4    0    0  0.61033640010E+02  0.56648594328E+02 -0.21773726078E+03  0.23311731635E+03  0.00000000000E+00 0.  1.
         11    1    4    4    0    0  0.94301983203E+02  0.18834857954E+02 -0.94090243368E+02  0.13453843245E+03  0.00000000000E+00 0. -1.
</event>
<event>
 8    1  0.3654190E-009  0.1139176E+03  0.7561462E-02  0.1253482E+00
         -2   -1    0    0    0  501 -0.00000000000E+00  0.00000000000E+00  0.68333801871E+02  0.68333801871E+02  0.00000000000E+00 0.  1.
          2   -1    0    0  501    0  0.00000000000E+00 -0.00000000000E+00 -0.26654433698E+03  0.26654433698E+03  0.00000000000E+00 0. -1.
         25    2    1    2    0    0  0.49083435163E+02  0.11479370907E+02 -0.17719701913E+03  0.22268153128E+03  0.12508925301E+03 0.  0.
         23    2    1    2    0    0 -0.49083435163E+02 -0.11479370907E+02 -0.21013515977E+02  0.11219660757E+03  0.98007914645E+02 0.  0.
          5    1    3    3  502    0 -0.25824803044E+02  0.32352199801E+02 -0.11722929317E+03  0.12439358850E+03  0.41800000000E+01 0.  1.
         -5    1    3    3    0  502  0.74908238207E+02 -0.20872828894E+02 -0.59967725962E+02  0.98287942772E+02  0.41800000000E+01 0.  1.
        -11    1    4    4    0    0 -0.46341127225E+02 -0.50902126699E+02 -0.33716343148E+01  0.68919478328E+02  0.00000000000E+00 0. -1.
         11    1    4    4    0    0 -0.27423079381E+01  0.39422755792E+02 -0.17641881662E+02  0.43277129245E+02  0.00000000000E+00 0.  1.
</event>
<event>
 8    1  0.3654190E-009  0.1102302E+03  0.7561462E-02  0.1260144E+00
         -1   -1    0    0    0  501 -0.00000000000E+00  0.00000000000E+00  0.28703089166E+02  0.28703089166E+02  0.00000000000E+00 0.  1.
          1   -1    0    0  501    0  0.00000000000E+00 -0.00000000000E+00 -0.48872130530E+03  0.48872130530E+03  0.00000000000E+00 0. -1.
         25    2    1    2    0    0 -0.42220452347E+02  0.62433523717E+01 -0.30074582331E+03  0.32851034947E+03  0.12509777545E+03 0.  0.
         23    2    1    2    0    0  0.42220452347E+02 -0.62433523717E+01 -0.15927239283E+03  0.18891404500E+03  0.92191513912E+02 0.  0.
          5    1    3    3  502    0 -0.78704759063E+02 -0.20871345298E+02 -0.23271003859E+03  0.24657957461E+03  0.41800000000E+01 0. -1.
         -5    1    3    3    0  502  0.36484306715E+02  0.27114697670E+02 -0.68035784716E+02  0.81930774854E+02  0.41800000000E+01 0. -1.
        -11    1    4    4    0    0  0.15107627361E+02  0.38278391929E+02 -0.10893717095E+03  0.11645077461E+03  0.00000000000E+00 0. -1.
         11    1    4    4    0    0  0.27112824987E+02 -0.44521744301E+02 -0.50335221875E+02  0.72463270390E+02  0.00000000000E+00 0.  1.
</event>
<event>
 8    1  0.3654190E-009  0.2977438E+03  0.7561462E-02  0.1086374E+00
          2   -1    0    0  501    0  0.00000000000E+00  0.00000000000E+00  0.85841662272E+03  0.85841662272E+03  0.00000000000E+00 0. -1.
         -2   -1    0    0    0  501 -0.00000000000E+00 -0.00000000000E+00 -0.11887371281E+03  0.11887371281E+03  0.00000000000E+00 0.  1.
         25    2    1    2    0    0  0.86332786998E+02  0.26936848090E+03  0.52805264198E+03  0.61196366980E+03  0.12508881579E+03 0.  0.
         23    2    1    2    0    0 -0.86332786998E+02 -0.26936848090E+03  0.21149026793E+03  0.36532666573E+03  0.93395453056E+02 0.  0.
          5    1    3    3  502    0  0.74688644233E+00  0.17832640865E+03  0.25017365800E+03  0.30725428788E+03  0.41800000000E+01 0. -1.
         -5    1    3    3    0  502  0.85585900555E+02  0.91042072254E+02  0.27787898398E+03  0.30470938192E+03  0.41800000000E+01 0. -1.
        -11    1    4    4    0    0 -0.19888336479E+02 -0.17802663997E+03  0.93812009055E+02  0.20221207557E+03  0.00000000000E+00 0.  1.
         11    1    4    4    0    0 -0.66444450518E+02 -0.91341840937E+02  0.11767825887E+03  0.16311459016E+03  0.00000000000E+00 0. -1.
</event>
<event>
 8    1  0.3654190E-009  0.1252619E+03  0.7561462E-02  0.1234661E+00
         -2   -1    0    0    0  501 -0.00000000000E+00  0.00000000000E+00  0.73806668921E+02  0.73806668921E+02  0.00000000000E+00 0. -1.
          2   -1    0    0  501    0  0.00000000000E+00 -0.00000000000E+00 -0.26018315203E+03  0.26018315203E+03  0.00000000000E+00 0.  1.
         25    2    1    2    0    0  0.67724300020E+02 -0.44826569514E+02 -0.70473264771E+02  0.16495558892E+03  0.12509141905E+03 0.  0.
         23    2    1    2    0    0 -0.67724300020E+02  0.44826569514E+02 -0.11590321833E+03  0.16903423203E+03  0.92428423282E+02 0.  0.
          5    1    3    3  502    0 -0.24047171093E+02 -0.23149559331E+02 -0.61552896310E+02  0.70145562789E+02  0.41800000000E+01 0. -1.
         -5    1    3    3    0  502  0.91771471113E+02 -0.21677010182E+02 -0.89203684601E+01  0.94810026127E+02  0.41800000000E+01 0. -1.
        -11    1    4    4    0    0 -0.89140548723E+02  0.47339942187E+02 -0.89088615806E+02  0.13462499404E+03  0.00000000000E+00 0.  1.
         11    1    4    4    0    0  0.21416248702E+02 -0.25133726737E+01 -0.26814602528E+02  0.34409237995E+02  0.00000000000E+00 0. -1.
</event>
<event>
 8    1  0.3654190E-009  0.1453556E+03  0.7561462E-02  0.1206299E+00
         -2   -1    0    0    0  501 -0.00000000000E+00  0.00000000000E+00  0.57070962846E+02  0.57070962846E+02  0.00000000000E+00 0. -1.
          2   -1    0    0  501    0  0.00000000000E+00 -0.00000000000E+00 -0.40030515145E+03  0.40030515145E+03  0.00000000000E+00 0.  1.
         25    2    1    2    0    0  0.67082485573E+02  0.79521782196E+02 -0.20588799641E+03  0.26241250359E+03  0.12508669498E+03 0.  0.
         23    2    1    2    0    0 -0.67082485573E+02 -0.79521782196E+02 -0.13734619219E+03  0.19496361071E+03  0.91230802228E+02 0.  0.
          5    1    3    3  502    0  0.54649415177E+02 -0.21845819735E+02 -0.58815717055E+02  0.83310019756E+02  0.41800000000E+01 0.  1.
         -5    1    3    3    0  502  0.12433070396E+02  0.10136760193E+03 -0.14707227935E+03  0.17910248383E+03  0.41800000000E+01 0.  1.
        -11    1    4    4    0    0 -0.84549293866E+02 -0.68767528134E+02 -0.83352447297E+02  0.13720490694E+03  0.00000000000E+00 0. -1.
         11    1    4    4    0    0  0.17466808293E+02 -0.10754254061E+02 -0.53993744895E+02  0.57758703761E+02  0.00000000000E+00 0.  1.
</event>
<event>
 8    1  0.3654190E-009  0.8398058E+02  0.7561462E-02  0.1318120E+00
         -2   -1    0    0    0  501 -0.00000000000E+00  0.00000000000E+00  0.41362758075E+02  0.41362758075E+02  0.00000000000E+00 0.  1.
          2   -1    0    0  501    0  0.00000000000E+00 -0.00000000000E+00 -0.40884504328E+03  0.40884504328E+03  0.00000000000E+00 0. -1.
         25    2    1    2    0    0 -0.17196295739E+02  0.26252126678E+02 -0.30747235578E+03  0.33342090460E+03  0.12508142674E+03 0.  0.
         23    2    1    2    0    0  0.17196295739E+02 -0.26252126678E+02 -0.60009929429E+02  0.11678689676E+03  0.95147784427E+02 0.  0.
          5    1    3    3  502    0 -0.59280943907E+02  0.29482971343E+02 -0.26582320666E+03  0.27397614040E+03  0.41800000000E+01 0. -1.
         -5    1    3    3    0  502  0.42084648168E+02 -0.32308446646E+01 -0.41649149121E+02  0.59444764204E+02  0.41800000000E+01 0. -1.
        -11    1    4    4    0    0  0.10439604613E+02  0.14517207642E+02  0.19943020859E+02  0.26785420347E+02  0.00000000000E+00 0.  1.
         11    1    4    4    0    0  0.67566911253E+01 -0.40769334320E+02 -0.79952950288E+02  0.90001476408E+02  0.00000000000E+00 0. -1.
</event>
<event>
 8    1  0.3654190E-009  0.1713404E+03  0.7561462E-02  0.1176457E+00
          2   -1    0    0  501    0  0.00000000000E+00  0.00000000000E+00  0.60650012521E+02  0.60650012521E+02  0.00000000000E+00 0.  1.
         -2   -1    0    0    0  501 -0.00000000000E+00 -0.00000000000E+00 -0.58324890960E+03  0.58324890960E+03  0.00000000000E+00 0. -1.
         25    2    1    2    0    0  0.11956995779E+03 -0.57186576896E+02 -0.40725987663E+03  0.44617930557E+03  0.12509231079E+03 0.  0.
         23    2    1    2    0    0 -0.11956995779E+03  0.57186576896E+02 -0.11533902044E+03  0.19771961655E+03  0.90678981851E+02 0.  0.
          5    1    3    3  502    0  0.61748134153E+01  0.35140641275E+02 -0.76646523805E+02  0.84647238593E+02  0.41800000000E+01 0.  1.
         -5    1    3    3    0  502  0.11339514437E+03 -0.92327218171E+02 -0.33061335283E+03  0.36153206698E+03  0.41800000000E+01 0.  1.
        -11    1    4    4    0    0  0.11412664496E+02  0.22093711975E+02 -0.15132227640E+02  0.29109540242E+02  0.00000000000E+00 0. -1.
         11    1    4    4    0    0 -0.13098262229E+03  0.35092864921E+02 -0.10020679280E+03  0.16861007631E+03  0.00000000000E+00 0.  1.
</event>
<event>
 8    1  0.3654190E-009  0.1505380E+03  0.7561462E-02  0.1199813E+00
         -3   -1    0    0    0  501 -0.00000000000E+00  0.00000000000E+00  0.12571719820E+03  0.12571719820E+03  0.00000000000E+00 0.  1.
          3   -1    0    0  501    0  0.00000000000E+00 -0.00000000000E+00 -0.25936489747E+03  0.25936489747E+03  0.00000000000E+00 0. -1.
         25    2    1    2    0    0 -0.23472021132E+02 -0.13028286822E+03 -0.70922594163E+01  0.18226771145E+03  0.12508659787E+03 0.  0.
         23    2    1    2    0    0  0.23472021132E+02  0.13028286822E+03 -0.12655543986E+03  0.20281438422E+03  0.87136866827E+02 0.  0.
          5    1    3    3  502    0 -0.34661704970E+02  0.10361509696E+01 -0.32810509936E+02  0.47921909003E+02  0.41800000000E+01 0.  1.
         -5    1    3    3    0  502  0.11189683838E+02 -0.13131901919E+03  0.25718250519E+02  0.13434580245E+03  0.41800000000E+01 0.  1.
        -11    1    4    4    0    0  0.27952945107E+02  0.11582291918E+03 -0.57829275737E+02  0.13244070703E+03  0.00000000000E+00 0.  1.
         11    1    4    4    0    0 -0.44809239745E+01  0.14459949046E+02 -0.68726164124E+02  0.70373677190E+02  0.00000000000E+00 0. -1.
</event>
<event>
 8    1  0.3654190E-009  0.1091582E+03  0.7561462E-02  0.1262137E+00
          1   -1    0    0  501    0  0.00000000000E+00  0.00000000000E+00  0.83753984660E+03  0.83753984660E+03  0.00000000000E+00 0. -1.
         -1   -1    0    0    0  501 -0.00000000000E+00 -0.00000000000E+00 -0.22484567184E+02  0.22484567184E+02  0.00000000000E+00 0.  1.
         25    2    1    2    0    0  0.64818126615E+02 -0.35572888160E+02  0.56633621042E+03  0.58468098932E+03  0.12509330970E+03 0.  0.
         23    2    1    2    0    0 -0.64818126615E+02  0.35572888160E+02  0.24871906900E+03  0.27534342446E+03  0.92119521289E+02 0.  0.
          5    1    3    3  502    0 -0.13880913870E+02 -0.39200875990E+02  0.38054265646E+03  0.38283099957E+03  0.41800000000E+01 0.  1.
         -5    1    3    3    0  502  0.78699040485E+02  0.36279878303E+01  0.18579355396E+03  0.20184998975E+03  0.41800000000E+01 0.  1.
        -11    1    4    4    0    0 -0.51789085583E+01 -0.17218072306E+02  0.45991487312E+01  0.18558967559E+02  0.00000000000E+00 0.  1.
         11    1    4    4    0    0 -0.59639218057E+02  0.52790960466E+02  0.24411992026E+03  0.25678445690E+03  0.00000000000E+00 0. -1.
</event>
<event>
 8    1  0.3654190E-009  0.1006564E+03  0.7561462E-02  0.1278922E+00
         -3   -1    0    0    0  501 -0.00000000000E+00  0.00000000000E+00  0.16708832538E+03  0.16708832538E+03  0.00000000000E+00 0.  1.
          3   -1    0    0  501    0  0.00000000000E+00 -0.00000000000E+00 -0.10377415540E+03  0.10377415540E+03  0.00000000000E+00 0. -1.
         25    2    1    2    0    0  0.62228836685E+02  0.15567513929E+02  0.75458598769E+02  0.15955666644E+03  0.12509817773E+03 0.  0.
         23    2    1    2    0    0 -0.62228836685E+02 -0.15567513929E+02 -0.12144428785E+02  0.11130581435E+03  0.90148330830E+02 0.  0.
          5    1    3    3  502    0  0.57923731455E+02  0.44885925959E+02 -0.51430816096E+01  0.73578724529E+02  0.41800000000E+01 0. -1.
         -5    1    3    3    0  502  0.43051052296E+01 -0.29318412029E+02  0.80601680379E+02  0.85977941908E+02  0.41800000000E+01 0. -1.
        -11    1    4    4    0    0  0.52990875220E+01 -0.28708286992E+02  0.19984594536E+02  0.35378384493E+02  0.00000000000E+00 0.  1.
         11    1    4    4    0    0 -0.67527924207E+02  0.13140773063E+02 -0.32129023321E+02  0.75927429852E+02  0.00000000000E+00 0. -1.
</event>
<event>
 8    1  0.3654190E-009  0.1028002E+03  0.7561462E-02  0.1274515E+00
         -2   -1    0    0    0  501 -0.00000000000E+00  0.00000000000E+00  0.39670988830E+02  0.39670988830E+02  0.00000000000E+00 0. -1.
          2   -1    0    0  501    0  0.00000000000E+00 -0.00000000000E+00 -0.41956918278E+03  0.41956918278E+03  0.00000000000E+00 0.  1.
         25    2    1    2    0    0  0.62832309791E+02 -0.46903344080E+01 -0.26103918541E+03  0.29624410440E+03  0.12509682123E+03 0.  0.
         23    2    1    2    0    0 -0.62832309791E+02  0.46903344080E+01 -0.11885900854E+03  0.16299606721E+03  0.92034534954E+02 0.  0.
          5    1    3    3  502    0 -0.28515539685E+02  0.11217241932E+02 -0.14182708802E+03  0.14515976652E+03  0.41800000000E+01 0.  1.
         -5    1    3    3    0  502  0.91347849476E+02 -0.15907576340E+02 -0.11921209739E+03  0.15108433788E+03  0.41800000000E+01 0.  1.
        -11    1    4    4    0    0 -0.38174994452E+02 -0.23167262550E+02 -0.71101725164E+01  0.45217328632E+02  0.00000000000E+00 0. -1.
         11    1    4    4    0    0 -0.24657315339E+02  0.27857596958E+02 -0.11174883603E+03  0.11777873858E+03  0.00000000000E+00 0.  1.
</event>
<event>
 8    1  0.3654190E-009  0.1321182E+03  0.7561462E-02  0.1224346E+00
         -1   -1    0    0    0  501 -0.00000000000E+00  0.00000000000E+00  0.10593474194E+03  0.10593474194E+03  0.00000000000E+00 0.  1.
          1   -1    0    0  501    0  0.00000000000E+00 -0.00000000000E+00 -0.29561721201E+03  0.29561721201E+03  0.00000000000E+00 0. -1.
         25    2    1    2    0    0  0.85713901301E+02 -0.84833112496E+02 -0.18047187534E+03  0.25052128381E+03  0.12508911224E+03 0.  0.
         23    2    1    2    0    0 -0.85713901301E+02  0.84833112496E+02 -0.92105947294E+01  0.15103067014E+03  0.90453846883E+02 0.  0.
          5    1    3    3  502    0  0.70009436189E+02 -0.17319698705E+02 -0.16392203572E+03  0.17913458436E+03  0.41800000000E+01 0.  1.
         -5    1    3    3    0  502  0.15704465113E+02 -0.67513413792E+02 -0.16549839614E+02  0.71386699444E+02  0.41800000000E+01 0.  1.
        -11    1    4    4    0    0 -0.34156612394E+02  0.19511760525E+02  0.38554275521E+02  0.55080079248E+02  0.00000000000E+00 0.  1.
         11    1    4    4    0    0 -0.51557288907E+02  0.65321351971E+02 -0.47764870250E+02  0.95950590893E+02  0.00000000000E+00 0. -1.
</event>
<event>
 8    1  0.3654190E-009  0.9289698E+02  0.7561462E-02  0.1295984E+00
         -1   -1    0    0    0  501 -0.00000000000E+00  0.00000000000E+00  0.14338467079E+02  0.14338467079E+02  0.00000000000E+00 0.  1.
          1   -1    0    0  501    0  0.00000000000E+00 -0.00000000000E+00 -0.11357267506E+04  0.11357267506E+04  0.00000000000E+00 0. -1.
         25    2    1    2    0    0 -0.16380167457E+02 -0.24996567445E+02 -0.89871002895E+03  0.90786623060E+03  0.12509291849E+03 0.  0.
         23    2    1    2    0    0  0.16380167457E+02  0.24996567445E+02 -0.22267825453E+03  0.24219898703E+03  0.90452230550E+02 0.  0.
          5    1    3    3  502    0  0.24984443344E+02 -0.54735366844E+02 -0.25109510361E+03  0.25823711245E+03  0.41800000000E+01 0.  1.
         -5    1    3    3    0  502 -0.41364610801E+02  0.29738799399E+02 -0.64761492534E+03  0.64962911814E+03  0.41800000000E+01 0.  1.
        -11    1    4    4    0    0  0.34016479368E+02 -0.97603300705E+01 -0.32435052308E+02  0.48004349073E+02  0.00000000000E+00 0.  1.
         11    1    4    4    0    0 -0.17636311911E+02  0.34756897515E+02 -0.19024320222E+03  0.19419463796E+03  0.00000000000E+00 0. -1.
</event>
<event>
 8    1  0.3654190E-009  0.1036240E+03  0.7561462E-02  0.1272855E+00
         -2   -1    0    0    0  501 -0.00000000000E+00  0.00000000000E+00  0.53859705898E+02  0.53859705898E+02  0.00000000000E+00 0.  1.
          2   -1    0    0  501    0  0.00000000000E+00 -0.00000000000E+00 -0.27783886483E+03  0.27783886483E+03  0.00000000000E+00 0. -1.
         25    2    1    2    0    0  0.23378725397E+02 -0.43310008632E+02 -0.15519410843E+03  0.20531512436E+03  0.12508703911E+03 0.  0.
         23    2    1    2    0    0 -0.23378725397E+02  0.43310008632E+02 -0.68785050508E+02  0.12638344637E+03  0.93909907322E+02 0.  0.
          5    1    3    3  502    0  0.67714833876E+02 -0.55932875205E+02 -0.10700732180E+03  0.13849846416E+03  0.41800000000E+01 0. -1.
         -5    1    3    3    0  502 -0.44336108479E+02  0.12622866573E+02 -0.48186786632E+02  0.66816660209E+02  0.41800000000E+01 0. -1.
        -11    1    4    4    0    0  0.12851473780E+02 -0.39859047965E+01 -0.65334513261E+02  0.66705670211E+02  0.00000000000E+00 0. -1.
         11    1    4    4    0    0 -0.36230199177E+02  0.47295913429E+02 -0.34505372471E+01  0.59677776155E+02  0.00000000000E+00 0.  1.
</event>
<event>
 8    1  0.3654190E-009  0.1034951E+03  0.7561462E-02  0.1273113E+00
         -1   -1    0    0    0  501 -0.00000000000E+00  0.00000000000E+00  0.59691126972E+02  0.59691126972E+02  0.00000000000E+00 0.  1.
          1   -1    0    0  501    0  0.00000000000E+00 -0.00000000000E+00 -0.22824816259E+03  0.22824816259E+03  0.00000000000E+00 0. -1.
         25    2    1    2    0    0 -0.13689511794E+02 -0.14354890434E+02 -0.53002153484E+02  0.13730117137E+03  0.12509563451E+03 0.  0.
         23    2    1    2    0    0  0.13689511794E+02  0.14354890434E+02 -0.11555488214E+03  0.15063811819E+03  0.94580369291E+02 0.  0.
          5    1    3    3  502    0  0.55308564734E+02  0.92298273679E+00 -0.17950101602E+02  0.58305812555E+02  0.41800000000E+01 0.  1.
         -5    1    3    3    0  502 -0.68998076528E+02 -0.15277873171E+02 -0.35052051881E+02  0.78995358815E+02  0.41800000000E+01 0.  1.
        -11    1    4    4    0    0  0.38850972387E+02 -0.15368397783E+02 -0.17804085450E+02  0.45415538800E+02  0.00000000000E+00 0.  1.
         11    1    4    4    0    0 -0.25161460593E+02  0.29723288217E+02 -0.97750796687E+02  0.10522257939E+03  0.00000000000E+00 0. -1.
</event>
<event>
 8    1  0.3654190E-009  0.1080013E+03  0.7561462E-02  0.1264317E+00
          2   -1    0    0  501    0  0.00000000000E+00  0.00000000000E+00  0.18108548741E+03  0.18108548741E+03  0.00000000000E+00 0. -1.
         -2   -1    0    0    0  501 -0.00000000000E+00 -0.00000000000E+00 -0.88756773150E+02  0.88756773150E+02  0.00000000000E+00 0.  1.
         25    2    1    2    0    0 -0.60319859009E+02  0.11277305742E+02  0.77027487482E+02  0.15920256414E+03  0.12508620861E+03 0.  0.
         23    2    1    2    0    0  0.60319859009E+02 -0.11277305742E+02  0.15301226781E+02  0.11063969643E+03  0.90781891746E+02 0.  0.
          5    1    3    3  502    0 -0.65560126747E+02 -0.43838197729E+02  0.24293930332E+02  0.82629203374E+02  0.41800000000E+01 0.  1.
         -5    1    3    3    0  502  0.52402677387E+01  0.55115503471E+02  0.52733557150E+02  0.76573360763E+02  0.41800000000E+01 0.  1.
        -11    1    4    4    0    0 -0.68423410054E+01  0.90384065416E+01 -0.26598903122E+02  0.28913873323E+02  0.00000000000E+00 0.  1.
         11    1    4    4    0    0  0.67162200014E+02 -0.20315712284E+02  0.41900129903E+02  0.81725823105E+02  0.00000000000E+00 0. -1.
</event>
<event>
 8    1  0.3654190E-009  0.7912351E+02  0.7561462E-02  0.1331557E+00
         -2   -1    0    0    0  501 -0.00000000000E+00  0.00000000000E+00  0.35842146407E+02  0.35842146407E+02  0.00000000000E+00 0.  1.
          2   -1    0    0  501    0  0.00000000000E+00 -0.00000000000E+00 -0.46074051561E+03  0.46074051561E+03  0.00000000000E+00 0. -1.
         25    2    1    2    0    0 -0.22874405922E+01  0.24245546320E+01 -0.36333659187E+03  0.38428111229E+03  0.12508950163E+03 0.  0.
         23    2    1    2    0    0  0.22874405922E+01 -0.24245546320E+01 -0.61561777326E+02  0.11230154972E+03  0.93865194792E+02 0.  0.
          5    1    3    3  502    0  0.23801799334E+02 -0.33633448923E+02 -0.31773740115E+03  0.32042512859E+03  0.41800000000E+01 0.  1.
         -5    1    3    3    0  502 -0.26089239926E+02  0.36058003555E+02 -0.45599190719E+02  0.63855983702E+02  0.41800000000E+01 0.  1.
        -11    1    4    4    0    0 -0.40710617334E+01  0.34460687069E+02  0.58555719994E+01  0.35190911047E+02  0.00000000000E+00 0.  1.
         11    1    4    4    0    0  0.63585023257E+01 -0.36885241701E+02 -0.67417349325E+02  0.77110638677E+02  0.00000000000E+00 0. -1.
</event>
<event>
 8    1  0.3654190E-009  0.1013294E+03  0.7561462E-02  0.1277525E+00
         -2   -1    0    0    0  501 -0.00000000000E+00  0.00000000000E+00  0.13979885284E+02  0.13979885284E+02  0.00000000000E+00 0.  1.
          2   -1    0    0  501    0  0.00000000000E+00 -0.00000000000E+00 -0.17613140113E+04  0.17613140113E+04  0.00000000000E+00 0. -1.
         25    2    1    2    0    0 -0.53632057885E+02 -0.34908791398E+02 -0.15037681197E+04  0.15103182582E+04  0.12509061440E+03 0.  0.
         23    2    1    2    0    0  0.53632057885E+02  0.34908791398E+02 -0.24356600630E+03  0.26497563839E+03  0.82417644748E+02 0.  0.
          5    1    3    3  502    0 -0.55796105603E+02 -0.64916448724E+02 -0.60531514280E+03  0.61135198144E+03  0.41800000000E+01 0.  1.
         -5    1    3    3    0  502  0.21640477188E+01  0.30007657327E+02 -0.89845297689E+03  0.89896627672E+03  0.41800000000E+01 0.  1.
        -11    1    4    4    0    0  0.57986360190E+01 -0.15825398008E+02 -0.68321220658E+01  0.18186404090E+02  0.00000000000E+00 0.  1.
         11    1    4    4    0    0  0.47833421866E+02  0.50734189406E+02 -0.23673388423E+03  0.24678923430E+03  0.00000000000E+00 0. -1.
</event>
<event>
 8    1  0.3654190E-009  0.1741996E+03  0.7561462E-02  0.1173538E+00
          1   -1    0    0  501    0  0.00000000000E+00  0.00000000000E+00  0.10381449586E+03  0.10381449586E+03  0.00000000000E+00 0. -1.
         -1   -1    0    0    0  501 -0.00000000000E+00 -0.00000000000E+00 -0.40692811950E+03  0.40692811950E+03  0.00000000000E+00 0.  1.
         25    2    1    2    0    0 -0.27522221720E+02  0.17144534742E+03 -0.17894510623E+03  0.27896436162E+03  0.12509510050E+03 0.  0.
         23    2    1    2    0    0  0.27522221720E+02 -0.17144534742E+03 -0.12416851741E+03  0.23177825375E+03  0.90290411204E+02 0.  0.
          5    1    3    3  502    0 -0.19107633030E+01  0.66127130482E+02  0.38625666115E+01  0.66399098058E+02  0.41800000000E+01 0. -1.
         -5    1    3    3    0  502 -0.25611458417E+02  0.10531821694E+03 -0.18280767284E+03  0.21256526356E+03  0.41800000000E+01 0. -1.
        -11    1    4    4    0    0  0.92289611443E+01 -0.61046564332E+02 -0.99639591006E+02  0.11721734017E+03  0.00000000000E+00 0.  1.
         11    1    4    4    0    0  0.18293260575E+02 -0.11039878309E+03 -0.24528926401E+02  0.11456091358E+03  0.00000000000E+00 0. -1.
</event>
<event>
 8    1  0.3654190E-009  0.1073352E+03  0.7561462E-02  0.1265586E+00
          1   -1    0    0  501    0  0.00000000000E+00  0.00000000000E+00  0.15056985881E+04  0.15056985881E+04  0.00000000000E+00 0. -1.
         -1   -1    0    0    0  501 -0.00000000000E+00 -0.00000000000E+00 -0.15147738593E+02  0.15147738593E+02  0.00000000000E+00 0.  1.
         25    2    1    2    0    0 -0.60081536555E+02  0.11034822699E+02  0.11968398578E+04  0.12049085692E+04  0.12508979362E+03 0.  0.
         23    2    1    2    0    0  0.60081536555E+02 -0.11034822699E+02  0.29371099167E+03  0.31593775749E+03  0.99090673813E+02 0.  0.
          5    1    3    3  502    0 -0.96007641390E+02  0.23482259772E+02  0.76313341585E+03  0.76951865898E+03  0.41800000000E+01 0.  1.
         -5    1    3    3    0  502  0.35926104835E+02 -0.12447437072E+02  0.43370644195E+03  0.43538991018E+03  0.41800000000E+01 0.  1.
        -11    1    4    4    0    0  0.54990018188E+02 -0.26622711487E+02  0.29323549856E+03  0.29953251657E+03  0.00000000000E+00 0. -1.
         11    1    4    4    0    0  0.50915183662E+01  0.15587888787E+02  0.47549310977E+00  0.16405240925E+02  0.00000000000E+00 0.  1.
</event>
<event>
 8    1  0.3654190E-009  0.9933347E+02  0.7561462E-02  0.1281704E+00
         -2   -1    0    0    0  501 -0.00000000000E+00  0.00000000000E+00  0.38548111207E+02  0.38548111207E+02  0.00000000000E+00 0.  1.
          2   -1    0    0  501    0  0.00000000000E+00 -0.00000000000E+00 -0.43817574126E+03  0.43817574126E+03  0.00000000000E+00 0. -1.
         25    2    1    2    0    0 -0.18597402426E+02  0.56615293073E+02 -0.29403642193E+03  0.32504963160E+03  0.12509472730E+03 0.  0.
         23    2    1    2    0    0  0.18597402426E+02 -0.56615293073E+02 -0.10559120813E+03  0.15167422087E+03  0.91128542480E+02 0.  0.
          5    1    3    3  502    0  0.29785266259E+02  0.19607404127E+02 -0.14167484447E+02  0.38597958473E+02  0.41800000000E+01 0. -1.
         -5    1    3    3    0  502 -0.48382668685E+02  0.37007888946E+02 -0.27986893748E+03  0.28645167313E+03  0.41800000000E+01 0. -1.
        -11    1    4    4    0    0 -0.27710961934E+00  0.21419506096E+02 -0.48914589212E+02  0.53399523115E+02  0.00000000000E+00 0.  1.
         11    1    4    4    0    0  0.18874512046E+02 -0.78034799169E+02 -0.56676618916E+02  0.98274697751E+02  0.00000000000E+00 0. -1.
</event>
<event>
 8    1  0.3654190E-009  0.8369177E+02  0.7561462E-02  0.1318890E+00
         -2   -1    0    0    0  501 -0.00000000000E+00  0.00000000000E+00  0.21383049478E+02  0.21383049478E+02  0.00000000000E+00 0.  1.
          2   -1    0    0  501    0  0.00000000000E+00 -0.00000000000E+00 -0.58939444189E+03  0.58939444189E+03  0.00000000000E+00 0. -1.
         25    2    1    2    0    0  0.56117945297E+01 -0.82082457050E+01 -0.39835743327E+03  0.41765384191E+03  0.12508884639E+03 0.  0.
         23    2    1    2    0    0 -0.56117945297E+01  0.82082457050E+01 -0.16965395915E+03  0.19312364946E+03  0.91735547030E+02 0.  0.
          5    1    3    3  502    0 -0.24854674939E+02  0.47556173963E+02 -0.11147055547E+03  0.12378409302E+03  0.41800000000E+01 0. -1.
         -5    1    3    3    0  502  0.30466469469E+02 -0.55764419668E+02 -0.28688687780E+03  0.29386974890E+03  0.41800000000E+01 0. -1.
        -11    1    4    4    0    0 -0.12248681210E+02  0.27162875925E+02 -0.17044029536E+03  0.17302527648E+03  0.00000000000E+00 0. -1.
         11    1    4    4    0    0  0.66368866801E+01 -0.18954630220E+02  0.78633620879E+00  0.20098372974E+02  0.00000000000E+00 0.  1.
</event>
<event>
 8    1  0.3654190E-009  0.2971212E+03  0.7561462E-02  0.1086689E+00
          1   -1    0    0  501    0  0.00000000000E+00  0.00000000000E+00  0.13260005285E+03  0.13260005285E+03  0.00000000000E+00 0. -1.
         -1   -1    0    0    0  501 -0.00000000000E+00 -0.00000000000E+00 -0.11995709322E+04  0.11995709322E+04  0.00000000000E+00 0.  1.
         25    2    1    2    0    0  0.23694340610E+03  0.17585064313E+03 -0.13045387661E+03  0.34602060074E+03  0.12508563398E+03 0.  0.
         23    2    1    2    0    0 -0.23694340610E+03 -0.17585064313E+03 -0.93651700276E+03  0.98615038435E+03  0.91448661559E+02 0.  0.
          5    1    3    3  502    0  0.45421066047E+01 -0.47108762716E+00 -0.40137749500E+02  0.40612362538E+02  0.41800000000E+01 0.  1.
         -5    1    3    3    0  502  0.23240129949E+03  0.17632173075E+03 -0.90316127115E+02  0.30540823820E+03  0.41800000000E+01 0.  1.
        -11    1    4    4    0    0 -0.18612284780E+03 -0.12366823561E+03 -0.80900378947E+03  0.83929892074E+03  0.00000000000E+00 0. -1.
         11    1    4    4    0    0 -0.50820558295E+02 -0.52182407522E+02 -0.12751321329E+03  0.14685146361E+03  0.00000000000E+00 0.  1.
</event>
<event>
 8    1  0.3654190E-009  0.2431573E+03  0.7561462E-02  0.1117707E+00
         -2   -1    0    0    0  501 -0.00000000000E+00  0.00000000000E+00  0.44221972876E+02  0.44221972876E+02  0.00000000000E+00 0.  1.
          2   -1    0    0  501    0  0.00000000000E+00 -0.00000000000E+00 -0.16205062815E+04  0.16205062815E+04  0.00000000000E+00 0. -1.
         25    2    1    2    0    0  0.20727938016E+03  0.12154535417E+03 -0.94839955516E+03  0.98633140899E+03  0.12509963065E+03 0.  0.
         23    2    1    2    0    0 -0.20727938016E+03 -0.12154535417E+03 -0.62788475347E+03  0.67839684538E+03  0.90801991311E+02 0.  0.
          5    1    3    3  502    0  0.45144809700E+02  0.38332402258E+02 -0.48087080329E+03  0.48452206221E+03  0.41800000000E+01 0. -1.
         -5    1    3    3    0  502  0.16213457046E+03  0.83212951909E+02 -0.46752875186E+03  0.50180934679E+03  0.41800000000E+01 0. -1.
        -11    1    4    4    0    0 -0.66743496474E+02 -0.65013468376E+02 -0.34673855193E+03  0.35903909089E+03  0.00000000000E+00 0. -1.
         11    1    4    4    0    0 -0.14053588369E+03 -0.56531885790E+02 -0.28114620154E+03  0.31935775449E+03  0.00000000000E+00 0.  1.
</event>
<event>
 8    1  0.3654190E-009  0.7957713E+02  0.7561462E-02  0.1330256E+00
         -2   -1    0    0    0  501 -0.00000000000E+00  0.00000000000E+00  0.10018841791E+03  0.10018841791E+03  0.00000000000E+00 0. -1.
          2   -1    0    0  501    0  0.00000000000E+00 -0.00000000000E+00 -0.14248035662E+03  0.14248035662E+03  0.00000000000E+00 0.  1.
         25    2    1    2    0    0  0.32554701775E+02  0.24319203929E+02  0.77919346224E+01  0.13175787103E+03  0.12509272579E+03 0.  0.
         23    2    1    2    0    0 -0.32554701775E+02 -0.24319203929E+02 -0.50083873325E+02  0.11091090350E+03  0.90230825451E+02 0.  0.
          5    1    3    3  502    0  0.48737572002E+02  0.14087509113E+02 -0.49623630655E+02  0.71089984927E+02  0.41800000000E+01 0. -1.
         -5    1    3    3    0  502 -0.16182870227E+02  0.10231694816E+02  0.57415565277E+02  0.60667886099E+02  0.41800000000E+01 0. -1.
        -11    1    4    4    0    0 -0.30212051026E+02  0.25038709362E+02  0.17756031847E+01  0.39279228103E+02  0.00000000000E+00 0. -1.
         11    1    4    4    0    0 -0.23426507481E+01 -0.49357913291E+02 -0.51859476509E+02  0.71631675401E+02  0.00000000000E+00 0.  1.
</event>
<event>
 8    1  0.3654190E-009  0.1361348E+03  0.7561462E-02  0.1218627E+00
         -3   -1    0    0    0  501 -0.00000000000E+00  0.00000000000E+00  0.83370505120E+02  0.83370505120E+02  0.00000000000E+00 0.  1.
          3   -1    0    0  501    0  0.00000000000E+00 -0.00000000000E+00 -0.42852495114E+03  0.42852495114E+03  0.00000000000E+00 0. -1.
         25    2    1    2    0    0  0.13038576011E+03  0.33896151688E+02 -0.28939663034E+03  0.34285192281E+03  0.12509051035E+03 0.  0.
         23    2    1    2    0    0 -0.13038576011E+03 -0.33896151688E+02 -0.55757815678E+02  0.16904353345E+03  0.85541724638E+02 0.  0.
          5    1    3    3  502    0  0.32249392117E+01  0.42903966939E+01 -0.15599762826E+03  0.15614589383E+03  0.41800000000E+01 0.  1.
         -5    1    3    3    0  502  0.12716082090E+03  0.29605754994E+02 -0.13339900209E+03  0.18670602898E+03  0.41800000000E+01 0.  1.
        -11    1    4    4    0    0 -0.37535909596E+02 -0.12413683015E+02  0.22710231824E+02  0.45593844593E+02  0.00000000000E+00 0.  1.
         11    1    4    4    0    0 -0.92849850514E+02 -0.21482468674E+02 -0.78468047502E+02  0.12344968886E+03  0.00000000000E+00 0. -1.
</event>
<event>
 8    1  0.3654190E-009  0.9140138E+02  0.7561462E-02  0.1299493E+00
          2   -1    0    0  501    0  0.00000000000E+00  0.00000000000E+00  0.88884143953E+03  0.88884143953E+03  0.00000000000E+00 0. -1.
         -2   -1    0    0    0  501 -0.00000000000E+00 -0.00000000000E+00 -0.21407504970E+02  0.21407504970E+02  0.00000000000E+00 0.  1.
         25    2    1    2    0    0  0.80350858951E+02  0.35143746226E+01  0.56401266209E+03  0.58328922540E+03  0.12508967224E+03 0.  0.
         23    2    1    2    0    0 -0.80350858951E+02 -0.35143746226E+01  0.30342127247E+03  0.32695971911E+03  0.91485397559E+02 0.  0.
          5    1    3    3  502    0  0.14083106619E+02  0.48932452871E+00  0.45751615667E+03  0.45775220300E+03  0.41800000000E+01 0.  1.
         -5    1    3    3    0  502  0.66267752332E+02  0.30250500939E+01  0.10649650542E+03  0.12553702240E+03  0.41800000000E+01 0.  1.
        -11    1    4    4    0    0 -0.36509605822E+02 -0.32663852993E+02  0.57837444219E+02  0.75796098603E+02  0.00000000000E+00 0.  1.
         11    1    4    4    0    0 -0.43841253129E+02  0.29149478371E+02  0.24558382825E+03  0.25116362050E+03  0.00000000000E+00 0. -1.
</event>
<event>
 8    1  0.3654190E-009  0.1225195E+03  0.7561462E-02  0.1238998E+00
          1   -1    0    0  501    0  0.00000000000E+00  0.00000000000E+00  0.80083634935E+03  0.80083634935E+03  0.00000000000E+00 0. -1.
         -1   -1    0    0    0  501 -0.00000000000E+00 -0.00000000000E+00 -0.26057440073E+02  0.26057440073E+02  0.00000000000E+00 0.  1.
         25    2    1    2    0    0  0.78569600604E+00  0.68700600366E+02  0.61487948595E+03  0.63122466769E+03  0.12508960406E+03 0.  0.
         23    2    1    2    0    0 -0.78569600604E+00 -0.68700600366E+02  0.15989942332E+03  0.19566912173E+03  0.89432599269E+02 0.  0.
          5    1    3    3  502    0 -0.44205126440E+02 -0.66697303143E+01  0.11096081524E+03  0.11970110035E+03  0.41800000000E+01 0. -1.
         -5    1    3    3    0  502  0.44990822446E+02  0.75370330680E+02  0.50391867071E+03  0.51152356734E+03  0.41800000000E+01 0. -1.
        -11    1    4    4    0    0 -0.42588003939E+02 -0.52080859497E+02  0.86525767751E+02  0.10960320474E+03  0.00000000000E+00 0.  1.
         11    1    4    4    0    0  0.41802307933E+02 -0.16619740869E+02  0.73373655569E+02  0.86065916986E+02  0.00000000000E+00 0. -1.
</event>
<event>
 8    1  0.3654190E-009  0.1538943E+03  0.7561462E-02  0.1195768E+00
          1   -1    0    0  501    0  0.00000000000E+00  0.00000000000E+00  0.82611262972E+02  0.82611262972E+02  0.00000000000E+00 0. -1.
         -1   -1    0    0    0  501 -0.00000000000E+00 -0.00000000000E+00 -0.29507678422E+03  0.29507678422E+03  0.00000000000E+00 0.  1.
         25    2    1    2    0    0  0.32470909905E+02  0.10666483047E+03 -0.14430096008E+03  0.22114069458E+03  0.12509473878E+03 0.  0.
         23    2    1    2    0    0 -0.32470909905E+02 -0.10666483047E+03 -0.68164561172E+02  0.15654735261E+03  0.86191183774E+02 0.  0.
          5    1    3    3  502    0  0.37027932247E+02 -0.18741961817E+02 -0.41859515377E+02  0.59093318801E+02  0.41800000000E+01 0.  1.
         -5    1    3    3    0  502 -0.45570223421E+01  0.12540679229E+03 -0.10244144470E+03  0.16204737578E+03  0.41800000000E+01 0.  1.
        -11    1    4    4    0    0 -0.28852094768E+02  0.45812894107E+01 -0.19132616409E+02  0.34921176896E+02  0.00000000000E+00 0. -1.
         11    1    4    4    0    0 -0.36188151374E+01 -0.11124611988E+03 -0.49031944763E+02  0.12162617572E+03  0.00000000000E+00 0.  1.
</event>
<event>
 8    1  0.3654190E-009  0.8916037E+02  0.7561462E-02  0.1304898E+00
          1   -1    0    0  501    0  0.00000000000E+00  0.00000000000E+00  0.31125517475E+03  0.31125517475E+03  0.00000000000E+00 0. -1.
         -1   -1    0    0    0  501 -0.00000000000E+00 -0.00000000000E+00 -0.52896541059E+02  0.52896541059E+02  0.00000000000E+00 0.  1.
         25    2    1    2    0    0  0.33658947553E+02  0.42228856513E+02  0.20883859377E+03  0.24935382247E+03  0.12509024526E+03 0.  0.
         23    2    1    2    0    0 -0.33658947553E+02 -0.42228856513E+02  0.49520039915E+02  0.11479789334E+03  0.88374888335E+02 0.  0.
          5    1    3    3  502    0 -0.97654406629E+01  0.44909007823E+02  0.11947297765E+02  0.47669624908E+02  0.41800000000E+01 0.  1.
         -5    1    3    3    0  502  0.43424388216E+02 -0.26801513093E+01  0.19689129601E+03  0.20168419756E+03  0.41800000000E+01 0.  1.
        -11    1    4    4    0    0 -0.36475249267E+02  0.86675403713E+01 -0.75859683104E+01  0.38250712155E+02  0.00000000000E+00 0.  1.
         11    1    4    4    0    0  0.28163017141E+01 -0.50896396885E+02  0.57106008226E+02  0.76547181180E+02  0.00000000000E+00 0. -1.
</event>
<event>
 8    1  0.3654190E-009  0.7063202E+02  0.7561462E-02  0.1357957E+00
         -1   -1    0    0    0  501 -0.00000000000E+00  0.00000000000E+00  0.26297876979E+02  0.26297876979E+02  0.00000000000E+00 0.  1.
          1   -1    0    0  501    0  0.00000000000E+00 -0.00000000000E+00 -0.54426715904E+03  0.54426715904E+03  0.00000000000E+00 0. -1.
         25    2    1    2    0    0  0.15711909767E+02  0.34833896498E+02 -0.37045283020E+03  0.39286729905E+03  0.12509656592E+03 0.  0.
         23    2    1    2    0    0 -0.15711909767E+02 -0.34833896498E+02 -0.14751645186E+03  0.17769773697E+03  0.91406332936E+02 0.  0.
          5    1    3    3  502    0  0.18934427118E+01  0.26028278209E+02 -0.37453889170E+03  0.37547025206E+03  0.41800000000E+01 0.  1.
         -5    1    3    3    0  502  0.13818467055E+02  0.88056182890E+01  0.40860614978E+01  0.17397046984E+02  0.41800000000E+01 0.  1.
        -11    1    4    4    0    0 -0.51514955423E+02 -0.58237809159E+01 -0.91465914045E+02  0.10513667528E+03  0.00000000000E+00 0. -1.
         11    1    4    4    0    0  0.35803045657E+02 -0.29010115582E+02 -0.56050537818E+02  0.72561061693E+02  0.00000000000E+00 0.  1.
</event>
<event>
 8    1  0.3654190E-009  0.1314022E+03  0.7561462E-02  0.1225390E+00
         -2   -1    0    0    0  501 -0.00000000000E+00  0.00000000000E+00  0.61504436970E+02  0.61504436970E+02  0.00000000000E+00 0.  1.
          2   -1    0    0  501    0  0.00000000000E+00 -0.00000000000E+00 -0.39680331657E+03  0.39680331657E+03  0.00000000000E+00 0. -1.
         25    2    1    2    0    0  0.83367328076E+02  0.75001611081E+02 -0.18612347990E+03  0.25072874655E+03  0.12509037342E+03 0.  0.
         23    2    1    2    0    0 -0.83367328076E+02 -0.75001611081E+02 -0.14917539970E+03  0.20757900699E+03  0.90886694350E+02 0.  0.
          5    1    3    3  502    0 -0.95161782054E+00  0.18614870287E+02  0.15754770345E+02  0.24760940226E+02  0.41800000000E+01 0. -1.
         -5    1    3    3    0  502  0.84318945897E+02  0.56386740794E+02 -0.20187825024E+03  0.22596780633E+03  0.41800000000E+01 0. -1.
        -11    1    4    4    0    0 -0.55617391276E+02  0.65833109737E+01 -0.76745485087E+02  0.95007913760E+02  0.00000000000E+00 0.  1.
         11    1    4    4    0    0 -0.27749936801E+02 -0.81584922055E+02 -0.72429914613E+02  0.11257109323E+03  0.00000000000E+00 0. -1.
</event>
<event>
 8    1  0.3654190E-009  0.9883636E+02  0.7561462E-02  0.1282762E+00
          1   -1    0    0  501    0  0.00000000000E+00  0.00000000000E+00  0.13768625652E+03  0.13768625652E+03  0.00000000000E+00 0. -1.
         -1   -1    0    0    0  501 -0.00000000000E+00 -0.00000000000E+00 -0.90596879309E+02  0.90596879309E+02  0.00000000000E+00 0.  1.
         25    2    1    2    0    0  0.16556764398E+02 -0.14646683737E+02  0.53605683917E+01  0.12714242568E+03  0.12509120242E+03 0.  0.
         23    2    1    2    0    0 -0.16556764398E+02  0.14646683737E+02  0.41728808819E+02  0.10114071015E+03  0.89439912638E+02 0.  0.
          5    1    3    3  502    0 -0.22864491947E+02  0.38480792276E+02 -0.27970324637E+02  0.52946839627E+02  0.41800000000E+01 0. -1.
         -5    1    3    3    0  502  0.39421256345E+02 -0.53127476013E+02  0.33330893029E+02  0.74195586051E+02  0.41800000000E+01 0. -1.
        -11    1    4    4    0    0 -0.36044400775E+02  0.40394682324E+02  0.84911210515E+01  0.54799893467E+02  0.00000000000E+00 0.  1.
         11    1    4    4    0    0  0.19487636377E+02 -0.25747998587E+02  0.33237687768E+02  0.46340816684E+02  0.00000000000E+00 0. -1.
</event>
<event>
 8    1  0.3654190E-009  0.1162643E+03  0.7561462E-02  0.1249390E+00
         -1   -1    0    0    0  501 -0.00000000000E+00  0.00000000000E+00  0.90602055073E+02  0.90602055073E+02  0.00000000000E+00 0.  1.
          1   -1    0    0  501    0  0.00000000000E+00 -0.00000000000E+00 -0.19875458265E+03  0.19875458265E+03  0.00000000000E+00 0. -1.
         25    2    1    2    0    0  0.14619212553E+02  0.68996087022E+02 -0.97086344096E+02  0.17334208284E+03  0.12509011981E+03 0.  0.
         23    2    1    2    0    0 -0.14619212553E+02 -0.68996087022E+02 -0.11066183482E+02  0.11601455488E+03  0.91447991377E+02 0.  0.
          5    1    3    3  502    0  0.50082864100E+02  0.75903650596E+02 -0.10191471011E+03  0.13665188614E+03  0.41800000000E+01 0. -1.
         -5    1    3    3    0  502 -0.35463651546E+02 -0.69075635744E+01  0.48283660125E+01  0.36690196700E+02  0.41800000000E+01 0. -1.
        -11    1    4    4    0    0 -0.84506183352E+01  0.16958871511E+02 -0.22127573380E+02  0.29131525481E+02  0.00000000000E+00 0. -1.
         11    1    4    4    0    0 -0.61685942182E+01 -0.85954958533E+02  0.11061389897E+02  0.86883029399E+02  0.00000000000E+00 0.  1.
</event>
<event>
 8    1  0.3654190E-009  0.1172386E+03  0.7561462E-02  0.1247723E+00
          1   -1    0    0  501    0  0.00000000000E+00  0.00000000000E+00  0.33039563177E+03  0.33039563177E+03  0.00000000000E+00 0. -1.
         -1   -1    0    0    0  501 -0.00000000000E+00 -0.00000000000E+00 -0.69572922455E+02  0.69572922455E+02  0.00000000000E+00 0.  1.
         25    2    1    2    0    0 -0.23854013559E+02 -0.80305137011E+02  0.22522103076E+03  0.27090686585E+03  0.12509231902E+03 0.  0.
         23    2    1    2    0    0  0.23854013559E+02  0.80305137011E+02  0.35601678560E+02  0.12906168838E+03  0.91495961098E+02 0.  0.
          5    1    3    3  502    0 -0.43473802174E+02  0.17696720977E+02  0.10070610666E+03  0.11118605006E+03  0.41800000000E+01 0.  1.
         -5    1    3    3    0  502  0.19619788615E+02 -0.98001857989E+02  0.12451492409E+03  0.15972081579E+03  0.41800000000E+01 0.  1.
        -11    1    4    4    0    0  0.55922768456E+01  0.58977699104E+02 -0.23418678451E+02  0.63703038015E+02  0.00000000000E+00 0.  1.
         11    1    4    4    0    0  0.18261736713E+02  0.21327437907E+02  0.59020357011E+02  0.65358650362E+02  0.00000000000E+00 0. -1.
</event>
<event>
 8    1  0.3654190E-009  0.9773985E+02  0.7561462E-02  0.1285122E+00
          2   -1    0    0  501    0  0.00000000000E+00  0.00000000000E+00  0.53563924580E+03  0.53563924580E+03  0.00000000000E+00 0.  1.
         -2   -1    0    0    0  501 -0.00000000000E+00 -0.00000000000E+00 -0.23423281564E+02  0.23423281564E+02  0.00000000000E+00 0. -1.
         25    2    1    2    0    0  0.20732380116E+02  0.16095700552E+02  0.31120106762E+03  0.33642602559E+03  0.12508981990E+03 0.  0.
         23    2    1    2    0    0 -0.20732380116E+02 -0.16095700552E+02  0.20101489662E+03  0.22263650178E+03  0.92038688064E+02 0.  0.
          5    1    3    3  502    0 -0.77340362439E+01 -0.38346005801E+02  0.23587877189E+03  0.23913698774E+03  0.41800000000E+01 0.  1.
         -5    1    3    3    0  502  0.28466416360E+02  0.54441706353E+02  0.75322295734E+02  0.97289037849E+02  0.41800000000E+01 0.  1.
        -11    1    4    4    0    0 -0.94408648506E+01 -0.54099049519E+02  0.99397357405E+02  0.11355911125E+03  0.00000000000E+00 0.  1.
         11    1    4    4    0    0 -0.11291515266E+02  0.38003348967E+02  0.10161753921E+03  0.10907739053E+03  0.00000000000E+00 0. -1.
</event>
<event>
 8    1  0.3654190E-009  0.1418890E+03  0.7561462E-02  0.1210810E+00
          2   -1    0    0  501    0  0.00000000000E+00  0.00000000000E+00  0.93132056649E+03  0.93132056649E+03  0.00000000000E+00 0. -1.
         -2   -1    0    0    0  501 -0.00000000000E+00 -0.00000000000E+00 -0.23599281946E+02  0.23599281946E+02  0.00000000000E+00 0.  1.
         25    2    1    2    0    0  0.96389519919E+02  0.13145524761E+02  0.41208192669E+03  0.44149938548E+03  0.12508576539E+03 0.  0.
         23    2    1    2    0    0 -0.96389519919E+02 -0.13145524761E+02  0.49563935785E+03  0.51342046295E+03  0.92078522776E+02 0.  0.
          5    1    3    3  502    0  0.78159333270E+02 -0.48933536234E+02  0.26944982836E+03  0.28482284802E+03  0.41800000000E+01 0. -1.
         -5    1    3    3    0  502  0.18230186648E+02  0.62079060996E+02  0.14263209832E+03  0.15667653746E+03  0.41800000000E+01 0. -1.
        -11    1    4    4    0    0 -0.30301483983E+02 -0.44219328365E+02  0.29663125897E+03  0.30143595129E+03  0.00000000000E+00 0. -1.
         11    1    4    4    0    0 -0.66088035936E+02  0.31073803604E+02  0.19900809888E+03  0.21198451166E+03  0.00000000000E+00 0.  1.
</event>
<event>
 8    1  0.3654190E-009  0.1307939E+03  0.7561462E-02  0.1226282E+00
          2   -1    0    0  501    0  0.00000000000E+00  0.00000000000E+00  0.16746226406E+03  0.16746226406E+03  0.00000000000E+00 0. -1.
         -2   -1    0    0    0  501 -0.00000000000E+00 -0.00000000000E+00 -0.16005675051E+03  0.16005675051E+03  0.00000000000E+00 0.  1.
         25    2    1    2    0    0 -0.67939031436E+01 -0.11262729162E+03 -0.42975272327E+02  0.17385208996E+03  0.12508641499E+03 0.  0.
         23    2    1    2    0    0  0.67939031436E+01  0.11262729162E+03  0.50380785881E+02  0.15366692461E+03  0.91346790839E+02 0.  0.
          5    1    3    3  502    0 -0.43383445138E+02 -0.10105236432E+03 -0.66560560824E+02  0.12861370185E+03  0.41800000000E+01 0. -1.
         -5    1    3    3    0  502  0.36589541994E+02 -0.11574927296E+02  0.23585288498E+02  0.45238388110E+02  0.41800000000E+01 0. -1.
        -11    1    4    4    0    0 -0.51248492626E+00  0.23970718323E+02  0.59591728406E+02  0.64234197062E+02  0.00000000000E+00 0. -1.
         11    1    4    4    0    0  0.73063880699E+01  0.88656573293E+02 -0.92109425253E+01  0.89432727549E+02  0.00000000000E+00 0.  1.
</event>
<event>
 8    1  0.3654190E-009  0.7729124E+02  0.7561462E-02  0.1336919E+00
          2   -1    0    0  501    0  0.00000000000E+00  0.00000000000E+00  0.70467780476E+03  0.70467780476E+03  0.00000000000E+00 0. -1.
         -2   -1    0    0    0  501 -0.00000000000E+00 -0.00000000000E+00 -0.21755224922E+02  0.21755224922E+02  0.00000000000E+00 0.  1.
         25    2    1    2    0    0 -0.19751186851E+02  0.16133594074E+02  0.22419395179E+03  0.25799362308E+03  0.12508948514E+03 0.  0.
         23    2    1    2    0    0  0.19751186851E+02 -0.16133594074E+02  0.45872862805E+03  0.46843940660E+03  0.91395411406E+02 0.  0.
          5    1    3    3  502    0 -0.11424131491E+02  0.36155969520E+02  0.23158473116E+03  0.23470561352E+03  0.41800000000E+01 0. -1.
         -5    1    3    3    0  502 -0.83270553601E+01 -0.20022375446E+02 -0.73907793718E+01  0.23288009558E+02  0.41800000000E+01 0. -1.
        -11    1    4    4    0    0 -0.40358843705E+01  0.36431341924E+02  0.15454398203E+03  0.15883127343E+03  0.00000000000E+00 0.  1.
         11    1    4    4    0    0  0.23787071222E+02 -0.52564935998E+02  0.30418464602E+03  0.30960813317E+03  0.00000000000E+00 0. -1.
</event>
<event>
 8    1  0.3654190E-009  0.1145519E+03  0.7561462E-02  0.1252365E+00
          1   -1    0    0  501    0  0.00000000000E+00  0.00000000000E+00  0.15166869683E+03  0.15166869683E+03  0.00000000000E+00 0. -1.
         -1   -1    0    0    0  501 -0.00000000000E+00 -0.00000000000E+00 -0.95690779814E+02  0.95690779814E+02  0.00000000000E+00 0.  1.
         25    2    1    2    0    0 -0.34092972509E+02 -0.27796359260E+02  0.60179917696E+02  0.14561511245E+03  0.12508864904E+03 0.  0.
         23    2    1    2    0    0  0.34092972509E+02  0.27796359260E+02 -0.42020006780E+01  0.10174436419E+03  0.91647643029E+02 0.  0.
          5    1    3    3  502    0  0.19636209908E+02 -0.62735120353E+02  0.44532185970E+02  0.79510150626E+02  0.41800000000E+01 0. -1.
         -5    1    3    3    0  502 -0.53729182418E+02  0.34938761094E+02  0.15647731727E+02  0.66104961828E+02  0.41800000000E+01 0. -1.
        -11    1    4    4    0    0 -0.23792289686E+01 -0.30310376095E+02  0.93603596058E+01  0.31811883966E+02  0.00000000000E+00 0. -1.
         11    1    4    4    0    0  0.36472201478E+02  0.58106735355E+02 -0.13562360284E+02  0.69932480227E+02  0.00000000000E+00 0.  1.
</event>
<event>
 8    1  0.3654190E-009  0.8532020E+02  0.7561462E-02  0.1314597E+00
         -1   -1    0    0    0  501 -0.00000000000E+00  0.00000000000E+00  0.67231724068E+02  0.67231724068E+02  0.00000000000E+00 0.  1.
          1   -1    0    0  501    0  0.00000000000E+00 -0.00000000000E+00 -0.17747973908E+03  0.17747973908E+03  0.00000000000E+00 0. -1.
         25    2    1    2    0    0  0.29925470714E+01 -0.72321225356E+01 -0.47889896578E+02  0.13416992487E+03  0.12508743986E+03 0.  0.
         23    2    1    2    0    0 -0.29925470714E+01  0.72321225356E+01 -0.62358118430E+02  0.11054153827E+03  0.90937548984E+02 0.  0.
          5    1    3    3  502    0  0.39750343676E+02 -0.21158614344E+02 -0.74050412347E+02  0.86768155172E+02  0.41800000000E+01 0. -1.
         -5    1    3    3    0  502 -0.36757796605E+02  0.13926491809E+02  0.26160515768E+02  0.47401769699E+02  0.41800000000E+01 0. -1.
        -11    1    4    4    0    0  0.69461568447E+01 -0.38482455391E+02 -0.47351697684E+02  0.61411169516E+02  0.00000000000E+00 0.  1.
         11    1    4    4    0    0 -0.99387039160E+01  0.45714577926E+02 -0.15006420746E+02  0.49130368756E+02  0.00000000000E+00 0. -1.
</event>
<event>
 8    1  0.3654190E-009  0.1335451E+03  0.7561462E-02  0.1222288E+00
          1   -1    0    0  501    0  0.00000000000E+00  0.00000000000E+00  0.70747193480E+03  0.70747193480E+03  0.00000000000E+00 0. -1.
         -1   -1    0    0    0  501 -0.00000000000E+00 -0.00000000000E+00 -0.39781911693E+02  0.39781911693E+02  0.00000000000E+00 0.  1.
         25    2    1    2    0    0 -0.90780247927E+02 -0.46186918534E+02  0.52553179805E+03  0.54973438002E+03  0.12509969205E+03 0.  0.
         23    2    1    2    0    0  0.90780247927E+02  0.46186918534E+02  0.14215822505E+03  0.19751946647E+03  0.91818809775E+02 0.  0.
          5    1    3    3  502    0 -0.10571014485E+02 -0.56759041257E+02  0.36868898509E+03  0.37320554020E+03  0.41800000000E+01 0.  1.
         -5    1    3    3    0  502 -0.80209233442E+02  0.10572122723E+02  0.15684281296E+03  0.17652883981E+03  0.41800000000E+01 0.  1.
        -11    1    4    4    0    0  0.83595111267E+02  0.22009125738E+01  0.12362228167E+03  0.14924964043E+03  0.00000000000E+00 0.  1.
         11    1    4    4    0    0  0.71851366597E+01  0.43986005961E+02  0.18535943389E+02  0.48269826046E+02  0.00000000000E+00 0. -1.
</event>
<event>
 8    1  0.3654190E-009  0.8432463E+02  0.7561462E-02  0.1317208E+00
          2   -1    0    0  501    0  0.00000000000E+00  0.00000000000E+00  0.80154111172E+03  0.80154111172E+03  0.00000000000E+00 0. -1.
         -2   -1    0    0    0  501 -0.00000000000E+00 -0.00000000000E+00 -0.19904062259E+02  0.19904062259E+02  0.00000000000E+00 0.  1.
         25    2    1    2    0    0 -0.24085045599E+02 -0.21232806074E+01  0.63048046660E+03  0.64322409564E+03  0.12508805180E+03 0.  0.
         23    2    1    2    0    0  0.24085045599E+02  0.21232806074E+01  0.15115658285E+03  0.17822107834E+03  0.91267970728E+02 0.  0.
          5    1    3    3  502    0 -0.15055226661E+02 -0.57036330668E+02  0.18401466174E+03  0.19328391294E+03  0.41800000000E+01 0. -1.
         -5    1    3    3    0  502 -0.90298189383E+01  0.54913050061E+02  0.44646580486E+03  0.44994018270E+03  0.41800000000E+01 0. -1.
        -11    1    4    4    0    0  0.15402961810E+02  0.24927916779E+02  0.46176249569E+01  0.29664367981E+02  0.00000000000E+00 0.  1.
         11    1    4    4    0    0  0.86820837894E+01 -0.22804636172E+02  0.14653895790E+03  0.14855671035E+03  0.00000000000E+00 0. -1.
</event>
<event>
 8    1  0.3654190E-009  0.1074773E+03  0.7561462E-02  0.1265314E+00
          2   -1    0    0  501    0  0.00000000000E+00  0.00000000000E+00  0.13623344887E+04  0.13623344887E+04  0.00000000000E+00 0. -1.
         -2   -1    0    0    0  501 -0.00000000000E+00 -0.00000000000E+00 -0.42846864323E+02  0.42846864323E+02  0.00000000000E+00 0.  1.
         25    2    1    2    0    0 -0.74188880564E+02  0.68558149081E+02  0.12307396839E+04  0.12411977827E+04  0.12509019416E+03 0.  0.
         23    2    1    2    0    0  0.74188880564E+02 -0.68558149081E+02  0.88747940526E+02  0.16398357028E+03  0.93862689975E+02 0.  0.
          5    1    3    3  502    0  0.33437614307E+01 -0.32757365901E+01  0.36682773589E+00  0.62863465782E+01  0.41800000000E+01 0. -1.
         -5    1    3    3    0  502 -0.77532641994E+02  0.71833885671E+02  0.12303728561E+04  0.12349114362E+04  0.41800000000E+01 0. -1.
        -11    1    4    4    0    0  0.49497657283E+02 -0.32551494889E+02  0.10234627879E+03  0.11825556511E+03  0.00000000000E+00 0.  1.
         11    1    4    4    0    0  0.24691223280E+02 -0.36006654192E+02 -0.13598338269E+02  0.45728005171E+02  0.00000000000E+00 0. -1.
</event>
<event>
 8    1  0.3654190E-009  0.9498603E+02  0.7561462E-02  0.1291208E+00
         -2   -1    0    0    0  501 -0.00000000000E+00  0.00000000000E+00  0.17351867231E+03  0.17351867231E+03  0.00000000000E+00 0.  1.
          2   -1    0    0  501    0  0.00000000000E+00 -0.00000000000E+00 -0.90279367006E+02  0.90279367006E+02  0.00000000000E+00 0. -1.
         25    2    1    2    0    0 -0.35717951110E+02 -0.21246346169E+02  0.91602722500E+02  0.16051666856E+03  0.12508941946E+03 0.  0.
         23    2    1    2    0    0  0.35717951110E+02  0.21246346169E+02 -0.83634171944E+01  0.10328137075E+03  0.94180229031E+02 0.  0.
          5    1    3    3  502    0  0.33083284036E+02 -0.36146056793E+02  0.59015845173E+01  0.49531224537E+02  0.41800000000E+01 0. -1.
         -5    1    3    3    0  502 -0.68801235147E+02  0.14899710624E+02  0.85701137982E+02  0.11098544403E+03  0.41800000000E+01 0. -1.
        -11    1    4    4    0    0 -0.66119766714E+01  0.26779369784E+02 -0.41090426351E+02  0.49490160833E+02  0.00000000000E+00 0. -1.
         11    1    4    4    0    0  0.42329927782E+02 -0.55330236153E+01  0.32727009157E+02  0.53791209920E+02  0.00000000000E+00 0.  1.
</event>
<event>
 8    1  0.3654190E-009  0.1073614E+03  0.7561462E-02  0.1265536E+00
          2   -1    0    0  501    0  0.00000000000E+00  0.00000000000E+00  0.96336802769E+03  0.96336802769E+03  0.00000000000E+00 0. -1.
         -2   -1    0    0    0  501 -0.00000000000E+00 -0.00000000000E+00 -0.25048644020E+02  0.25048644020E+02  0.00000000000E+00 0.  1.
         25    2    1    2    0    0  0.66809374829E+02  0.17173239072E+02  0.77827136669E+03  0.79127228013E+03  0.12508832237E+03 0.  0.
         23    2    1    2    0    0 -0.66809374829E+02 -0.17173239072E+02  0.16004801699E+03  0.19714439158E+03  0.92152757342E+02 0.  0.
          5    1    3    3  502    0 -0.31855189541E+02  0.17388694761E+02  0.34294978333E+03  0.34489004928E+03  0.41800000000E+01 0.  1.
         -5    1    3    3    0  502  0.98664564370E+02 -0.21545568911E+00  0.43532158336E+03  0.44638223086E+03  0.41800000000E+01 0.  1.
        -11    1    4    4    0    0 -0.10007497108E+02  0.11964486736E+02 -0.78913031766E+01  0.17480606598E+02  0.00000000000E+00 0.  1.
         11    1    4    4    0    0 -0.56801877721E+02 -0.29137725808E+02  0.16793932016E+03  0.17966378498E+03  0.00000000000E+00 0. -1.
</event>
<event>
 8    1  0.3654190E-009  0.1153456E+03  0.7561462E-02  0.1250979E+00
         -3   -1    0    0    0  501 -0.00000000000E+00  0.00000000000E+00  0.12824419846E+03  0.12824419846E+03  0.00000000000E+00 0.  1.
          3   -1    0    0  501    0  0.00000000000E+00 -0.00000000000E+00 -0.11947749555E+03  0.11947749555E+03  0.00000000000E+00 0. -1.
         25    2    1    2    0    0  0.46241967578E+02 -0.22665874068E+02 -0.22797747212E+02  0.13718484042E+03  0.12509149351E+03 0.  0.
         23    2    1    2    0    0 -0.46241967578E+02  0.22665874068E+02  0.31564450124E+02  0.11053685360E+03  0.92574402940E+02 0.  0.
          5    1    3    3  502    0 -0.17780318813E+02  0.40209335591E+02  0.12835391155E+01  0.44182013065E+02  0.41800000000E+01 0.  1.
         -5    1    3    3    0  502  0.64022286391E+02 -0.62875209659E+02 -0.24081286328E+02  0.93002827353E+02  0.41800000000E+01 0.  1.
        -11    1    4    4    0    0 -0.20298482700E+02  0.53016176093E+02 -0.42125566071E+01  0.56925292802E+02  0.00000000000E+00 0.  1.
         11    1    4    4    0    0 -0.25943484879E+02 -0.30350302025E+02  0.35777006731E+02  0.53611560799E+02  0.00000000000E+00 0. -1.
</event>
<event>
 8    1  0.3654190E-009  0.9963782E+02  0.7561462E-02  0.1281059E+00
         -1   -1    0    0    0  501 -0.00000000000E+00  0.00000000000E+00  0.44158003859E+02  0.44158003859E+02  0.00000000000E+00 0. -1.
          1   -1    0    0  501    0  0.00000000000E+00 -0.00000000000E+00 -0.28318673618E+03  0.28318673618E+03  0.00000000000E+00 0.  1.
         25    2    1    2    0    0  0.56602905303E+01 -0.57868868620E+01 -0.95750218633E+02  0.15774136521E+03  0.12509479198E+03 0.  0.
         23    2    1    2    0    0 -0.56602905303E+01  0.57868868620E+01 -0.14327851369E+03  0.16960337483E+03  0.90393834533E+02 0.  0.
          5    1    3    3  502    0  0.99396515303E-01  0.55655522110E+02 -0.18516063507E+02  0.58803605577E+02  0.41800000000E+01 0. -1.
         -5    1    3    3    0  502  0.55608940150E+01 -0.61442408972E+02 -0.77234155126E+02  0.98937759630E+02  0.41800000000E+01 0. -1.
        -11    1    4    4    0    0  0.29377559552E+02 -0.22169636518E+02 -0.10286379531E+03  0.10924968729E+03  0.00000000000E+00 0.  1.
         11    1    4    4    0    0 -0.35037850083E+02  0.27956523380E+02 -0.40414718383E+02  0.60353687542E+02  0.00000000000E+00 0. -1.
</event>
<event>
 8    1  0.3654190E-009  0.1322630E+03  0.7561462E-02  0.1224136E+00
         -3   -1    0    0    0  501 -0.00000000000E+00  0.00000000000E+00  0.81230291197E+02  0.81230291197E+02  0.00000000000E+00 0.  1.
          3   -1    0    0  501    0  0.00000000000E+00 -0.00000000000E+00 -0.23230347923E+03  0.23230347923E+03  0.00000000000E+00 0. -1.
         25    2    1    2    0    0 -0.35575713810E+02  0.73613579257E+02 -0.10616100053E+03  0.18331036077E+03  0.12509172581E+03 0.  0.
         23    2    1    2    0    0  0.35575713810E+02 -0.73613579257E+02 -0.44912187498E+02  0.13022340966E+03  0.90864962291E+02 0.  0.
          5    1    3    3  502    0 -0.17069225085E+02  0.10499419143E+03 -0.53506962151E+02  0.11914531496E+03  0.41800000000E+01 0. -1.
         -5    1    3    3    0  502 -0.18506488725E+02 -0.31380612174E+02 -0.52654038379E+02  0.64165045804E+02  0.41800000000E+01 0. -1.
        -11    1    4    4    0    0  0.60132649381E+02 -0.21622230792E+02 -0.16048433354E+02  0.65886330897E+02  0.00000000000E+00 0.  1.
         11    1    4    4    0    0 -0.24556935571E+02 -0.51991348465E+02 -0.28863754144E+02  0.64337078758E+02  0.00000000000E+00 0. -1.
</event>
<event>
 8    1  0.3654190E-009  0.1099691E+03  0.7561462E-02  0.1260627E+00
         -1   -1    0    0    0  501 -0.00000000000E+00  0.00000000000E+00  0.96110285037E+02  0.96110285037E+02  0.00000000000E+00 0.  1.
          1   -1    0    0  501    0  0.00000000000E+00 -0.00000000000E+00 -0.18565272420E+03  0.18565272420E+03  0.00000000000E+00 0. -1.
         25    2    1    2    0    0 -0.54706193130E+02 -0.49412701075E+02 -0.22480367713E+02  0.14692584238E+03  0.12508978229E+03 0.  0.
         23    2    1    2    0    0  0.54706193130E+02  0.49412701075E+02 -0.67062071452E+02  0.13483716686E+03  0.90825973952E+02 0.  0.
          5    1    3    3  502    0 -0.44728991856E+02 -0.91377023906E+02 -0.14254018933E+02  0.10281581914E+03  0.41800000000E+01 0.  1.
         -5    1    3    3    0  502 -0.99772012744E+01  0.41964322831E+02 -0.82263487799E+01  0.44110023239E+02  0.41800000000E+01 0.  1.
        -11    1    4    4    0    0  0.80399644720E+01  0.14200115361E+02  0.22554194202E+02  0.27838390418E+02  0.00000000000E+00 0.  1.
         11    1    4    4    0    0  0.46666228658E+02  0.35212585714E+02 -0.89616265654E+02  0.10699877644E+03  0.00000000000E+00 0. -1.
</event>
<event>
 8    1  0.3654190E-009  0.1180195E+03  0.7561462E-02  0.1246400E+00
         -1   -1    0    0    0  501 -0.00000000000E+00  0.00000000000E+00  0.36377644241E+03  0.36377644241E+03  0.00000000000E+00 0.  1.
          1   -1    0    0  501    0  0.00000000000E+00 -0.00000000000E+00 -0.60860722662E+02  0.60860722662E+02  0.00000000000E+00 0. -1.
         25    2    1    2    0    0 -0.62262071138E+02  0.70343854897E+02  0.22153090709E+03  0.27119894932E+03  0.12509238142E+03 0.  0.
         23    2    1    2    0    0  0.62262071138E+02 -0.70343854897E+02  0.81384812658E+02  0.15343821575E+03  0.89972078439E+02 0.  0.
          5    1    3    3  502    0  0.25743543977E+02  0.40350304510E+02  0.13805996101E+03  0.14618106022E+03  0.41800000000E+01 0.  1.
         -5    1    3    3    0  502 -0.88005615116E+02  0.29993550387E+02  0.83470946079E+02  0.12501788910E+03  0.41800000000E+01 0.  1.
        -11    1    4    4    0    0  0.11988915718E+02 -0.22645037440E+02  0.80129270729E+02  0.84126285121E+02  0.00000000000E+00 0.  1.
         11    1    4    4    0    0  0.50273155420E+02 -0.47698817457E+02  0.12555419291E+01  0.69311930634E+02  0.00000000000E+00 0. -1.
</event>
<event>
 8    1  0.3654190E-009  0.8740738E+02  0.7561462E-02  0.1309254E+00
         -2   -1    0    0    0  501 -0.00000000000E+00  0.00000000000E+00  0.19409676040E+02  0.19409676040E+02  0.00000000000E+00 0.  1.
          2   -1    0    0  501    0  0.00000000000E+00 -0.00000000000E+00 -0.66349589102E+03  0.66349589102E+03  0.00000000000E+00 0. -1.
         25    2    1    2    0    0 -0.15770803916E+02 -0.36941338025E+02 -0.41071377589E+03  0.43121576175E+03  0.12509135365E+03 0.  0.
         23    2    1    2    0    0  0.15770803916E+02  0.36941338025E+02 -0.23337243908E+03  0.25168980531E+03  0.85274158234E+02 0.  0.
          5    1    3    3  502    0  0.20693369221E+02 -0.56537969536E+02 -0.93504065095E+02  0.11128899370E+03  0.41800000000E+01 0.  1.
         -5    1    3    3    0  502 -0.36464173136E+02  0.19596631510E+02 -0.31720971080E+03  0.31992676805E+03  0.41800000000E+01 0.  1.
        -11    1    4    4    0    0  0.23438704330E+02  0.51399415029E+02 -0.22733073851E+03  0.23424461018E+03  0.00000000000E+00 0. -1.
         11    1    4    4    0    0 -0.76679004140E+01 -0.14458077004E+02 -0.60417005730E+01  0.17445195133E+02  0.00000000000E+00 0.  1.
</event>
<event>
 8    1  0.3654190E-009  0.1123975E+03  0.7561462E-02  0.1256193E+00
         -4   -1    0    0    0  501 -0.00000000000E+00  0.00000000000E+00  0.79758314943E+02  0.79758314943E+02  0.00000000000E+00 0.  1.
          4   -1    0    0  501    0  0.00000000000E+00 -0.00000000000E+00 -0.25553087267E+03  0.25553087267E+03  0.00000000000E+00 0. -1.
         25    2    1    2    0    0  0.56449577899E+02 -0.50151702806E+02 -0.15911704250E+03  0.21602550118E+03  0.12508811218E+03 0.  0.
         23    2    1    2    0    0 -0.56449577899E+02  0.50151702806E+02 -0.16655515232E+02  0.11926368643E+03  0.90800179371E+02 0.  0.
          5    1    3    3  502    0  0.95471171125E+02 -0.28961611516E+02 -0.12432067925E+03  0.15945727687E+03  0.41800000000E+01 0.  1.
         -5    1    3    3    0  502 -0.39021593226E+02 -0.21190091290E+02 -0.34796363242E+02  0.56568224310E+02  0.41800000000E+01 0.  1.
        -11    1    4    4    0    0 -0.56500250844E+01  0.21049953487E+02 -0.48100875852E+02  0.52808309791E+02  0.00000000000E+00 0. -1.
         11    1    4    4    0    0 -0.50799552815E+02  0.29101749318E+02  0.31445360621E+02  0.66455376638E+02  0.00000000000E+00 0.  1.
</event>
<event>
 8    1  0.3654190E-009  0.2759049E+03  0.7561462E-02  0.1097947E+00
          1   -1    0    0  501    0  0.00000000000E+00  0.00000000000E+00  0.73371765625E+03  0.73371765625E+03  0.00000000000E+00 0. -1.
         -1   -1    0    0    0  501 -0.00000000000E+00 -0.00000000000E+00 -0.13720538182E+03  0.13720538182E+03  0.00000000000E+00 0.  1.
         25    2    1    2    0    0 -0.26307923251E+03  0.62611766074E+02  0.46817301175E+03  0.55494510722E+03  0.12508871758E+03 0.  0.
         23    2    1    2    0    0  0.26307923251E+03 -0.62611766074E+02  0.12833926267E+03  0.31597793085E+03  0.10119372811E+03 0.  0.
          5    1    3    3  502    0 -0.74561092677E+02  0.17137439598E+02  0.43586192584E+02  0.88149174478E+02  0.41800000000E+01 0.  1.
         -5    1    3    3    0  502 -0.18851813984E+03  0.45474326476E+02  0.42458681917E+03  0.46679593274E+03  0.41800000000E+01 0.  1.
        -11    1    4    4    0    0  0.24869192805E+03 -0.36430246051E+02  0.89123174047E+02  0.26667916689E+03  0.00000000000E+00 0.  1.
         11    1    4    4    0    0  0.14387304468E+02 -0.26181520023E+02  0.39216088627E+02  0.49298763957E+02  0.00000000000E+00 0. -1.
</event>
<event>
 8    1  0.3654190E-009  0.9234168E+02  0.7561462E-02  0.1297278E+00
         -3   -1    0    0    0  501 -0.00000000000E+00  0.00000000000E+00  0.18918822112E+03  0.18918822112E+03  0.00000000000E+00 0.  1.
          3   -1    0    0  501    0  0.00000000000E+00 -0.00000000000E+00 -0.67132521714E+02  0.67132521714E+02  0.00000000000E+00 0. -1.
         25    2    1    2    0    0  0.28029445048E+02  0.64958873916E+01  0.68580149527E+02  0.14552605381E+03  0.12508696609E+03 0.  0.
         23    2    1    2    0    0 -0.28029445048E+02 -0.64958873916E+01  0.53475549878E+02  0.11079468902E+03  0.92671367411E+02 0.  0.
          5    1    3    3  502    0 -0.21214135900E+02 -0.22503844891E+02  0.81079133715E+02  0.86877850577E+02  0.41800000000E+01 0. -1.
         -5    1    3    3    0  502  0.49243580948E+02  0.28999732282E+02 -0.12498984189E+02  0.58648203236E+02  0.41800000000E+01 0. -1.
        -11    1    4    4    0    0 -0.19889828147E+02  0.42279697275E+02  0.33352213797E+02  0.57406865710E+02  0.00000000000E+00 0.  1.
         11    1    4    4    0    0 -0.81396169010E+01 -0.48775584667E+02  0.20123336081E+02  0.53387823311E+02  0.00000000000E+00 0. -1.
</event>
<event>
 8    1  0.3654190E-009  0.8497437E+02  0.7561462E-02  0.1315500E+00
         -2   -1    0    0    0  501 -0.00000000000E+00  0.00000000000E+00  0.51588088852E+02  0.51588088852E+02  0.00000000000E+00 0.  1.
          2   -1    0    0  501    0  0.00000000000E+00 -0.00000000000E+00 -0.24909116306E+03  0.24909116306E+03  0.00000000000E+00 0. -1.
         25    2    1    2    0    0  0.31413684603E+01 -0.28408864008E+02 -0.96999003709E+02  0.16084894033E+03  0.12508654258E+03 0.  0.
         23    2    1    2    0    0 -0.31413684603E+01  0.28408864008E+02 -0.10050407050E+03  0.13983031158E+03  0.92922096938E+02 0.  0.
          5    1    3    3  502    0  0.27965864516E+02  0.23557214043E+02  0.10974639720E+02  0.38405039104E+02  0.41800000000E+01 0.  1.
         -5    1    3    3    0  502 -0.24824496056E+02 -0.51966078051E+02 -0.10797364343E+03  0.12244390123E+03  0.41800000000E+01 0.  1.
        -11    1    4    4    0    0  0.20327072588E+01  0.51600645300E+02 -0.10370753731E+03  0.11585340646E+03  0.00000000000E+00 0. -1.
         11    1    4    4    0    0 -0.51740757191E+01 -0.23191781292E+02  0.32034668170E+01  0.23976905111E+02  0.00000000000E+00 0.  1.
</event>
<event>
 8    1  0.3654190E-009  0.1098863E+03  0.7561462E-02  0.1260781E+00
         -2   -1    0    0    0  501 -0.00000000000E+00  0.00000000000E+00  0.35139932446E+02  0.35139932446E+02  0.00000000000E+00 0.  1.
          2   -1    0    0  501    0  0.00000000000E+00 -0.00000000000E+00 -0.78084626898E+03  0.78084626898E+03  0.00000000000E+00 0. -1.
         25    2    1    2    0    0 -0.52641636192E+02 -0.51160135807E+02 -0.15072167769E+03  0.20917303411E+03  0.12509129753E+03 0.  0.
         23    2    1    2    0    0  0.52641636192E+02  0.51160135807E+02 -0.59498465885E+03  0.60681316732E+03  0.93951979262E+02 0.  0.
          5    1    3    3  502    0 -0.37625503081E+02 -0.67860407591E+02 -0.16489656589E+03  0.18228840677E+03  0.41800000000E+01 0.  1.
         -5    1    3    3    0  502 -0.15016133111E+02  0.16700271785E+02  0.14174888208E+02  0.26884627336E+02  0.41800000000E+01 0.  1.
        -11    1    4    4    0    0 -0.27197237248E+02  0.18864077263E+02 -0.16793078309E+03  0.17116159333E+03  0.00000000000E+00 0.  1.
         11    1    4    4    0    0  0.79838873440E+02  0.32296058544E+02 -0.42705387576E+03  0.43565157398E+03  0.00000000000E+00 0. -1.
</event>
<event>
 8    1  0.3654190E-009  0.2301700E+03  0.7561462E-02  0.1126520E+00
         -2   -1    0    0    0  501 -0.00000000000E+00  0.00000000000E+00  0.14826773311E+03  0.14826773311E+03  0.00000000000E+00 0.  1.
          2   -1    0    0  501    0  0.00000000000E+00 -0.00000000000E+00 -0.58639709464E+03  0.58639709464E+03  0.00000000000E+00 0. -1.
         25    2    1    2    0    0  0.16123592790E+03 -0.15812650762E+03 -0.30657945484E+02  0.25997070025E+03  0.12507533133E+03 0.  0.
         23    2    1    2    0    0 -0.16123592790E+03  0.15812650762E+03 -0.40747141605E+03  0.47469412750E+03  0.91107315482E+02 0.  0.
          5    1    3    3  502    0  0.67413990123E+02 -0.31089396459E+02  0.42747604523E+02  0.85767282393E+02  0.41800000000E+01 0.  1.
         -5    1    3    3    0  502  0.93821937777E+02 -0.12703711116E+03 -0.73405550007E+02  0.17420341786E+03  0.41800000000E+01 0.  1.
        -11    1    4    4    0    0 -0.14513088702E+02  0.29518532666E+02 -0.14489684710E+02  0.35943350949E+02  0.00000000000E+00 0.  1.
         11    1    4    4    0    0 -0.14672283920E+03  0.12860797496E+03 -0.39298173134E+03  0.43875077656E+03  0.00000000000E+00 0. -1.
</event>
<event>
 8    1  0.3654190E-009  0.1344906E+03  0.7561462E-02  0.1220941E+00
         -1   -1    0    0    0  501 -0.00000000000E+00  0.00000000000E+00  0.10238977974E+03  0.10238977974E+03  0.00000000000E+00 0.  1.
          1   -1    0    0  501    0  0.00000000000E+00 -0.00000000000E+00 -0.28302908458E+03  0.28302908458E+03  0.00000000000E+00 0. -1.
         25    2    1    2    0    0 -0.11531145804E+03 -0.58449253289E+02 -0.11060078308E+03  0.21116911502E+03  0.12508722700E+03 0.  0.
         23    2    1    2    0    0  0.11531145804E+03  0.58449253289E+02 -0.70038521770E+02  0.17424974930E+03  0.93512207941E+02 0.  0.
          5    1    3    3  502    0 -0.39094639664E+01  0.25262758378E+01 -0.80295325850E+02  0.80538672273E+02  0.41800000000E+01 0. -1.
         -5    1    3    3    0  502 -0.11140199407E+03 -0.60975529127E+02 -0.30305457227E+02  0.13063044275E+03  0.41800000000E+01 0. -1.
        -11    1    4    4    0    0  0.21104400406E+02  0.31058786006E+02 -0.66149631833E+02  0.76064562684E+02  0.00000000000E+00 0. -1.
         11    1    4    4    0    0  0.94207057630E+02  0.27390467283E+02 -0.38888899365E+01  0.98185186613E+02  0.00000000000E+00 0.  1.
</event>
<event>
 8    1  0.3654190E-009  0.1345690E+03  0.7561462E-02  0.1220829E+00
         -2   -1    0    0    0  501 -0.00000000000E+00  0.00000000000E+00  0.29327088951E+02  0.29327088951E+02  0.00000000000E+00 0.  1.
          2   -1    0    0  501    0  0.00000000000E+00 -0.00000000000E+00 -0.74740775623E+03  0.74740775623E+03  0.00000000000E+00 0. -1.
         25    2    1    2    0    0 -0.55289534333E+02  0.82961342434E+02 -0.36137407428E+03  0.39519313567E+03  0.12508747330E+03 0.  0.
         23    2    1    2    0    0  0.55289534333E+02 -0.82961342434E+02 -0.35670659300E+03  0.38154170951E+03  0.91624045206E+02 0.  0.
          5    1    3    3  502    0  0.20480137744E+02  0.51821214891E+02 -0.56449118857E+02  0.79428268107E+02  0.41800000000E+01 0.  1.
         -5    1    3    3    0  502 -0.75769672076E+02  0.31140127544E+02 -0.30492495542E+03  0.31576486757E+03  0.41800000000E+01 0.  1.
        -11    1    4    4    0    0  0.66093409168E+02 -0.22504594559E+02 -0.23597593443E+03  0.24608827104E+03  0.00000000000E+00 0.  1.
         11    1    4    4    0    0 -0.10803874835E+02 -0.60456747875E+02 -0.12073065857E+03  0.13545343847E+03  0.00000000000E+00 0. -1.
</event>
<event>
 8    1  0.3654190E-009  0.8923625E+02  0.7561462E-02  0.1304712E+00
         -1   -1    0    0    0  501 -0.00000000000E+00  0.00000000000E+00  0.16752883900E+03  0.16752883900E+03  0.00000000000E+00 0.  1.
          1   -1    0    0  501    0  0.00000000000E+00 -0.00000000000E+00 -0.71465859235E+02  0.71465859235E+02  0.00000000000E+00 0. -1.
         25    2    1    2    0    0  0.11934904290E+02  0.24528182928E+01  0.65356444722E+02  0.14164611317E+03  0.12507477064E+03 0.  0.
         23    2    1    2    0    0 -0.11934904290E+02 -0.24528182928E+01  0.30706535048E+02  0.97348585070E+02  0.91571815874E+02 0.  0.
          5    1    3    3  502    0 -0.29526010143E+02 -0.49813851326E+02  0.38185981166E+02  0.69489902983E+02  0.41800000000E+01 0. -1.
         -5    1    3    3    0  502  0.41460914432E+02  0.52266669619E+02  0.27170463556E+02  0.72156210187E+02  0.41800000000E+01 0. -1.
        -11    1    4    4    0    0 -0.80483189618E+01  0.24783466273E+02 -0.24436645382E+02  0.35723175616E+02  0.00000000000E+00 0. -1.
         11    1    4    4    0    0 -0.38865853278E+01 -0.27236284566E+02  0.55143180430E+02  0.61625409454E+02  0.00000000000E+00 0.  1.
</event>
<event>
 8    1  0.3654190E-009  0.1030940E+03  0.7561462E-02  0.1273921E+00
          2   -1    0    0  501    0  0.00000000000E+00  0.00000000000E+00  0.79979513977E+03  0.79979513977E+03  0.00000000000E+00 0. -1.
         -2   -1    0    0    0  501 -0.00000000000E+00 -0.00000000000E+00 -0.20202659083E+02  0.20202659083E+02  0.00000000000E+00 0.  1.
         25    2    1    2    0    0 -0.77592642517E+01  0.24691878519E+02  0.63124832962E+03  0.64404336486E+03  0.12508999611E+03 0.  0.
         23    2    1    2    0    0  0.77592642517E+01 -0.24691878519E+02  0.14834415107E+03  0.17595443399E+03  0.91016925014E+02 0.  0.
          5    1    3    3  502    0  0.50259868982E+02  0.79091532366E+01  0.13885192478E+03  0.14793896900E+03  0.41800000000E+01 0. -1.
         -5    1    3    3    0  502 -0.58019133234E+02  0.16782725282E+02  0.49239640484E+03  0.49610439586E+03  0.41800000000E+01 0. -1.
        -11    1    4    4    0    0  0.49501526853E+02 -0.15276323570E+02  0.83417277781E+02  0.98194752686E+02  0.00000000000E+00 0.  1.
         11    1    4    4    0    0 -0.41742262602E+02 -0.94155549491E+01  0.64926873285E+02  0.77759681305E+02  0.00000000000E+00 0. -1.
</event>
<event>
 8    1  0.3654190E-009  0.9715005E+02  0.7561462E-02  0.1286406E+00
         -1   -1    0    0    0  501 -0.00000000000E+00  0.00000000000E+00  0.84468614165E+02  0.84468614165E+02  0.00000000000E+00 0.  1.
          1   -1    0    0  501    0  0.00000000000E+00 -0.00000000000E+00 -0.25941996101E+03  0.25941996101E+03  0.00000000000E+00 0. -1.
         25    2    1    2    0    0  0.45251213225E+02 -0.69788826655E+02 -0.15661872185E+03  0.21701276991E+03  0.12508783172E+03 0.  0.
         23    2    1    2    0    0 -0.45251213225E+02  0.69788826655E+02 -0.18332624991E+02  0.12687580527E+03  0.94038461278E+02 0.  0.
          5    1    3    3  502    0 -0.63043083273E+01 -0.76613825422E+01 -0.13209626500E+03  0.13253428504E+03  0.41800000000E+01 0. -1.
         -5    1    3    3    0  502  0.51555521552E+02 -0.62127444113E+02 -0.24522456857E+02  0.84478484863E+02  0.41800000000E+01 0. -1.
        -11    1    4    4    0    0 -0.43008246132E+02  0.11714357771E+02 -0.44636968444E+02  0.63082441022E+02  0.00000000000E+00 0. -1.
         11    1    4    4    0    0 -0.22429670925E+01  0.58074468884E+02  0.26304343453E+02  0.63793364247E+02  0.00000000000E+00 0.  1.
</event>
<event>
 8    1  0.3654190E-009  0.1086207E+03  0.7561462E-02  0.1263146E+00
          3   -1    0    0  501    0  0.00000000000E+00  0.00000000000E+00  0.10658631609E+03  0.10658631609E+03  0.00000000000E+00 0. -1.
         -3   -1    0    0    0  501 -0.00000000000E+00 -0.00000000000E+00 -0.13077215580E+03  0.13077215580E+03  0.00000000000E+00 0.  1.
         25    2    1    2    0    0 -0.30065671528E+02 -0.80726925358E+01 -0.49016126904E+02  0.13791305137E+03  0.12509322952E+03 0.  0.
         23    2    1    2    0    0  0.30065671528E+02  0.80726925358E+01  0.24830287196E+02  0.99445420520E+02  0.91124834874E+02 0.  0.
          5    1    3    3  502    0  0.83025771743E+01  0.54319856308E+02 -0.26646578538E+02  0.61213496263E+02  0.41800000000E+01 0.  1.
         -5    1    3    3    0  502 -0.38368248702E+02 -0.62392548843E+02 -0.22369548366E+02  0.76699555108E+02  0.41800000000E+01 0.  1.
        -11    1    4    4    0    0  0.55104950810E+02 -0.12330383229E+02 -0.33692962637E+01  0.56568066183E+02  0.00000000000E+00 0.  1.
         11    1    4    4    0    0 -0.25039279282E+02  0.20403075765E+02  0.28199583460E+02  0.42877354337E+02  0.00000000000E+00 0. -1.
</event>
<event>
 8    1  0.3654190E-009  0.1780758E+03  0.7561462E-02  0.1169678E+00
         -1   -1    0    0    0  501 -0.00000000000E+00  0.00000000000E+00  0.75290363463E+02  0.75290363463E+02  0.00000000000E+00 0.  1.
          1   -1    0    0  501    0  0.00000000000E+00 -0.00000000000E+00 -0.90522327150E+03  0.90522327150E+03  0.00000000000E+00 0. -1.
         25    2    1    2    0    0  0.13236167447E+03 -0.62326537478E+02 -0.77967052745E+03  0.80308051622E+03  0.12509186228E+03 0.  0.
         23    2    1    2    0    0 -0.13236167447E+03  0.62326537478E+02 -0.50262380585E+02  0.17743311875E+03  0.86902212772E+02 0.  0.
          5    1    3    3  502    0  0.15134518434E+03 -0.37208295587E+02 -0.70320824848E+03  0.72028406564E+03  0.41800000000E+01 0.  1.
         -5    1    3    3    0  502 -0.18983509871E+02 -0.25118241891E+02 -0.76462278975E+02  0.82796450580E+02  0.41800000000E+01 0.  1.
        -11    1    4    4    0    0 -0.12369432689E+03  0.20028253933E+02 -0.26240299285E+02  0.12802332119E+03  0.00000000000E+00 0. -1.
         11    1    4    4    0    0 -0.86673475713E+01  0.42298283545E+02 -0.24022081300E+02  0.49409797558E+02  0.00000000000E+00 0.  1.
</event>
<event>
 8    1  0.3654190E-009  0.9576215E+02  0.7561462E-02  0.1289469E+00
          2   -1    0    0  501    0  0.00000000000E+00  0.00000000000E+00  0.29819281347E+02  0.29819281347E+02  0.00000000000E+00 0. -1.
         -2   -1    0    0    0  501 -0.00000000000E+00 -0.00000000000E+00 -0.48959679756E+03  0.48959679756E+03  0.00000000000E+00 0.  1.
         25    2    1    2    0    0  0.21066653525E+01 -0.28273546781E+02 -0.35591859082E+03  0.37832454573E+03  0.12509031586E+03 0.  0.
         23    2    1    2    0    0 -0.21066653525E+01  0.28273546781E+02 -0.10385892540E+03  0.14109153319E+03  0.91193820325E+02 0.  0.
          5    1    3    3  502    0 -0.23527778524E+01 -0.77546285869E+02 -0.19454366572E+03  0.20948430081E+03  0.41800000000E+01 0. -1.
         -5    1    3    3    0  502  0.44594432049E+01  0.49272739088E+02 -0.16137492510E+03  0.16884024491E+03  0.41800000000E+01 0. -1.
        -11    1    4    4    0    0  0.23790219601E+02  0.29925725851E+02 -0.10822360629E+03  0.11477749159E+03  0.00000000000E+00 0.  1.
         11    1    4    4    0    0 -0.25896884953E+02 -0.16521790707E+01  0.43646808933E+01  0.26314041599E+02  0.00000000000E+00 0. -1.
</event>
<event>
 8    1  0.3654190E-009  0.3261681E+03  0.7561462E-02  0.1072845E+00
         -1   -1    0    0    0  501 -0.00000000000E+00  0.00000000000E+00  0.30161213615E+03  0.30161213615E+03  0.00000000000E+00 0.  1.
          1   -1    0    0  501    0  0.00000000000E+00 -0.00000000000E+00 -0.40937810421E+03  0.40937810421E+03  0.00000000000E+00 0. -1.
         25    2    1    2    0    0  0.24497817931E+03 -0.20205647600E+03  0.49663832791E+02  0.34489855720E+03  0.12508953051E+03 0.  0.
         23    2    1    2    0    0 -0.24497817931E+03  0.20205647600E+03 -0.15742980086E+03  0.36609168316E+03  0.91639786399E+02 0.  0.
          5    1    3    3  502    0  0.20848946449E+03 -0.19762179775E+03  0.55832211370E+01  0.28735148600E+03  0.41800000000E+01 0. -1.
         -5    1    3    3    0  502  0.36488714818E+02 -0.44346782488E+01  0.44080611654E+02  0.57547071203E+02  0.41800000000E+01 0.  1.
        -11    1    4    4    0    0 -0.11374789286E+03  0.14666054904E+03 -0.66778335080E+02  0.19724919724E+03  0.00000000000E+00 0.  1.
         11    1    4    4    0    0 -0.13123028644E+03  0.55395926954E+02 -0.90651465778E+02  0.16884248592E+03  0.00000000000E+00 0. -1.
</event>
<event>
 8    1  0.3654190E-009  0.9202672E+02  0.7561462E-02  0.1298017E+00
         -2   -1    0    0    0  501 -0.00000000000E+00  0.00000000000E+00  0.15953835930E+03  0.15953835930E+03  0.00000000000E+00 0. -1.
          2   -1    0    0  501    0  0.00000000000E+00 -0.00000000000E+00 -0.82172876361E+02  0.82172876361E+02  0.00000000000E+00 0.  1.
         25    2    1    2    0    0  0.28313526854E+02  0.66811080307E+01  0.21078658617E+02  0.13014504592E+03  0.12508848917E+03 0.  0.
         23    2    1    2    0    0 -0.28313526854E+02 -0.66811080307E+01  0.56286824322E+02  0.11156618974E+03  0.91828726948E+02 0.  0.
          5    1    3    3  502    0  0.35729516983E+02  0.44613182485E+02 -0.30999852946E+02  0.65156716599E+02  0.41800000000E+01 0. -1.
         -5    1    3    3    0  502 -0.74159901286E+01 -0.37932074454E+02  0.52078511563E+02  0.64988329326E+02  0.41800000000E+01 0. -1.
        -11    1    4    4    0    0 -0.70883402307E+00 -0.42578327012E+02  0.45747639464E+01  0.42829252177E+02  0.00000000000E+00 0.  1.
         11    1    4    4    0    0 -0.27604692831E+02  0.35897218982E+02  0.51712060376E+02  0.68736937561E+02  0.00000000000E+00 0. -1.
</event>
<event>
 8    1  0.3654190E-009  0.5433337E+02  0.7561462E-02  0.1423278E+00
         -1   -1    0    0    0  501 -0.00000000000E+00  0.00000000000E+00  0.33170501938E+02  0.33170501938E+02  0.00000000000E+00 0.  1.
          1   -1    0    0  501    0  0.00000000000E+00 -0.00000000000E+00 -0.93856285907E+03  0.93856285907E+03  0.00000000000E+00 0. -1.
         25    2    1    2    0    0  0.32286871142E+02 -0.21984884922E+02 -0.84769266518E+03  0.85776221998E+03  0.12508954478E+03 0.  0.
         23    2    1    2    0    0 -0.32286871142E+02  0.21984884922E+02 -0.57699691954E+02  0.11397114103E+03  0.90190849441E+02 0.  0.
          5    1    3    3  502    0  0.31821379127E+02 -0.17684463837E+02 -0.61806383551E+02  0.71852918371E+02  0.41800000000E+01 0.  1.
         -5    1    3    3    0  502  0.46549201479E+00 -0.43004210859E+01 -0.78588628163E+03  0.78590930161E+03  0.41800000000E+01 0.  1.
        -11    1    4    4    0    0 -0.46072784251E+02  0.87495223122E+01  0.61729534182E+01  0.47300749922E+02  0.00000000000E+00 0.  1.
         11    1    4    4    0    0  0.13785913109E+02  0.13235362610E+02 -0.63872645372E+02  0.66670391108E+02  0.00000000000E+00 0. -1.
</event>
<event>
 8    1  0.3654190E-009  0.1119269E+03  0.7561462E-02  0.1257043E+00
          2   -1    0    0  501    0  0.00000000000E+00  0.00000000000E+00  0.50378672965E+03  0.50378672965E+03  0.00000000000E+00 0. -1.
         -2   -1    0    0    0  501 -0.00000000000E+00 -0.00000000000E+00 -0.30764980526E+02  0.30764980526E+02  0.00000000000E+00 0.  1.
         25    2    1    2    0    0 -0.42831496158E+02 -0.38305015888E+02  0.31443795262E+03  0.34324844683E+03  0.12508580612E+03 0.  0.
         23    2    1    2    0    0  0.42831496158E+02  0.38305015888E+02  0.15858379650E+03  0.19130326335E+03  0.90256893091E+02 0.  0.
          5    1    3    3  502    0  0.41298462924E+02 -0.14226436008E+02  0.61354901115E+02  0.75431099768E+02  0.41800000000E+01 0. -1.
         -5    1    3    3    0  502 -0.84129959082E+02 -0.24078579880E+02  0.25308305151E+03  0.26781734706E+03  0.41800000000E+01 0. -1.
        -11    1    4    4    0    0  0.10090535506E+02  0.54788787610E+02  0.13898902808E+03  0.14973837210E+03  0.00000000000E+00 0. -1.
         11    1    4    4    0    0  0.32740960653E+02 -0.16483771722E+02  0.19594768421E+02  0.41564891244E+02  0.00000000000E+00 0.  1.
</event>
<event>
 8    1  0.3654190E-009  0.9181760E+02  0.7561462E-02  0.1298509E+00
         -1   -1    0    0    0  501 -0.00000000000E+00  0.00000000000E+00  0.47544477505E+03  0.47544477505E+03  0.00000000000E+00 0.  1.
          1   -1    0    0  501    0  0.00000000000E+00 -0.00000000000E+00 -0.28465196829E+02  0.28465196829E+02  0.00000000000E+00 0. -1.
         25    2    1    2    0    0  0.20124272256E+02 -0.35036608443E+02  0.26537056567E+03  0.29614396931E+03  0.12508862127E+03 0.  0.
         23    2    1    2    0    0 -0.20124272256E+02  0.35036608443E+02  0.18160901255E+03  0.20776600257E+03  0.92478798208E+02 0.  0.
          5    1    3    3  502    0  0.16950968473E+02 -0.82180881088E+02  0.16883550167E+03  0.18858401728E+03  0.41800000000E+01 0.  1.
         -5    1    3    3    0  502  0.31733037831E+01  0.47144272645E+02  0.96535064000E+02  0.10755995203E+03  0.41800000000E+01 0.  1.
        -11    1    4    4    0    0 -0.28634420130E+02  0.20069045193E+02  0.18659325089E+03  0.18984134920E+03  0.00000000000E+00 0.  1.
         11    1    4    4    0    0  0.85101478736E+01  0.14967563250E+02 -0.49842383343E+01  0.17924653364E+02  0.00000000000E+00 0. -1.
</event>
<event>
 8    1  0.3654190E-009  0.1330670E+03  0.7561462E-02  0.1222974E+00
         -1   -1    0    0    0  501 -0.00000000000E+00  0.00000000000E+00  0.38100740869E+03  0.38100740869E+03  0.00000000000E+00 0.  1.
          1   -1    0    0  501    0  0.00000000000E+00 -0.00000000000E+00 -0.61106756460E+02  0.61106756460E+02  0.00000000000E+00 0. -1.
         25    2    1    2    0    0  0.80033497861E+02 -0.63744984368E+02  0.21747729153E+03  0.27094756277E+03  0.12508967034E+03 0.  0.
         23    2    1    2    0    0 -0.80033497861E+02  0.63744984368E+02  0.10242336070E+03  0.17116660239E+03  0.91316357478E+02 0.  0.
          5    1    3    3  502    0 -0.24255623483E+02  0.15016554651E+02  0.24455562601E+02  0.37807130627E+02  0.41800000000E+01 0. -1.
         -5    1    3    3    0  502  0.10428912134E+03 -0.78761539018E+02  0.19302172893E+03  0.23314043214E+03  0.41800000000E+01 0. -1.
        -11    1    4    4    0    0 -0.79519001481E+02  0.52494031216E+02  0.11817462323E+03  0.15180295282E+03  0.00000000000E+00 0.  1.
         11    1    4    4    0    0 -0.51449638091E+00  0.11250953152E+02 -0.15751262527E+02  0.19363649567E+02  0.00000000000E+00 0. -1.
</event>
<event>
 8    1  0.3654190E-009  0.1268202E+03  0.7561462E-02  0.1232252E+00
         -2   -1    0    0    0  501 -0.00000000000E+00  0.00000000000E+00  0.76499815422E+02  0.76499815422E+02  0.00000000000E+00 0.  1.
          2   -1    0    0  501    0  0.00000000000E+00 -0.00000000000E+00 -0.23822351124E+03  0.23822351124E+03  0.00000000000E+00 0. -1.
         25    2    1    2    0    0 -0.65766711957E+02 -0.44746036393E+02 -0.93411756184E+02  0.17521669223E+03  0.12509062662E+03 0.  0.
         23    2    1    2    0    0  0.65766711957E+02  0.44746036393E+02 -0.68311939633E+02  0.13950663443E+03  0.92022343917E+02 0.  0.
          5    1    3    3  502    0 -0.94570044887E+02 -0.39913982016E+02 -0.10171363648E+03  0.14456747766E+03  0.41800000000E+01 0.  1.
         -5    1    3    3    0  502  0.28803332930E+02 -0.48320543762E+01  0.83018802947E+01  0.30649214571E+02  0.41800000000E+01 0.  1.
        -11    1    4    4    0    0  0.68758856570E+02 -0.74146111172E+01 -0.34620192962E+02  0.77338958976E+02  0.00000000000E+00 0.  1.
         11    1    4    4    0    0 -0.29921446125E+01  0.52160647510E+02 -0.33691746671E+02  0.62167675457E+02  0.00000000000E+00 0. -1.
</event>
<event>
 8    1  0.3654190E-009  0.1355572E+03  0.7561462E-02  0.1219435E+00
          2   -1    0    0  501    0  0.00000000000E+00  0.00000000000E+00  0.68623366629E+03  0.68623366629E+03  0.00000000000E+00 0. -1.
         -2   -1    0    0    0  501 -0.00000000000E+00 -0.00000000000E+00 -0.29959120199E+02  0.29959120199E+02  0.00000000000E+00 0.  1.
         25    2    1    2    0    0  0.89868667906E+02  0.28865359565E+01  0.29134087335E+03  0.32956373792E+03  0.12509213926E+03 0.  0.
         23    2    1    2    0    0 -0.89868667906E+02 -0.28865359565E+01  0.36493367274E+03  0.38662904857E+03  0.90668220099E+02 0.  0.
          5    1    3    3  502    0 -0.13074101022E+02 -0.40116624550E+02  0.82071349099E+02  0.92376698500E+02  0.41800000000E+01 0. -1.
         -5    1    3    3    0  502  0.10294276893E+03  0.43003160507E+02  0.20926952425E+03  0.23718703942E+03  0.41800000000E+01 0. -1.
        -11    1    4    4    0    0 -0.96143406710E+02  0.15734680685E+02  0.34557547895E+03  0.35904532650E+03  0.00000000000E+00 0. -1.
         11    1    4    4    0    0  0.62747388038E+01 -0.18621216642E+02  0.19358193789E+02  0.27583722067E+02  0.00000000000E+00 0.  1.
</event>
<event>
 8    1  0.3654190E-009  0.1690556E+03  0.7561462E-02  0.1178836E+00
         -1   -1    0    0    0  501 -0.00000000000E+00  0.00000000000E+00  0.39703214705E+02  0.39703214705E+02  0.00000000000E+00 0.  1.
          1   -1    0    0  501    0  0.00000000000E+00 -0.00000000000E+00 -0.89271837429E+03  0.89271837429E+03  0.00000000000E+00 0. -1.
         25    2    1    2    0    0  0.46307213031E+02  0.13207214043E+03 -0.60534220184E+03  0.63377753615E+03  0.12508947094E+03 0.  0.
         23    2    1    2    0    0 -0.46307213031E+02 -0.13207214043E+03 -0.24767295775E+03  0.29864405285E+03  0.90878864683E+02 0.  0.
          5    1    3    3  502    0 -0.29697478324E+02 -0.73050518641E+00 -0.16199591331E+03  0.16475018114E+03  0.41800000000E+01 0. -1.
         -5    1    3    3    0  502  0.76004691355E+02  0.13280264562E+03 -0.44334628853E+03  0.46902735500E+03  0.41800000000E+01 0. -1.
        -11    1    4    4    0    0  0.16876782479E+02 -0.39576500152E+02 -0.12655045837E+03  0.13366429465E+03  0.00000000000E+00 0. -1.
         11    1    4    4    0    0 -0.63183995510E+02 -0.92495640283E+02 -0.12112249938E+03  0.16497975820E+03  0.00000000000E+00 0.  1.
</event>
<event>
 8    1  0.3654190E-009  0.1339262E+03  0.7561462E-02  0.1221744E+00
          2   -1    0    0  501    0  0.00000000000E+00  0.00000000000E+00  0.19114664514E+03  0.19114664514E+03  0.00000000000E+00 0. -1.
         -2   -1    0    0    0  501 -0.00000000000E+00 -0.00000000000E+00 -0.19482582514E+03  0.19482582514E+03  0.00000000000E+00 0.  1.
         25    2    1    2    0    0  0.92794784343E+02 -0.59597550147E+02  0.11246520510E+03  0.20114651566E+03  0.12509499758E+03 0.  0.
         23    2    1    2    0    0 -0.92794784343E+02  0.59597550147E+02 -0.11614438509E+03  0.18482595462E+03  0.92240854975E+02 0.  0.
          5    1    3    3  502    0  0.96304149943E+02 -0.34955938986E+02  0.18935032295E+02  0.10427087232E+03  0.41800000000E+01 0.  1.
         -5    1    3    3    0  502 -0.35093656003E+01 -0.24641611161E+02  0.93530172807E+02  0.96875643342E+02  0.41800000000E+01 0.  1.
        -11    1    4    4    0    0 -0.10141243279E+03  0.25036577155E+02 -0.66878511989E+02  0.12403244368E+03  0.00000000000E+00 0. -1.
         11    1    4    4    0    0  0.86176484475E+01  0.34560972992E+02 -0.49265873104E+02  0.60793510934E+02  0.00000000000E+00 0.  1.
</event>
<event>
 8    1  0.3654190E-009  0.7670249E+02  0.7561462E-02  0.1338679E+00
          1   -1    0    0  501    0  0.00000000000E+00  0.00000000000E+00  0.19495368416E+03  0.19495368416E+03  0.00000000000E+00 0. -1.
         -1   -1    0    0    0  501 -0.00000000000E+00 -0.00000000000E+00 -0.63046336198E+02  0.63046336198E+02  0.00000000000E+00 0.  1.
         25    2    1    2    0    0 -0.31592392815E+01  0.52732322434E+00  0.88033768259E+02  0.15299452641E+03  0.12508845628E+03 0.  0.
         23    2    1    2    0    0  0.31592392815E+01 -0.52732322434E+00  0.43873579705E+02  0.10500549395E+03  0.95346756113E+02 0.  0.
          5    1    3    3  502    0 -0.12807736866E+02  0.48669879234E+02 -0.18007585371E+01  0.50532270873E+02  0.41800000000E+01 0. -1.
         -5    1    3    3    0  502  0.96484975841E+01 -0.48142556010E+02  0.89834526796E+02  0.10246225554E+03  0.41800000000E+01 0. -1.
        -11    1    4    4    0    0 -0.33594941788E+01  0.26048213554E+02  0.65214211618E+02  0.70304260379E+02  0.00000000000E+00 0. -1.
         11    1    4    4    0    0  0.65187334603E+01 -0.26575536778E+02 -0.21340631913E+02  0.34701233572E+02  0.00000000000E+00 0.  1.
</event>
<event>
 8    1  0.3654190E-009  0.2775133E+03  0.7561462E-02  0.1097055E+00
         -1   -1    0    0    0  501 -0.00000000000E+00  0.00000000000E+00  0.12341210396E+04  0.12341210396E+04  0.00000000000E+00 0.  1.
          1   -1    0    0  501    0  0.00000000000E+00 -0.00000000000E+00 -0.66645932801E+02  0.66645932801E+02  0.00000000000E+00 0. -1.
         25    2    1    2    0    0  0.24367921121E+03 -0.90375185756E+02  0.47802130115E+03  0.55829920034E+03  0.12508557300E+03 0.  0.
         23    2    1    2    0    0 -0.24367921121E+03  0.90375185756E+02  0.68945380570E+03  0.74246777211E+03  0.91458243250E+02 0.  0.
          5    1    3    3  502    0  0.25548515030E+03 -0.72902891409E+02  0.42688199550E+03  0.50282522220E+03  0.41800000000E+01 0.  1.
         -5    1    3    3    0  502 -0.11805939099E+02 -0.17472294347E+02  0.51139305654E+02  0.55473978139E+02  0.41800000000E+01 0.  1.
        -11    1    4    4    0    0 -0.23238753467E+03  0.99986830057E+02  0.67821174934E+03  0.72385945418E+03  0.00000000000E+00 0.  1.
         11    1    4    4    0    0 -0.11291676539E+02 -0.96116443016E+01  0.11242056352E+02  0.18608317932E+02  0.00000000000E+00 0. -1.
</event>
<event>
 8    1  0.3654190E-009  0.1337754E+03  0.7561462E-02  0.1221959E+00
          3   -1    0    0  501    0  0.00000000000E+00  0.00000000000E+00  0.12517524825E+03  0.12517524825E+03  0.00000000000E+00 0. -1.
         -3   -1    0    0    0  501 -0.00000000000E+00 -0.00000000000E+00 -0.18603483454E+03  0.18603483454E+03  0.00000000000E+00 0.  1.
         25    2    1    2    0    0 -0.58503078457E+02  0.73530412804E+02 -0.85140919637E+02  0.17812116920E+03  0.12509533535E+03 0.  0.
         23    2    1    2    0    0  0.58503078457E+02 -0.73530412804E+02  0.24281333354E+02  0.13308891359E+03  0.91069994914E+02 0.  0.
          5    1    3    3  502    0 -0.85409231253E+02  0.10754847591E+02 -0.33802468030E+02  0.92576901951E+02  0.41800000000E+01 0. -1.
         -5    1    3    3    0  502  0.26906152796E+02  0.62775565214E+02 -0.51338451607E+02  0.85544267252E+02  0.41800000000E+01 0. -1.
        -11    1    4    4    0    0  0.70652065189E+02 -0.71686344024E+02 -0.55722616770E+01  0.10080523962E+03  0.00000000000E+00 0.  1.
         11    1    4    4    0    0 -0.12148986732E+02 -0.18440687800E+01  0.29853595031E+02  0.32283673963E+02  0.00000000000E+00 0. -1.
</event>
<event>
 8    1  0.3654190E-009  0.9516636E+02  0.7561462E-02  0.1290802E+00
          1   -1    0    0  501    0  0.00000000000E+00  0.00000000000E+00  0.31262151124E+03  0.31262151124E+03  0.00000000000E+00 0. -1.
         -1   -1    0    0    0  501 -0.00000000000E+00 -0.00000000000E+00 -0.36921475742E+02  0.36921475742E+02  0.00000000000E+00 0.  1.
         25    2    1    2    0    0 -0.18605402944E+02  0.13256422787E+02  0.15027207266E+03  0.19685676600E+03  0.12509595012E+03 0.  0.
         23    2    1    2    0    0  0.18605402944E+02 -0.13256422787E+02  0.12542796284E+03  0.15268622098E+03  0.84017941248E+02 0.  0.
          5    1    3    3  502    0  0.41526253652E+01 -0.53947801470E+02  0.48899242789E+02  0.73049421121E+02  0.41800000000E+01 0. -1.
         -5    1    3    3    0  502 -0.22758028309E+02  0.67204224257E+02  0.10137282987E+03  0.12380734488E+03  0.41800000000E+01 0. -1.
        -11    1    4    4    0    0  0.14786746192E+02 -0.37570652425E+02  0.12115516141E+03  0.12770581397E+03  0.00000000000E+00 0. -1.
         11    1    4    4    0    0  0.38186567522E+01  0.24314229637E+02  0.42728014320E+01  0.24980407009E+02  0.00000000000E+00 0.  1.
</event>
<event>
 8    1  0.3654190E-009  0.1042685E+03  0.7561462E-02  0.1271568E+00
         -2   -1    0    0    0  501 -0.00000000000E+00  0.00000000000E+00  0.13586333172E+03  0.13586333172E+03  0.00000000000E+00 0.  1.
          2   -1    0    0  501    0  0.00000000000E+00 -0.00000000000E+00 -0.12509507149E+03  0.12509507149E+03  0.00000000000E+00 0. -1.
         25    2    1    2    0    0 -0.82186331437E+01 -0.71959489780E+02 -0.24205873469E+01  0.14455979256E+03  0.12508381303E+03 0.  0.
         23    2    1    2    0    0  0.82186331437E+01  0.71959489780E+02  0.13188847577E+02  0.11639861065E+03  0.90160838286E+02 0.  0.
          5    1    3    3  502    0  0.14426348175E+02  0.31760594161E+01 -0.50264219599E+02  0.52556360671E+02  0.41800000000E+01 0.  1.
         -5    1    3    3    0  502 -0.22644981319E+02 -0.75135549196E+02  0.47843632252E+02  0.92003431887E+02  0.41800000000E+01 0.  1.
        -11    1    4    4    0    0 -0.26308933809E+02 -0.80048343917E+01  0.99292542505E+01  0.29237432544E+02  0.00000000000E+00 0. -1.
         11    1    4    4    0    0  0.34527566953E+02  0.79964324172E+02  0.32595933262E+01  0.87161178105E+02  0.00000000000E+00 0.  1.
</event>
<event>
 8    1  0.3654190E-009  0.1366749E+03  0.7561462E-02  0.1217874E+00
          1   -1    0    0  501    0  0.00000000000E+00  0.00000000000E+00  0.17228576015E+04  0.17228576015E+04  0.00000000000E+00 0. -1.
         -1   -1    0    0    0  501 -0.00000000000E+00 -0.00000000000E+00 -0.23226677557E+02  0.23226677557E+02  0.00000000000E+00 0.  1.
         25    2    1    2    0    0  0.69563758561E+02 -0.59214638647E+02  0.14888446525E+04  0.14968805167E+04  0.12508953549E+03 0.  0.
         23    2    1    2    0    0 -0.69563758561E+02  0.59214638647E+02  0.21078627140E+03  0.24920376238E+03  0.96572113132E+02 0.  0.
          5    1    3    3  502    0  0.36221152594E+02 -0.89179506536E+02  0.68091839385E+03  0.68770072544E+03  0.41800000000E+01 0. -1.
         -5    1    3    3    0  502  0.33342605967E+02  0.29964867889E+02  0.80792625868E+03  0.80917979123E+03  0.41800000000E+01 0. -1.
        -11    1    4    4    0    0 -0.71045883894E+02  0.82371087455E+02  0.16134993514E+03  0.19459269060E+03  0.00000000000E+00 0. -1.
         11    1    4    4    0    0  0.14821253337E+01 -0.23156448807E+02  0.49436336265E+02  0.54611071773E+02  0.00000000000E+00 0.  1.
</event>
<event>
 8    1  0.3654190E-009  0.1017799E+03  0.7561462E-02  0.1276597E+00
          2   -1    0    0  501    0  0.00000000000E+00  0.00000000000E+00  0.34474118018E+03  0.34474118018E+03  0.00000000000E+00 0. -1.
         -2   -1    0    0    0  501 -0.00000000000E+00 -0.00000000000E+00 -0.74908533632E+02  0.74908533632E+02  0.00000000000E+00 0.  1.
         25    2    1    2    0    0  0.22348357270E+02  0.77713760840E+02  0.25641530211E+03  0.29654264737E+03  0.12509938792E+03 0.  0.
         23    2    1    2    0    0 -0.22348357270E+02 -0.77713760840E+02  0.13417344433E+02  0.12310706643E+03  0.91850133248E+02 0.  0.
          5    1    3    3  502    0  0.34486014104E+02  0.92626814373E+02  0.25847346767E+03  0.27675804921E+03  0.41800000000E+01 0. -1.
         -5    1    3    3    0  502 -0.12137656835E+02 -0.14913053533E+02 -0.20581655637E+01  0.19784598166E+02  0.41800000000E+01 0. -1.
        -11    1    4    4    0    0  0.35568740058E+01 -0.33679267857E+02 -0.37809012773E+02  0.50758899544E+02  0.00000000000E+00 0.  1.
         11    1    4    4    0    0 -0.25905231276E+02 -0.44034492983E+02  0.51226357206E+02  0.72348166890E+02  0.00000000000E+00 0. -1.
</event>
<event>
 8    1  0.3654190E-009  0.2217592E+03  0.7561462E-02  0.1132578E+00
          1   -1    0    0  501    0  0.00000000000E+00  0.00000000000E+00  0.50017304632E+03  0.50017304632E+03  0.00000000000E+00 0. -1.
         -1   -1    0    0    0  501 -0.00000000000E+00 -0.00000000000E+00 -0.11710658903E+03  0.11710658903E+03  0.00000000000E+00 0.  1.
         25    2    1    2    0    0  0.16654910267E+03 -0.10344010341E+03  0.31412698833E+03  0.39084986814E+03  0.12509754606E+03 0.  0.
         23    2    1    2    0    0 -0.16654910267E+03  0.10344010341E+03  0.68939468957E+02  0.22642976721E+03  0.89885096108E+02 0.  0.
          5    1    3    3  502    0  0.18118697092E+03 -0.11025250275E+03  0.30588553084E+03  0.37224691157E+03  0.41800000000E+01 0. -1.
         -5    1    3    3    0  502 -0.14637868249E+02  0.68123993378E+01  0.82414574906E+01  0.18602956571E+02  0.41800000000E+01 0. -1.
        -11    1    4    4    0    0 -0.63958600359E+02  0.91192042339E+02  0.46500889904E+02  0.12070221169E+03  0.00000000000E+00 0. -1.
         11    1    4    4    0    0 -0.10259050231E+03  0.12248061074E+02  0.22438579053E+02  0.10572755551E+03  0.00000000000E+00 0.  1.
</event>
<event>
 8    1  0.3654190E-009  0.6547319E+02  0.7561462E-02  0.1376200E+00
         -2   -1    0    0    0  501 -0.00000000000E+00  0.00000000000E+00  0.39135016140E+02  0.39135016140E+02  0.00000000000E+00 0.  1.
          2   -1    0    0  501    0  0.00000000000E+00 -0.00000000000E+00 -0.33007449229E+03  0.33007449229E+03  0.00000000000E+00 0. -1.
         25    2    1    2    0    0 -0.26893417669E+02 -0.35007227545E+01 -0.20695168721E+03  0.24333011740E+03  0.12508011120E+03 0.  0.
         23    2    1    2    0    0  0.26893417669E+02  0.35007227545E+01 -0.83987788938E+02  0.12587939104E+03  0.89756121926E+02 0.  0.
          5    1    3    3  502    0 -0.43942888363E+02 -0.24105862844E+02 -0.21013920747E+03  0.21607412843E+03  0.41800000000E+01 0.  1.
         -5    1    3    3    0  502  0.17049470694E+02  0.20605140089E+02  0.31875202577E+01  0.27255988964E+02  0.41800000000E+01 0.  1.
        -11    1    4    4    0    0  0.45181126229E+01  0.23282566501E+02 -0.91958857403E+02  0.94968008821E+02  0.00000000000E+00 0. -1.
         11    1    4    4    0    0  0.22375305047E+02 -0.19781843746E+02  0.79710684654E+01  0.30911382215E+02  0.00000000000E+00 0.  1.
</event>
<event>
 8    1  0.3654190E-009  0.1093970E+03  0.7561462E-02  0.1261691E+00
         -2   -1    0    0    0  501 -0.00000000000E+00  0.00000000000E+00  0.14684720044E+03  0.14684720044E+03  0.00000000000E+00 0. -1.
          2   -1    0    0  501    0  0.00000000000E+00 -0.00000000000E+00 -0.21218213023E+03  0.21218213023E+03  0.00000000000E+00 0.  1.
         25    2    1    2    0    0 -0.57469299035E+02  0.17577043257E+02 -0.16158231403E+03  0.21299732848E+03  0.12508934788E+03 0.  0.
         23    2    1    2    0    0  0.57469299035E+02 -0.17577043257E+02  0.96247384240E+02  0.14603200219E+03  0.91924501135E+02 0.  0.
          5    1    3    3  502    0  0.10968919491E+02  0.57583668892E+02 -0.78828263858E+02  0.98323769765E+02  0.41800000000E+01 0. -1.
         -5    1    3    3    0  502 -0.68438218526E+02 -0.40006625635E+02 -0.82754050171E+02  0.11467355872E+03  0.41800000000E+01 0. -1.
        -11    1    4    4    0    0  0.26089497072E+02 -0.35843597722E+02  0.10014013556E+03  0.10951471182E+03  0.00000000000E+00 0. -1.
         11    1    4    4    0    0  0.31379801963E+02  0.18266554465E+02 -0.38927513163E+01  0.36517290371E+02  0.00000000000E+00 0.  1.
</event>
<event>
 8    1  0.3654190E-009  0.1143080E+03  0.7561462E-02  0.1252794E+00
         -1   -1    0    0    0  501 -0.00000000000E+00  0.00000000000E+00  0.27519769095E+02  0.27519769095E+02  0.00000000000E+00 0.  1.
          1   -1    0    0  501    0  0.00000000000E+00 -0.00000000000E+00 -0.67187137330E+03  0.67187137330E+03  0.00000000000E+00 0. -1.
         25    2    1    2    0    0  0.62477569489E+01 -0.63015902600E+02 -0.21374902159E+03  0.25562963184E+03  0.12509127067E+03 0.  0.
         23    2    1    2    0    0 -0.62477569489E+01  0.63015902600E+02 -0.43060258261E+03  0.44376151055E+03  0.86577454607E+02 0.  0.
          5    1    3    3  502    0  0.47799733887E+02 -0.63576721278E+02 -0.19342217912E+03  0.20918036672E+03  0.41800000000E+01 0.  1.
         -5    1    3    3    0  502 -0.41551976938E+02  0.56081867745E+00 -0.20326842473E+02  0.46449265118E+02  0.41800000000E+01 0.  1.
        -11    1    4    4    0    0  0.29566095573E+02 -0.53261621566E+01 -0.11384199157E+03  0.11773920781E+03  0.00000000000E+00 0.  1.
         11    1    4    4    0    0 -0.35813852522E+02  0.68342064757E+02 -0.31676059104E+03  0.32602230274E+03  0.00000000000E+00 0. -1.
</event>
<event>
 8    1  0.3654190E-009  0.1489341E+03  0.7561462E-02  0.1201789E+00
         -2   -1    0    0    0  501 -0.00000000000E+00  0.00000000000E+00  0.53795668755E+02  0.53795668755E+02  0.00000000000E+00 0.  1.
          2   -1    0    0  501    0  0.00000000000E+00 -0.00000000000E+00 -0.43504987092E+03  0.43504987092E+03  0.00000000000E+00 0. -1.
         25    2    1    2    0    0  0.10242807828E+03 -0.37841980082E+02 -0.20994239454E+03  0.26766880126E+03  0.12508897420E+03 0.  0.
         23    2    1    2    0    0 -0.10242807828E+03  0.37841980082E+02 -0.17131180762E+03  0.22117673841E+03  0.87452201280E+02 0.  0.
          5    1    3    3  502    0  0.21537875032E+02 -0.68179053750E+02 -0.55319153737E+02  0.90498312699E+02  0.41800000000E+01 0. -1.
         -5    1    3    3    0  502  0.80890203245E+02  0.30337073667E+02 -0.15462324081E+03  0.17717048856E+03  0.41800000000E+01 0. -1.
        -11    1    4    4    0    0 -0.24397121742E+02  0.54724607508E+02 -0.78451634148E+02  0.98715050102E+02  0.00000000000E+00 0. -1.
         11    1    4    4    0    0 -0.78030956534E+02 -0.16882627426E+02 -0.92860173471E+02  0.12246168831E+03  0.00000000000E+00 0.  1.
</event>
<event>
 8    1  0.3654190E-009  0.6720265E+02  0.7561462E-02  0.1369872E+00
          2   -1    0    0  501    0  0.00000000000E+00  0.00000000000E+00  0.10897080257E+03  0.10897080257E+03  0.00000000000E+00 0. -1.
         -2   -1    0    0    0  501 -0.00000000000E+00 -0.00000000000E+00 -0.15360905654E+03  0.15360905654E+03  0.00000000000E+00 0.  1.
         25    2    1    2    0    0  0.32056468770E+02  0.53663571881E+02  0.93049002572E+01  0.14014739236E+03  0.12508922527E+03 0.  0.
         23    2    1    2    0    0 -0.32056468770E+02 -0.53663571881E+02 -0.53943154224E+02  0.12243246675E+03  0.90401597825E+02 0.  0.
          5    1    3    3  502    0  0.25939013303E+02  0.42383899176E+02  0.65518263306E+02  0.82336763035E+02  0.41800000000E+01 0.  1.
         -5    1    3    3    0  502  0.61174554669E+01  0.11279672704E+02 -0.56213363048E+02  0.57810629325E+02  0.41800000000E+01 0.  1.
        -11    1    4    4    0    0 -0.39297153666E+02 -0.45992953177E+02 -0.76501367400E+02  0.97529878715E+02  0.00000000000E+00 0.  1.
         11    1    4    4    0    0  0.72406848964E+01 -0.76706187034E+01  0.22558213175E+02  0.24902588033E+02  0.00000000000E+00 0. -1.
</event>
<event>
 8    1  0.3654190E-009  0.3241261E+03  0.7561462E-02  0.1073766E+00
         -1   -1    0    0    0  501 -0.00000000000E+00  0.00000000000E+00  0.78997494254E+03  0.78997494254E+03  0.00000000000E+00 0.  1.
          1   -1    0    0  501    0  0.00000000000E+00 -0.00000000000E+00 -0.26685610314E+03  0.26685610314E+03  0.00000000000E+00 0. -1.
         25    2    1    2    0    0  0.17747604865E+03 -0.25838904389E+03  0.62902279823E+03  0.71384821735E+03  0.12508777266E+03 0.  0.
         23    2    1    2    0    0 -0.17747604865E+03  0.25838904389E+03 -0.10590395883E+03  0.34298282833E+03  0.90326774454E+02 0.  0.
          5    1    3    3  502    0  0.16234633454E+03 -0.13933013108E+03  0.35230648958E+03  0.41219722557E+03  0.41800000000E+01 0. -1.
         -5    1    3    3    0  502  0.15129714111E+02 -0.11905891281E+03  0.27671630865E+03  0.30165099178E+03  0.41800000000E+01 0. -1.
        -11    1    4    4    0    0 -0.92408686739E+02  0.15308001681E+03 -0.10548839643E+03  0.20760698137E+03  0.00000000000E+00 0. -1.
         11    1    4    4    0    0 -0.85067361912E+02  0.10530902708E+03 -0.41556239868E+00  0.13537584696E+03  0.00000000000E+00 0.  1.
</event>
<event>
 8    1  0.3654190E-009  0.1543939E+03  0.7561462E-02  0.1195175E+00
         -2   -1    0    0    0  501 -0.00000000000E+00  0.00000000000E+00  0.27318793715E+03  0.27318793715E+03  0.00000000000E+00 0.  1.
          2   -1    0    0  501    0  0.00000000000E+00 -0.00000000000E+00 -0.18336839509E+03  0.18336839509E+03  0.00000000000E+00 0. -1.
         25    2    1    2    0    0  0.13910890795E+03  0.63036446937E+02  0.17120117942E+03  0.26130845815E+03  0.12508950616E+03 0.  0.
         23    2    1    2    0    0 -0.13910890795E+03 -0.63036446937E+02 -0.81381637360E+02  0.19524787409E+03  0.90409510134E+02 0.  0.
          5    1    3    3  502    0  0.11745389285E+03  0.55881785554E+02  0.52440604789E+02  0.14030566750E+03  0.41800000000E+01 0.  1.
         -5    1    3    3    0  502  0.21655015103E+02  0.71546613828E+01  0.11876057463E+03  0.12100279065E+03  0.41800000000E+01 0.  1.
        -11    1    4    4    0    0 -0.75865288846E+02 -0.18427600160E+02  0.62648613241E+01  0.78322199834E+02  0.00000000000E+00 0.  1.
         11    1    4    4    0    0 -0.63243619106E+02 -0.44608846776E+02 -0.87646498684E+02  0.11692567425E+03  0.00000000000E+00 0. -1.
</event>
<event>
 8    1  0.3654190E-009  0.1435265E+03  0.7561462E-02  0.1208661E+00
         -1   -1    0    0    0  501 -0.00000000000E+00  0.00000000000E+00  0.30710160503E+02  0.30710160503E+02  0.00000000000E+00 0.  1.
          1   -1    0    0  501    0  0.00000000000E+00 -0.00000000000E+00 -0.88011256036E+03  0.88011256036E+03  0.00000000000E+00 0. -1.
         25    2    1    2    0    0  0.86094599624E+01 -0.11844516862E+03 -0.53224808678E+03  0.55950271229E+03  0.12510746744E+03 0.  0.
         23    2    1    2    0    0 -0.86094599624E+01  0.11844516862E+03 -0.31715431308E+03  0.35132000857E+03  0.93463946789E+02 0.  0.
          5    1    3    3  502    0 -0.32454464815E+02 -0.41932019218E+02 -0.38382518748E+03  0.38749301086E+03  0.41800000000E+01 0.  1.
         -5    1    3    3    0  502  0.41063924777E+02 -0.76513149402E+02 -0.14842289930E+03  0.17200970143E+03  0.41800000000E+01 0.  1.
        -11    1    4    4    0    0  0.37814937173E+02  0.35463178451E+02 -0.75066496779E+02  0.91228205276E+02  0.00000000000E+00 0.  1.
         11    1    4    4    0    0 -0.46424397135E+02  0.82981990168E+02 -0.24208781630E+03  0.26009180329E+03  0.00000000000E+00 0. -1.
</event>
<event>
 8    1  0.3654190E-009  0.1186556E+03  0.7561462E-02  0.1245332E+00
         -2   -1    0    0    0  501 -0.00000000000E+00  0.00000000000E+00  0.44252043715E+03  0.44252043715E+03  0.00000000000E+00 0.  1.
          2   -1    0    0  501    0  0.00000000000E+00 -0.00000000000E+00 -0.54438238816E+02  0.54438238816E+02  0.00000000000E+00 0. -1.
         25    2    1    2    0    0 -0.37130916149E+02  0.90087553076E+02  0.28999198030E+03  0.33051008796E+03  0.12508835860E+03 0.  0.
         23    2    1    2    0    0  0.37130916149E+02 -0.90087553076E+02  0.98090218042E+02  0.16644858800E+03  0.92676692969E+02 0.  0.
          5    1    3    3  502    0 -0.37469059325E+02  0.11152395378E+03  0.28463559899E+03  0.30802016052E+03  0.41800000000E+01 0. -1.
         -5    1    3    3    0  502  0.33814317625E+00 -0.21436400702E+02  0.53563813045E+01  0.22489927446E+02  0.41800000000E+01 0. -1.
        -11    1    4    4    0    0  0.10693069980E+02 -0.17693411208E+02  0.85982260798E+02  0.88432729901E+02  0.00000000000E+00 0.  1.
         11    1    4    4    0    0  0.26437846168E+02 -0.72394141868E+02  0.12107957244E+02  0.78015858103E+02  0.00000000000E+00 0. -1.
</event>
<event>
 8    1  0.3654190E-009  0.1040750E+03  0.7561462E-02  0.1271953E+00
          4   -1    0    0  501    0  0.00000000000E+00  0.00000000000E+00  0.50504469942E+03  0.50504469942E+03  0.00000000000E+00 0. -1.
         -4   -1    0    0    0  501 -0.00000000000E+00 -0.00000000000E+00 -0.25557921692E+02  0.25557921692E+02  0.00000000000E+00 0.  1.
         25    2    1    2    0    0  0.80405028576E+01  0.59749850828E+01  0.19787414468E+03  0.23431273566E+03  0.12509168969E+03 0.  0.
         23    2    1    2    0    0 -0.80405028576E+01 -0.59749850828E+01  0.28161263305E+03  0.29628988545E+03  0.91551466358E+02 0.  0.
          5    1    3    3  502    0  0.52273219064E+02  0.36954880228E+02  0.67439580114E+02  0.93079116723E+02  0.41800000000E+01 0. -1.
         -5    1    3    3    0  502 -0.44232716206E+02 -0.30979895146E+02  0.13043456456E+03  0.14123361894E+03  0.41800000000E+01 0. -1.
        -11    1    4    4    0    0  0.31559536597E+02  0.24426910785E+02  0.15833054580E+03  0.16328269980E+03  0.00000000000E+00 0. -1.
         11    1    4    4    0    0 -0.39600039455E+02 -0.30401895868E+02  0.12328208725E+03  0.13300718565E+03  0.00000000000E+00 0.  1.
</event>
<event>
 8    1  0.3654190E-009  0.8749437E+02  0.7561462E-02  0.1309035E+00
         -2   -1    0    0    0  501 -0.00000000000E+00  0.00000000000E+00  0.18793996441E+03  0.18793996441E+03  0.00000000000E+00 0.  1.
          2   -1    0    0  501    0  0.00000000000E+00 -0.00000000000E+00 -0.10173255517E+03  0.10173255517E+03  0.00000000000E+00 0. -1.
         25    2    1    2    0    0  0.46810331622E+01  0.61591612941E+02 -0.11579145695E+02  0.13999027424E+03  0.12509101251E+03 0.  0.
         23    2    1    2    0    0 -0.46810331622E+01 -0.61591612941E+02  0.97786554933E+02  0.14968224535E+03  0.95011185610E+02 0.  0.
          5    1    3    3  502    0  0.51475818201E+01  0.35664368287E+02  0.56430656890E+02  0.67084545172E+02  0.41800000000E+01 0.  1.
         -5    1    3    3    0  502 -0.46654865794E+00  0.25927244654E+02 -0.68009802585E+02  0.72905729066E+02  0.41800000000E+01 0.  1.
        -11    1    4    4    0    0 -0.48526099971E+02 -0.21650256860E+02  0.55535058433E+02  0.76861295303E+02  0.00000000000E+00 0.  1.
         11    1    4    4    0    0  0.43845066809E+02 -0.39941356081E+02  0.42251496500E+02  0.72820950046E+02  0.00000000000E+00 0. -1.
</event>
<event>
 8    1  0.3654190E-009  0.8691765E+02  0.7561462E-02  0.1310493E+00
          1   -1    0    0  501    0  0.00000000000E+00  0.00000000000E+00  0.93922507693E+03  0.93922507693E+03  0.00000000000E+00 0. -1.
         -1   -1    0    0    0  501 -0.00000000000E+00 -0.00000000000E+00 -0.24340753377E+02  0.24340753377E+02  0.00000000000E+00 0.  1.
         25    2    1    2    0    0 -0.24758369824E+02  0.49036776914E+02  0.78173449409E+03  0.79358041977E+03  0.12507390226E+03 0.  0.
         23    2    1    2    0    0  0.24758369824E+02 -0.49036776914E+02  0.13314982947E+03  0.16998541054E+03  0.90269487333E+02 0.  0.
          5    1    3    3  502    0  0.11250525999E+02  0.19545491538E+02  0.20051836296E+02  0.30465539771E+02  0.41800000000E+01 0.  1.
         -5    1    3    3    0  502 -0.36008895823E+02  0.29491285376E+02  0.76168265779E+03  0.76311488000E+03  0.41800000000E+01 0.  1.
        -11    1    4    4    0    0  0.30304543891E+02 -0.73279396863E+02  0.88137002289E+02  0.11855954857E+03  0.00000000000E+00 0. -1.
         11    1    4    4    0    0 -0.55461740673E+01  0.24242619949E+02  0.45012827178E+02  0.51425861970E+02  0.00000000000E+00 0.  1.
</event>
<event>
 8    1  0.3654190E-009  0.9078937E+02  0.7561462E-02  0.1300951E+00
         -1   -1    0    0    0  501 -0.00000000000E+00  0.00000000000E+00  0.46663557130E+03  0.46663557130E+03  0.00000000000E+00 0.  1.
          1   -1    0    0  501    0  0.00000000000E+00 -0.00000000000E+00 -0.31896539694E+02  0.31896539694E+02  0.00000000000E+00 0. -1.
         25    2    1    2    0    0 -0.25444336808E+02  0.27143076481E+02  0.16179949272E+03  0.20787400454E+03  0.12509342526E+03 0.  0.
         23    2    1    2    0    0  0.25444336808E+02 -0.27143076481E+02  0.27293953889E+03  0.29065810645E+03  0.92746871005E+02 0.  0.
          5    1    3    3  502    0  0.36319671725E+01 -0.26950571474E+02  0.13983733446E+03  0.14251833916E+03  0.41800000000E+01 0. -1.
         -5    1    3    3    0  502 -0.29076303981E+02  0.54093647955E+02  0.21962158261E+02  0.65355665384E+02  0.41800000000E+01 0. -1.
        -11    1    4    4    0    0  0.33369447388E+02 -0.54568369449E+02  0.23263282118E+03  0.24126594549E+03  0.00000000000E+00 0.  1.
         11    1    4    4    0    0 -0.79251105794E+01  0.27425292968E+02  0.40306717713E+02  0.49392160966E+02  0.00000000000E+00 0. -1.
</event>
<event>
 8    1  0.3654190E-009  0.9587455E+02  0.7561462E-02  0.1289218E+00
         -2   -1    0    0    0  501 -0.00000000000E+00  0.00000000000E+00  0.94032443467E+02  0.94032443467E+02  0.00000000000E+00 0.  1.
          2   -1    0    0  501    0  0.00000000000E+00 -0.00000000000E+00 -0.13648042179E+03  0.13648042179E+03  0.00000000000E+00 0. -1.
         25    2    1    2    0    0 -0.15195575056E+02 -0.28634933821E+02 -0.32791083285E+02  0.13331892843E+03  0.12509123310E+03 0.  0.
         23    2    1    2    0    0  0.15195575056E+02  0.28634933821E+02 -0.96568950367E+01  0.97193936827E+02  0.91118279165E+02 0.  0.
          5    1    3    3  502    0 -0.52055648304E+02 -0.52209285422E+02 -0.46513951202E+02  0.87273249401E+02  0.41800000000E+01 0. -1.
         -5    1    3    3    0  502  0.36860073247E+02  0.23574351602E+02  0.13722867918E+02  0.46045679027E+02  0.41800000000E+01 0. -1.
        -11    1    4    4    0    0  0.11876464927E+02 -0.21042515119E+02 -0.34049317214E+02  0.41751573197E+02  0.00000000000E+00 0. -1.
         11    1    4    4    0    0  0.33191101296E+01  0.49677448939E+02  0.24392422177E+02  0.55442363630E+02  0.00000000000E+00 0.  1.
</event>
<event>
 8    1  0.3654190E-009  0.1691756E+03  0.7561462E-02  0.1178710E+00
         -1   -1    0    0    0  501 -0.00000000000E+00  0.00000000000E+00  0.79578162159E+02  0.79578162159E+02  0.00000000000E+00 0.  1.
          1   -1    0    0  501    0  0.00000000000E+00 -0.00000000000E+00 -0.46960075537E+03  0.46960075537E+03  0.00000000000E+00 0. -1.
         25    2    1    2    0    0 -0.12158611232E+03 -0.77897812036E+02 -0.10114845883E+03  0.21616584434E+03  0.12508161219E+03 0.  0.
         23    2    1    2    0    0  0.12158611232E+03  0.77897812036E+02 -0.28887413439E+03  0.33301307319E+03  0.81229240858E+02 0.  0.
          5    1    3    3  502    0  0.32137530805E+01 -0.59751917218E+02 -0.56256042194E+02  0.82236454833E+02  0.41800000000E+01 0.  1.
         -5    1    3    3    0  502 -0.12479986540E+03 -0.18145894818E+02 -0.44892416632E+02  0.13392938951E+03  0.41800000000E+01 0.  1.
        -11    1    4    4    0    0  0.18188309284E+02 -0.58717455465E+01 -0.54042683073E+01  0.19861976395E+02  0.00000000000E+00 0.  1.
         11    1    4    4    0    0  0.10339780303E+03  0.83769557583E+02 -0.28346986608E+03  0.31315109680E+03  0.00000000000E+00 0. -1.
</event>
<event>
 8    1  0.3654190E-009  0.1112258E+03  0.7561462E-02  0.1258317E+00
          2   -1    0    0  501    0  0.00000000000E+00  0.00000000000E+00  0.61880108747E+03  0.61880108747E+03  0.00000000000E+00 0. -1.
         -2   -1    0    0    0  501 -0.00000000000E+00 -0.00000000000E+00 -0.37523772717E+02  0.37523772717E+02  0.00000000000E+00 0.  1.
         25    2    1    2    0    0 -0.73298528652E+02 -0.79515291677E+02  0.31267796839E+03  0.35370779953E+03  0.12508532936E+03 0.  0.
         23    2    1    2    0    0  0.73298528652E+02  0.79515291677E+02  0.26859934636E+03  0.30261706065E+03  0.87955219395E+02 0.  0.
          5    1    3    3  502    0 -0.29336936321E+01 -0.10058832213E+02 -0.10687110863E+02  0.15539414481E+02  0.41800000000E+01 0. -1.
         -5    1    3    3    0  502 -0.70364835020E+02 -0.69456459464E+02  0.32336507925E+03  0.33816838505E+03  0.41800000000E+01 0. -1.
        -11    1    4    4    0    0  0.34067078265E+02  0.58524266094E+02  0.24082752103E+03  0.25016704505E+03  0.00000000000E+00 0. -1.
         11    1    4    4    0    0  0.39231450387E+02  0.20991025583E+02  0.27771825331E+02  0.52450015602E+02  0.00000000000E+00 0.  1.
</event>
<event>
 8    1  0.3654190E-009  0.1286441E+03  0.7561462E-02  0.1229482E+00
          1   -1    0    0  501    0  0.00000000000E+00  0.00000000000E+00  0.99819084458E+02  0.99819084458E+02  0.00000000000E+00 0. -1.
         -1   -1    0    0    0  501 -0.00000000000E+00 -0.00000000000E+00 -0.18030728882E+03  0.18030728882E+03  0.00000000000E+00 0.  1.
         25    2    1    2    0    0  0.28443396582E+02  0.74133733833E+02 -0.41287345237E+02  0.15379384450E+03  0.12507223684E+03 0.  0.
         23    2    1    2    0    0 -0.28443396582E+02 -0.74133733833E+02 -0.39200859128E+02  0.12633252878E+03  0.90101959856E+02 0.  0.
          5    1    3    3  502    0 -0.46811684563E+02  0.15353837960E+02  0.57736385040E+00  0.49445726820E+02  0.41800000000E+01 0. -1.
         -5    1    3    3    0  502  0.75255081145E+02  0.58779895874E+02 -0.41864709087E+02  0.10434811768E+03  0.41800000000E+01 0. -1.
        -11    1    4    4    0    0 -0.11565232714E+02 -0.89014529903E+02 -0.48450900254E+02  0.10200407285E+03  0.00000000000E+00 0.  1.
         11    1    4    4    0    0 -0.16878163868E+02  0.14880796070E+02  0.92500411264E+01  0.24328455933E+02  0.00000000000E+00 0. -1.
</event>
<event>
 8    1  0.3654190E-009  0.9216865E+02  0.7561462E-02  0.1297683E+00
         -2   -1    0    0    0  501 -0.00000000000E+00  0.00000000000E+00  0.36778546485E+02  0.36778546485E+02  0.00000000000E+00 0.  1.
          2   -1    0    0  501    0  0.00000000000E+00 -0.00000000000E+00 -0.40352071738E+03  0.40352071738E+03  0.00000000000E+00 0. -1.
         25    2    1    2    0    0  0.51505862242E+02  0.24077329320E+02 -0.20350195419E+03  0.24554688128E+03  0.12509058285E+03 0.  0.
         23    2    1    2    0    0 -0.51505862242E+02 -0.24077329320E+02 -0.16324021671E+03  0.19475238258E+03  0.89713714324E+02 0.  0.
          5    1    3    3  502    0  0.41201844190E+02 -0.10374251309E+02 -0.41045430539E+01  0.42889820804E+02  0.41800000000E+01 0. -1.
         -5    1    3    3    0  502  0.10304018051E+02  0.34451580629E+02 -0.19939741113E+03  0.20265706048E+03  0.41800000000E+01 0. -1.
        -11    1    4    4    0    0  0.22072405620E+02  0.10148491759E+02 -0.48131079457E+02  0.53914597138E+02  0.00000000000E+00 0. -1.
         11    1    4    4    0    0 -0.73578267861E+02 -0.34225821079E+02 -0.11510913725E+03  0.14083778544E+03  0.00000000000E+00 0.  1.
</event>
<event>
 8    1  0.3654190E-009  0.1334911E+03  0.7561462E-02  0.1222366E+00
          2   -1    0    0  501    0  0.00000000000E+00  0.00000000000E+00  0.19222671963E+04  0.19222671963E+04  0.00000000000E+00 0. -1.
         -2   -1    0    0    0  501 -0.00000000000E+00 -0.00000000000E+00 -0.14684162603E+02  0.14684162603E+02  0.00000000000E+00 0.  1.
         25    2    1    2    0    0  0.97896952429E+02  0.43729755291E+01  0.14765247112E+04  0.14850507715E+04  0.12509050609E+03 0.  0.
         23    2    1    2    0    0 -0.97896952429E+02 -0.43729755291E+01  0.43105832241E+03  0.45190058739E+03  0.93807928000E+02 0.  0.
          5    1    3    3  502    0 -0.29004470581E+02  0.22430176252E+01  0.18796241541E+03  0.19024624162E+03  0.41800000000E+01 0.  1.
         -5    1    3    3    0  502  0.12690142301E+03  0.21299579039E+01  0.12885622958E+04  0.12948045299E+04  0.41800000000E+01 0.  1.
        -11    1    4    4    0    0 -0.66632037372E+02 -0.27120422610E+02  0.38546300391E+03  0.39211869773E+03  0.00000000000E+00 0. -1.
         11    1    4    4    0    0 -0.31264915057E+02  0.22747447081E+02  0.45595318500E+02  0.59781889660E+02  0.00000000000E+00 0.  1.
</event>
<event>
 8    1  0.3654190E-009  0.9132373E+02  0.7561462E-02  0.1299677E+00
         -2   -1    0    0    0  501 -0.00000000000E+00  0.00000000000E+00  0.85570466967E+02  0.85570466967E+02  0.00000000000E+00 0.  1.
          2   -1    0    0  501    0  0.00000000000E+00 -0.00000000000E+00 -0.19686204798E+03  0.19686204798E+03  0.00000000000E+00 0. -1.
         25    2    1    2    0    0  0.75141791185E+01 -0.64284562365E+02 -0.29305906841E+02  0.14385645755E+03  0.12508747482E+03 0.  0.
         23    2    1    2    0    0 -0.75141791185E+01  0.64284562365E+02 -0.81985674174E+02  0.13857605740E+03  0.91064290846E+02 0.  0.
          5    1    3    3  502    0 -0.24158240885E+02 -0.21336169331E+01  0.39014011181E+02  0.46127414759E+02  0.41800000000E+01 0. -1.
         -5    1    3    3    0  502  0.31672420004E+02 -0.62150945432E+02 -0.68319918023E+02  0.97729042795E+02  0.41800000000E+01 0. -1.
        -11    1    4    4    0    0 -0.33906318122E+02  0.34851865284E+02 -0.86047266586E+02  0.98835332797E+02  0.00000000000E+00 0. -1.
         11    1    4    4    0    0  0.26392139003E+02  0.29432697081E+02  0.40615924117E+01  0.39740724598E+02  0.00000000000E+00 0.  1.
</event>
<event>
 8    1  0.3654190E-009  0.1396998E+03  0.7561462E-02  0.1213733E+00
         -2   -1    0    0    0  501 -0.00000000000E+00  0.00000000000E+00  0.87248179481E+02  0.87248179481E+02  0.00000000000E+00 0.  1.
          2   -1    0    0  501    0  0.00000000000E+00 -0.00000000000E+00 -0.23113345267E+03  0.23113345267E+03  0.00000000000E+00 0. -1.
         25    2    1    2    0    0  0.37668521639E+01  0.90398640331E+02 -0.57065918712E+02  0.16459048036E+03  0.12508958309E+03 0.  0.
         23    2    1    2    0    0 -0.37668521639E+01 -0.90398640331E+02 -0.86819354475E+02  0.15379115179E+03  0.89039399747E+02 0.  0.
          5    1    3    3  502    0  0.45809907373E+02  0.10081207067E+03 -0.42947819197E+02  0.11884279019E+03  0.41800000000E+01 0. -1.
         -5    1    3    3    0  502 -0.42043055209E+02 -0.10413430334E+02 -0.14118099515E+02  0.45747690177E+02  0.41800000000E+01 0. -1.
        -11    1    4    4    0    0  0.17610209042E+02 -0.10007227619E+03 -0.59383738169E+02  0.11769030666E+03  0.00000000000E+00 0.  1.
         11    1    4    4    0    0 -0.21377061205E+02  0.96736358558E+01 -0.27435616307E+02  0.36100845123E+02  0.00000000000E+00 0. -1.
</event>
<event>
 8    1  0.3654190E-009  0.8595216E+02  0.7561462E-02  0.1312961E+00
          1   -1    0    0  501    0  0.00000000000E+00  0.00000000000E+00  0.17168317697E+04  0.17168317697E+04  0.00000000000E+00 0. -1.
         -1   -1    0    0    0  501 -0.00000000000E+00 -0.00000000000E+00 -0.88959174288E+01  0.88959174288E+01  0.00000000000E+00 0.  1.
         25    2    1    2    0    0 -0.46064348450E+02  0.22019433438E+01  0.12603678086E+04  0.12673993325E+04  0.12508909798E+03 0.  0.
         23    2    1    2    0    0  0.46064348450E+02 -0.22019433438E+01  0.44756804370E+03  0.45832835461E+03  0.87298076415E+02 0.  0.
          5    1    3    3  502    0 -0.35776825724E+02 -0.25729544562E+02  0.11907171524E+04  0.11915396762E+04  0.41800000000E+01 0. -1.
         -5    1    3    3    0  502 -0.10287522726E+02  0.27931487906E+02  0.69650656206E+02  0.75859656276E+02  0.41800000000E+01 0. -1.
        -11    1    4    4    0    0  0.24097723629E+01 -0.39856987876E+02  0.14977726071E+03  0.15500843303E+03  0.00000000000E+00 0.  1.
         11    1    4    4    0    0  0.43654576087E+02  0.37655044533E+02  0.29779078300E+03  0.30331992158E+03  0.00000000000E+00 0. -1.
</event>
<event>
 8    1  0.3654190E-009  0.2450197E+03  0.7561462E-02  0.1116493E+00
         -2   -1    0    0    0  501 -0.00000000000E+00  0.00000000000E+00  0.81070525104E+02  0.81070525104E+02  0.00000000000E+00 0.  1.
          2   -1    0    0  501    0  0.00000000000E+00 -0.00000000000E+00 -0.97544144695E+03  0.97544144695E+03  0.00000000000E+00 0. -1.
         25    2    1    2    0    0  0.36362604932E+02 -0.23368797961E+03 -0.25902856547E+03  0.37238820627E+03  0.12507944511E+03 0.  0.
         23    2    1    2    0    0 -0.36362604932E+02  0.23368797961E+03 -0.63534235638E+03  0.68412376579E+03  0.91831945685E+02 0.  0.
          5    1    3    3  502    0 -0.13125115009E+01 -0.71335824946E+02 -0.16769761258E+03  0.18229230448E+03  0.41800000000E+01 0.  1.
         -5    1    3    3    0  502  0.37675116432E+02 -0.16235215467E+03 -0.91330952886E+02  0.19009590179E+03  0.41800000000E+01 0.  1.
        -11    1    4    4    0    0 -0.65134184429E+02  0.16280683044E+03 -0.47855020010E+03  0.50966540008E+03  0.00000000000E+00 0. -1.
         11    1    4    4    0    0  0.28771579497E+02  0.70881149173E+02 -0.15679215628E+03  0.17445836571E+03  0.00000000000E+00 0.  1.
</event>
<event>
 8    1  0.3654190E-009  0.9002802E+02  0.7561462E-02  0.1302784E+00
         -2   -1    0    0    0  501 -0.00000000000E+00  0.00000000000E+00  0.60490023855E+02  0.60490023855E+02  0.00000000000E+00 0.  1.
          2   -1    0    0  501    0  0.00000000000E+00 -0.00000000000E+00 -0.22421002869E+03  0.22421002869E+03  0.00000000000E+00 0. -1.
         25    2    1    2    0    0 -0.35000440801E+02  0.32922679582E+02 -0.84731972779E+02  0.15854075558E+03  0.12508689093E+03 0.  0.
         23    2    1    2    0    0  0.35000440801E+02 -0.32922679582E+02 -0.78988032052E+02  0.12615929696E+03  0.85837784890E+02 0.  0.
          5    1    3    3  502    0  0.23295495244E+02  0.25247896269E+02 -0.92801091396E+02  0.99043683943E+02  0.41800000000E+01 0.  1.
         -5    1    3    3    0  502 -0.58295936045E+02  0.76747833131E+01  0.80691186167E+01  0.59497071638E+02  0.41800000000E+01 0.  1.
        -11    1    4    4    0    0  0.54339153734E+02 -0.38240003379E+02 -0.82359791358E+02  0.10582143790E+03  0.00000000000E+00 0. -1.
         11    1    4    4    0    0 -0.19338712933E+02  0.53173237965E+01  0.33717593060E+01  0.20337859059E+02  0.00000000000E+00 0.  1.
</event>
<event>
 8    1  0.3654190E-009  0.1272006E+03  0.7561462E-02  0.1231670E+00
         -3   -1    0    0    0  501 -0.00000000000E+00  0.00000000000E+00  0.80763355427E+02  0.80763355427E+02  0.00000000000E+00 0.  1.
          3   -1    0    0  501    0  0.00000000000E+00 -0.00000000000E+00 -0.23588459903E+03  0.23588459903E+03  0.00000000000E+00 0. -1.
         25    2    1    2    0    0 -0.55245065627E+02  0.59012248636E+02 -0.11574092868E+03  0.18861607367E+03  0.12508236450E+03 0.  0.
         23    2    1    2    0    0  0.55245065627E+02 -0.59012248636E+02 -0.39380314925E+02  0.12803188079E+03  0.91142144642E+02 0.  0.
          5    1    3    3  502    0  0.10460567052E+02  0.75987664917E+02 -0.83195564999E+02  0.11323658030E+03  0.41800000000E+01 0.  1.
         -5    1    3    3    0  502 -0.65705632679E+02 -0.16975416281E+02 -0.32545363684E+02  0.75379493372E+02  0.41800000000E+01 0.  1.
        -11    1    4    4    0    0  0.49727638369E+02  0.59311320393E+00 -0.46080048786E+02  0.67797940213E+02  0.00000000000E+00 0. -1.
         11    1    4    4    0    0  0.55174272580E+01 -0.59605361840E+02  0.66997338618E+01  0.60233940577E+02  0.00000000000E+00 0.  1.
</event>
<event>
 8    1  0.3654190E-009  0.1436383E+03  0.7561462E-02  0.1208516E+00
         -2   -1    0    0    0  501 -0.00000000000E+00  0.00000000000E+00  0.20223598667E+02  0.20223598667E+02  0.00000000000E+00 0.  1.
          2   -1    0    0  501    0  0.00000000000E+00 -0.00000000000E+00 -0.12611917911E+04  0.12611917911E+04  0.00000000000E+00 0. -1.
         25    2    1    2    0    0 -0.79154223913E+02 -0.80640571716E+02 -0.76349899119E+03  0.78188622869E+03  0.12508825722E+03 0.  0.
         23    2    1    2    0    0  0.79154223913E+02  0.80640571716E+02 -0.47746920127E+03  0.49952916111E+03  0.93724338693E+02 0.  0.
          5    1    3    3  502    0 -0.40996283122E+02 -0.10570320951E+03 -0.40929426614E+03  0.42472712702E+03  0.41800000000E+01 0. -1.
         -5    1    3    3    0  502 -0.38157940791E+02  0.25062637792E+02 -0.35420472505E+03  0.35715910167E+03  0.41800000000E+01 0. -1.
        -11    1    4    4    0    0  0.57106197758E+01  0.46745795813E+02 -0.71744439899E+02  0.85819841883E+02  0.00000000000E+00 0.  1.
         11    1    4    4    0    0  0.73443604137E+02  0.33894775904E+02 -0.40572476137E+03  0.41370931923E+03  0.00000000000E+00 0. -1.
</event>
<event>
 8    1  0.3654190E-009  0.1707951E+03  0.7561462E-02  0.1177021E+00
          2   -1    0    0  501    0  0.00000000000E+00  0.00000000000E+00  0.63053531172E+03  0.63053531172E+03  0.00000000000E+00 0. -1.
         -2   -1    0    0    0  501 -0.00000000000E+00 -0.00000000000E+00 -0.56922050333E+02  0.56922050333E+02  0.00000000000E+00 0.  1.
         25    2    1    2    0    0 -0.96142564550E+02 -0.11726016920E+03  0.24131957186E+03  0.31124906203E+03  0.12508997902E+03 0.  0.
         23    2    1    2    0    0  0.96142564550E+02  0.11726016920E+03  0.33229368953E+03  0.37620830003E+03  0.90112423721E+02 0.  0.
          5    1    3    3  502    0 -0.17004781347E+02  0.84790781744E+01 -0.79617824878E+01  0.21021887064E+02  0.41800000000E+01 0.  1.
         -5    1    3    3    0  502 -0.79137783202E+02 -0.12573924738E+03  0.24928135435E+03  0.29022717496E+03  0.41800000000E+01 0.  1.
        -11    1    4    4    0    0  0.74984566370E+02  0.25292888666E+02  0.11827504321E+03  0.14230741814E+03  0.00000000000E+00 0.  1.
         11    1    4    4    0    0  0.21157998179E+02  0.91967280538E+02  0.21401864631E+03  0.23390088188E+03  0.00000000000E+00 0. -1.
</event>
<event>
 8    1  0.3654190E-009  0.2919915E+03  0.7561462E-02  0.1089314E+00
          1   -1    0    0  501    0  0.00000000000E+00  0.00000000000E+00  0.13298731254E+04  0.13298731254E+04  0.00000000000E+00 0. -1.
         -1   -1    0    0    0  501 -0.00000000000E+00 -0.00000000000E+00 -0.71128921152E+02  0.71128921152E+02  0.00000000000E+00 0.  1.
         25    2    1    2    0    0  0.22488606186E+03  0.17929848336E+03  0.65177560255E+03  0.72331236359E+03  0.12509057635E+03 0.  0.
         23    2    1    2    0    0 -0.22488606186E+03 -0.17929848336E+03  0.60696860172E+03  0.67768968298E+03  0.90170593814E+02 0.  0.
          5    1    3    3  502    0  0.15925732468E+02  0.90182722879E+01  0.87664111858E+00  0.18793591710E+02  0.41800000000E+01 0. -1.
         -5    1    3    3    0  502  0.20896032939E+03  0.17028021108E+03  0.65089896143E+03  0.70451877188E+03  0.41800000000E+01 0. -1.
        -11    1    4    4    0    0 -0.12569685711E+03 -0.14202908957E+03  0.32261918611E+03  0.37423936380E+03  0.00000000000E+00 0.  1.
         11    1    4    4    0    0 -0.99189204749E+02 -0.37269393794E+02  0.28434941561E+03  0.30345031918E+03  0.00000000000E+00 0. -1.
</event>
<event>
 8    1  0.3654190E-009  0.1162236E+03  0.7561462E-02  0.1249460E+00
         -2   -1    0    0    0  501 -0.00000000000E+00  0.00000000000E+00  0.31389730456E+02  0.31389730456E+02  0.00000000000E+00 0.  1.
          2   -1    0    0  501    0  0.00000000000E+00 -0.00000000000E+00 -0.61503001188E+03  0.61503001188E+03  0.00000000000E+00 0. -1.
         25    2    1    2    0    0  0.45177466057E+02  0.14449049960E+02 -0.48141227821E+03  0.49965557916E+03  0.12509251654E+03 0.  0.
         23    2    1    2    0    0 -0.45177466057E+02 -0.14449049960E+02 -0.10222800322E+03  0.14676416318E+03  0.94017958218E+02 0.  0.
          5    1    3    3  502    0 -0.18114423396E+02  0.54596419267E+02 -0.24049348387E+03  0.24731253408E+03  0.41800000000E+01 0. -1.
         -5    1    3    3    0  502  0.63291889453E+02 -0.40147369307E+02 -0.24091879434E+03  0.25234304508E+03  0.41800000000E+01 0. -1.
        -11    1    4    4    0    0 -0.67864876798E+02  0.73252106296E+01 -0.90154572214E+02  0.11308026841E+03  0.00000000000E+00 0. -1.
         11    1    4    4    0    0  0.22687410741E+02 -0.21774260589E+02 -0.12073431006E+02  0.33683894766E+02  0.00000000000E+00 0.  1.
</event>
<event>
 8    1  0.3654190E-009  0.1596773E+03  0.7561462E-02  0.1189062E+00
          1   -1    0    0  501    0  0.00000000000E+00  0.00000000000E+00  0.10600907801E+03  0.10600907801E+03  0.00000000000E+00 0. -1.
         -1   -1    0    0    0  501 -0.00000000000E+00 -0.00000000000E+00 -0.34108835057E+03  0.34108835057E+03  0.00000000000E+00 0.  1.
         25    2    1    2    0    0  0.12609575674E+03 -0.40740346209E+02 -0.27900576759E+02  0.18435211024E+03  0.12508933883E+03 0.  0.
         23    2    1    2    0    0 -0.12609575674E+03  0.40740346209E+02 -0.20717869580E+03  0.26274531835E+03  0.92477968435E+02 0.  0.
          5    1    3    3  502    0  0.11319165788E+03  0.46077626991E+01  0.22104622230E+02  0.11549748748E+03  0.41800000000E+01 0. -1.
         -5    1    3    3    0  502  0.12904098859E+02 -0.45348108908E+02 -0.50005198989E+02  0.68854622755E+02  0.41800000000E+01 0. -1.
        -11    1    4    4    0    0 -0.73710286597E+02 -0.22000510846E+02 -0.12546856676E+03  0.14717197448E+03  0.00000000000E+00 0.  1.
         11    1    4    4    0    0 -0.52385470140E+02  0.62740857055E+02 -0.81710129043E+02  0.11557334387E+03  0.00000000000E+00 0. -1.
</event>
<event>
 8    1  0.3654190E-009  0.1166530E+03  0.7561462E-02  0.1248723E+00
         -2   -1    0    0    0  501 -0.00000000000E+00  0.00000000000E+00  0.17307543249E+03  0.17307543249E+03  0.00000000000E+00 0.  1.
          2   -1    0    0  501    0  0.00000000000E+00 -0.00000000000E+00 -0.10790992676E+03  0.10790992676E+03  0.00000000000E+00 0. -1.
         25    2    1    2    0    0  0.66046681534E+02  0.23113998355E+02  0.82348735171E+02  0.16530294024E+03  0.12508927535E+03 0.  0.
         23    2    1    2    0    0 -0.66046681534E+02 -0.23113998355E+02 -0.17183229440E+02  0.11568241900E+03  0.90502694047E+02 0.  0.
          5    1    3    3  502    0  0.90686129428E+02  0.83447489000E+01  0.15567037577E+02  0.92484668804E+02  0.41800000000E+01 0.  1.
         -5    1    3    3    0  502 -0.24639447894E+02  0.14769249455E+02  0.66781697594E+02  0.72818271440E+02  0.41800000000E+01 0.  1.
        -11    1    4    4    0    0 -0.97750746012E+01  0.32534246465E+02  0.27131864069E+01  0.34079182164E+02  0.00000000000E+00 0.  1.
         11    1    4    4    0    0 -0.56271606933E+02 -0.55648244820E+02 -0.19896415847E+02  0.81603236835E+02  0.00000000000E+00 0. -1.
</event>
<event>
 8    1  0.3654190E-009  0.1686945E+03  0.7561462E-02  0.1179216E+00
         -1   -1    0    0    0  501 -0.00000000000E+00  0.00000000000E+00  0.26959674460E+02  0.26959674460E+02  0.00000000000E+00 0.  1.
          1   -1    0    0  501    0  0.00000000000E+00 -0.00000000000E+00 -0.10626926091E+04  0.10626926091E+04  0.00000000000E+00 0. -1.
         25    2    1    2    0    0 -0.12690263674E+03 -0.12139450684E+02 -0.51438292204E+03  0.54450867502E+03  0.12509301023E+03 0.  0.
         23    2    1    2    0    0  0.12690263674E+03  0.12139450684E+02 -0.52135001264E+03  0.54514360859E+03  0.95520012709E+02 0.  0.
          5    1    3    3  502    0 -0.13525687368E+03  0.26887676028E+02 -0.38049035053E+03  0.40473169909E+03  0.41800000000E+01 0.  1.
         -5    1    3    3    0  502  0.83542369421E+01 -0.39027126712E+02 -0.13389257152E+03  0.13977697593E+03  0.41800000000E+01 0.  1.
        -11    1    4    4    0    0  0.27451825963E+02 -0.38820171129E+02 -0.15365831028E+03  0.16084615244E+03  0.00000000000E+00 0.  1.
         11    1    4    4    0    0  0.99450810773E+02  0.50959621813E+02 -0.36769170236E+03  0.38429745615E+03  0.00000000000E+00 0. -1.
</event>
<event>
 8    1  0.3654190E-009  0.1187770E+03  0.7561462E-02  0.1245128E+00
          1   -1    0    0  501    0  0.00000000000E+00  0.00000000000E+00  0.50272675315E+02  0.50272675315E+02  0.00000000000E+00 0. -1.
         -1   -1    0    0    0  501 -0.00000000000E+00 -0.00000000000E+00 -0.57216184921E+03  0.57216184921E+03  0.00000000000E+00 0.  1.
         25    2    1    2    0    0  0.75687862143E+02 -0.60266774420E+02 -0.43953593884E+03  0.46711935830E+03  0.12509163355E+03 0.  0.
         23    2    1    2    0    0 -0.75687862143E+02  0.60266774420E+02 -0.82353235050E+02  0.15531516623E+03  0.89330895900E+02 0.  0.
          5    1    3    3  502    0  0.72251562387E+02  0.31245381943E+00 -0.35886476290E+03  0.36608984737E+03  0.41800000000E+01 0. -1.
         -5    1    3    3    0  502  0.34362997555E+01 -0.60579228239E+02 -0.80671175941E+02  0.10102951093E+03  0.41800000000E+01 0. -1.
        -11    1    4    4    0    0 -0.12569515136E+02 -0.50351034651E+01 -0.60373599675E+02  0.61873391013E+02  0.00000000000E+00 0.  1.
         11    1    4    4    0    0 -0.63118347007E+02  0.65301877885E+02 -0.21979635375E+02  0.93441775215E+02  0.00000000000E+00 0. -1.
</event>
<event>
 8    1  0.3654190E-009  0.1921116E+03  0.7561462E-02  0.1156570E+00
         -1   -1    0    0    0  501 -0.00000000000E+00  0.00000000000E+00  0.50378215059E+02  0.50378215059E+02  0.00000000000E+00 0.  1.
          1   -1    0    0  501    0  0.00000000000E+00 -0.00000000000E+00 -0.13597745286E+04  0.13597745286E+04  0.00000000000E+00 0. -1.
         25    2    1    2    0    0 -0.40203024174E+02  0.17749968274E+03 -0.10828624120E+04  0.11051519113E+04  0.12508926056E+03 0.  0.
         23    2    1    2    0    0  0.40203024174E+02 -0.17749968274E+03 -0.22653390149E+03  0.30500083235E+03  0.92657858190E+02 0.  0.
          5    1    3    3  502    0 -0.20152380619E+02  0.52274197935E+02 -0.10494199007E+03  0.11903362506E+03  0.41800000000E+01 0.  1.
         -5    1    3    3    0  502 -0.20050643556E+02  0.12522548480E+03 -0.97792042194E+03  0.98611828621E+03  0.41800000000E+01 0.  1.
        -11    1    4    4    0    0  0.66383835073E+02 -0.10665956587E+03 -0.11509705783E+03  0.17038312496E+03  0.00000000000E+00 0.  1.
         11    1    4    4    0    0 -0.26180810899E+02 -0.70840116872E+02 -0.11143684366E+03  0.13461770739E+03  0.00000000000E+00 0. -1.
</event>
<event>
 8    1  0.3654190E-009  0.1356215E+03  0.7561462E-02  0.1219345E+00
          2   -1    0    0  501    0  0.00000000000E+00  0.00000000000E+00  0.70004177901E+02  0.70004177901E+02  0.00000000000E+00 0.  1.
         -2   -1    0    0    0  501 -0.00000000000E+00 -0.00000000000E+00 -0.36385621139E+03  0.36385621139E+03  0.00000000000E+00 0. -1.
         25    2    1    2    0    0  0.36351666296E+02  0.10936190991E+03 -0.15870545035E+03  0.23262681938E+03  0.12508535544E+03 0.  0.
         23    2    1    2    0    0 -0.36351666296E+02 -0.10936190991E+03 -0.13514658314E+03  0.20123356991E+03  0.94598518695E+02 0.  0.
          5    1    3    3  502    0  0.74704108402E+01  0.87868013163E+02 -0.17255449496E+03  0.19382755456E+03  0.41800000000E+01 0.  1.
         -5    1    3    3    0  502  0.28881255456E+02  0.21493896750E+02  0.13849044615E+02  0.38799264825E+02  0.41800000000E+01 0.  1.
        -11    1    4    4    0    0 -0.67074553264E+02 -0.74283463123E+02 -0.74686524006E+02  0.12488036458E+03  0.00000000000E+00 0.  1.
         11    1    4    4    0    0  0.30722886968E+02 -0.35078446790E+02 -0.60460059138E+02  0.76353205328E+02  0.00000000000E+00 0. -1.
</event>
<event>
 8    1  0.3654190E-009  0.1858379E+03  0.7561462E-02  0.1162270E+00
         -2   -1    0    0    0  501 -0.00000000000E+00  0.00000000000E+00  0.34881983725E+02  0.34881983725E+02  0.00000000000E+00 0.  1.
          2   -1    0    0  501    0  0.00000000000E+00 -0.00000000000E+00 -0.13953080892E+04  0.13953080892E+04  0.00000000000E+00 0. -1.
         25    2    1    2    0    0  0.13356853242E+03  0.10768180234E+03 -0.42941236569E+03  0.47903942007E+03  0.12509141764E+03 0.  0.
         23    2    1    2    0    0 -0.13356853242E+03 -0.10768180234E+03 -0.93101373975E+03  0.95115065281E+03  0.92005746255E+02 0.  0.
          5    1    3    3  502    0  0.94575909473E+02  0.10020810058E+03 -0.18141282014E+03  0.22784720710E+03  0.41800000000E+01 0. -1.
         -5    1    3    3    0  502  0.38992622943E+02  0.74737017636E+01 -0.24799954555E+03  0.25119221297E+03  0.41800000000E+01 0. -1.
        -11    1    4    4    0    0 -0.10588298317E+03 -0.12296978214E+03 -0.80821357370E+03  0.82434334725E+03  0.00000000000E+00 0.  1.
         11    1    4    4    0    0 -0.27685549246E+02  0.15287979793E+02 -0.12280016605E+03  0.12680730557E+03  0.00000000000E+00 0. -1.
</event>
<event>
 8    1  0.3654190E-009  0.1651463E+03  0.7561462E-02  0.1183006E+00
          2   -1    0    0  501    0  0.00000000000E+00  0.00000000000E+00  0.49001481158E+03  0.49001481158E+03  0.00000000000E+00 0. -1.
         -2   -1    0    0    0  501 -0.00000000000E+00 -0.00000000000E+00 -0.65025559753E+02  0.65025559753E+02  0.00000000000E+00 0.  1.
         25    2    1    2    0    0 -0.12265260185E+03 -0.67542740141E+02  0.21041762700E+03  0.28200879652E+03  0.12509077135E+03 0.  0.
         23    2    1    2    0    0  0.12265260185E+03  0.67542740141E+02  0.21457162483E+03  0.27303157481E+03  0.94337565030E+02 0.  0.
          5    1    3    3  502    0 -0.22739516259E+02  0.21867746818E+02 -0.75459632953E+00  0.31832778173E+02  0.41800000000E+01 0.  1.
         -5    1    3    3    0  502 -0.99913085596E+02 -0.89410486959E+02  0.21117222333E+03  0.25017601835E+03  0.41800000000E+01 0.  1.
        -11    1    4    4    0    0 -0.71260374743E+01  0.27651147420E+02  0.65184081813E+02  0.71164112342E+02  0.00000000000E+00 0. -1.
         11    1    4    4    0    0  0.12977863933E+03  0.39891592721E+02  0.14938754301E+03  0.20186746247E+03  0.00000000000E+00 0.  1.
</event>
<event>
 8    1  0.3654190E-009  0.1162523E+03  0.7561462E-02  0.1249411E+00
         -1   -1    0    0    0  501 -0.00000000000E+00  0.00000000000E+00  0.32892100013E+02  0.32892100013E+02  0.00000000000E+00 0.  1.
          1   -1    0    0  501    0  0.00000000000E+00 -0.00000000000E+00 -0.43832065803E+03  0.43832065803E+03  0.00000000000E+00 0. -1.
         25    2    1    2    0    0 -0.32720171466E+02 -0.40352176995E+02 -0.24351592679E+03  0.27865128265E+03  0.12509045892E+03 0.  0.
         23    2    1    2    0    0  0.32720171466E+02  0.40352176995E+02 -0.16191263123E+03  0.19256147539E+03  0.90362126169E+02 0.  0.
          5    1    3    3  502    0  0.44304649523E+02 -0.80148016160E+01 -0.47732531374E+02  0.65749570079E+02  0.41800000000E+01 0.  1.
         -5    1    3    3    0  502 -0.77024820988E+02 -0.32337375379E+02 -0.19578339542E+03  0.21290171257E+03  0.41800000000E+01 0.  1.
        -11    1    4    4    0    0 -0.25534728159E+02  0.37438561676E+02 -0.81027322310E+02  0.92839082305E+02  0.00000000000E+00 0.  1.
         11    1    4    4    0    0  0.58254899625E+02  0.29136153181E+01 -0.80885308916E+02  0.99722393087E+02  0.00000000000E+00 0. -1.
</event>
<event>
 8    1  0.3654190E-009  0.1155650E+03  0.7561462E-02  0.1250598E+00
         -2   -1    0    0    0  501 -0.00000000000E+00  0.00000000000E+00  0.20382505903E+03  0.20382505903E+03  0.00000000000E+00 0.  1.
          2   -1    0    0  501    0  0.00000000000E+00 -0.00000000000E+00 -0.16506878800E+03  0.16506878800E+03  0.00000000000E+00 0. -1.
         25    2    1    2    0    0 -0.63575814118E+02 -0.49230826560E+02 -0.10441912157E+03  0.18170478972E+03  0.12509084393E+03 0.  0.
         23    2    1    2    0    0  0.63575814118E+02  0.49230826560E+02  0.14317539259E+03  0.18718905731E+03  0.89860957633E+02 0.  0.
          5    1    3    3  502    0 -0.72445495631E+02  0.21976091890E+02 -0.43038710410E+02  0.87184295866E+02  0.41800000000E+01 0. -1.
         -5    1    3    3    0  502  0.88696815131E+01 -0.71206918449E+02 -0.61380411159E+02  0.94520493859E+02  0.41800000000E+01 0. -1.
        -11    1    4    4    0    0  0.29133851688E+02  0.36521887193E+02  0.14304076881E+03  0.15047687895E+03  0.00000000000E+00 0.  1.
         11    1    4    4    0    0  0.34441962430E+02  0.12708939366E+02  0.13462378429E+00  0.36712178353E+02  0.00000000000E+00 0. -1.
</event>
<event>
 8    1  0.3654190E-009  0.1189829E+03  0.7561462E-02  0.1244784E+00
          2   -1    0    0  501    0  0.00000000000E+00  0.00000000000E+00  0.16463536602E+03  0.16463536602E+03  0.00000000000E+00 0. -1.
         -2   -1    0    0    0  501 -0.00000000000E+00 -0.00000000000E+00 -0.13234950737E+03  0.13234950737E+03  0.00000000000E+00 0.  1.
         25    2    1    2    0    0  0.46885965273E+02  0.61880910336E+02 -0.45918528201E+02  0.15422292289E+03  0.12509459584E+03 0.  0.
         23    2    1    2    0    0 -0.46885965273E+02 -0.61880910336E+02  0.78204386852E+02  0.14276195049E+03  0.90760716075E+02 0.  0.
          5    1    3    3  502    0  0.62298004757E+02  0.30693698184E+01 -0.65177884467E+02  0.90311081554E+02  0.41800000000E+01 0.  1.
         -5    1    3    3    0  502 -0.15412039484E+02  0.58811540517E+02  0.19259356266E+02  0.63911841335E+02  0.41800000000E+01 0.  1.
        -11    1    4    4    0    0 -0.69656729449E+02 -0.31254065403E+02  0.70309379523E+02  0.10378962092E+03  0.00000000000E+00 0.  1.
         11    1    4    4    0    0  0.22770764176E+02 -0.30626844933E+02  0.78950073292E+01  0.38972329574E+02  0.00000000000E+00 0. -1.
</event>
<event>
 8    1  0.3654190E-009  0.1396517E+03  0.7561462E-02  0.1213798E+00
         -2   -1    0    0    0  501 -0.00000000000E+00  0.00000000000E+00  0.71232505505E+02  0.71232505505E+02  0.00000000000E+00 0. -1.
          2   -1    0    0  501    0  0.00000000000E+00 -0.00000000000E+00 -0.33910928511E+03  0.33910928511E+03  0.00000000000E+00 0.  1.
         25    2    1    2    0    0 -0.10949202376E+03 -0.20639502104E+02 -0.13159907869E+03  0.21301890964E+03  0.12507696045E+03 0.  0.
         23    2    1    2    0    0  0.10949202376E+03  0.20639502104E+02 -0.13627770091E+03  0.19732288097E+03  0.89163979698E+02 0.  0.
          5    1    3    3  502    0  0.26848680537E+02  0.57405348178E+01 -0.14549615168E+02  0.31352337841E+02  0.41800000000E+01 0. -1.
         -5    1    3    3    0  502 -0.13634070430E+03 -0.26380036922E+02 -0.11704946353E+03  0.18166657180E+03  0.41800000000E+01 0. -1.
        -11    1    4    4    0    0  0.61960186767E+02  0.34552576155E+01 -0.12061758362E+02  0.63217794680E+02  0.00000000000E+00 0. -1.
         11    1    4    4    0    0  0.47531836996E+02  0.17184244489E+02 -0.12421594255E+03  0.13410508629E+03  0.00000000000E+00 0.  1.
</event>
<event>
 8    1  0.3654190E-009  0.1995311E+03  0.7561462E-02  0.1150135E+00
          1   -1    0    0  501    0  0.00000000000E+00  0.00000000000E+00  0.51376427810E+02  0.51376427810E+02  0.00000000000E+00 0. -1.
         -1   -1    0    0    0  501 -0.00000000000E+00 -0.00000000000E+00 -0.85838916109E+03  0.85838916109E+03  0.00000000000E+00 0.  1.
         25    2    1    2    0    0 -0.16326358188E+03 -0.51024575553E+02 -0.30229428732E+03  0.36917302935E+03  0.12509350494E+03 0.  0.
         23    2    1    2    0    0  0.16326358188E+03  0.51024575553E+02 -0.50471844596E+03  0.54059255955E+03  0.90780511484E+02 0.  0.
          5    1    3    3  502    0 -0.15851915114E+03 -0.44911736753E+01 -0.26643507157E+03  0.31008645840E+03  0.41800000000E+01 0.  1.
         -5    1    3    3    0  502 -0.47444307384E+01 -0.46533401878E+02 -0.35859215750E+02  0.59086570957E+02  0.41800000000E+01 0.  1.
        -11    1    4    4    0    0  0.79103775044E+02 -0.21926892988E+02 -0.22589635308E+03  0.24034841001E+03  0.00000000000E+00 0. -1.
         11    1    4    4    0    0  0.84159806834E+02  0.72951468541E+02 -0.27882209289E+03  0.30024414954E+03  0.00000000000E+00 0.  1.
</event>
<event>
 8    1  0.3654190E-009  0.1536172E+03  0.7561462E-02  0.1196097E+00
          1   -1    0    0  501    0  0.00000000000E+00  0.00000000000E+00  0.13009491980E+03  0.13009491980E+03  0.00000000000E+00 0. -1.
         -1   -1    0    0    0  501 -0.00000000000E+00 -0.00000000000E+00 -0.21140940743E+03  0.21140940743E+03  0.00000000000E+00 0.  1.
         25    2    1    2    0    0 -0.84119378705E+02 -0.85455325285E+02 -0.81438825088E+02  0.19146375231E+03  0.12508958279E+03 0.  0.
         23    2    1    2    0    0  0.84119378705E+02  0.85455325285E+02  0.12433745689E+00  0.15004057492E+03  0.90185786954E+02 0.  0.
          5    1    3    3  502    0 -0.10240231402E+03 -0.24939564922E+02 -0.71265766124E+02  0.12729688777E+03  0.41800000000E+01 0. -1.
         -5    1    3    3    0  502  0.18282935311E+02 -0.60515760362E+02 -0.10173058963E+02  0.64166864537E+02  0.41800000000E+01 0. -1.
        -11    1    4    4    0    0  0.50751173449E+02  0.91363861715E+02  0.25650468935E+02  0.10761497754E+03  0.00000000000E+00 0. -1.
         11    1    4    4    0    0  0.33368205256E+02 -0.59085364300E+01 -0.25526131478E+02  0.42425597380E+02  0.00000000000E+00 0.  1.
</event>
<event>
 8    1  0.3654190E-009  0.8350939E+02  0.7561462E-02  0.1319377E+00
         -3   -1    0    0    0  501 -0.00000000000E+00  0.00000000000E+00  0.92754142079E+02  0.92754142079E+02  0.00000000000E+00 0.  1.
          3   -1    0    0  501    0  0.00000000000E+00 -0.00000000000E+00 -0.14702176814E+03  0.14702176814E+03  0.00000000000E+00 0. -1.
         25    2    1    2    0    0 -0.30060988083E+02  0.17877792689E+02 -0.48668569467E+01  0.12997913872E+03  0.12509041422E+03 0.  0.
         23    2    1    2    0    0  0.30060988083E+02 -0.17877792689E+02 -0.49400769116E+02  0.10979677150E+03  0.91605767101E+02 0.  0.
          5    1    3    3  502    0 -0.47485740602E+02  0.45972882253E+01 -0.56302819725E+02  0.73915563506E+02  0.41800000000E+01 0.  1.
         -5    1    3    3    0  502  0.17424752519E+02  0.13280504464E+02  0.51435962778E+02  0.56063575216E+02  0.41800000000E+01 0.  1.
        -11    1    4    4    0    0  0.62180368094E+02 -0.55767067588E+01 -0.39984476664E+02  0.74136739938E+02  0.00000000000E+00 0. -1.
         11    1    4    4    0    0 -0.32119380010E+02 -0.12301085930E+02 -0.94162924518E+01  0.35660031560E+02  0.00000000000E+00 0.  1.
</event>
<event>
 8    1  0.3654190E-009  0.8431644E+02  0.7561462E-02  0.1317230E+00
         -3   -1    0    0    0  501 -0.00000000000E+00  0.00000000000E+00  0.12140963248E+03  0.12140963248E+03  0.00000000000E+00 0.  1.
          3   -1    0    0  501    0  0.00000000000E+00 -0.00000000000E+00 -0.10949451606E+03  0.10949451606E+03  0.00000000000E+00 0. -1.
         25    2    1    2    0    0  0.22016995424E+02 -0.20276584307E+02 -0.22553761962E+02  0.13058439843E+03  0.12509086688E+03 0.  0.
         23    2    1    2    0    0 -0.22016995424E+02  0.20276584307E+02  0.34468878383E+02  0.10031975012E+03  0.89331185641E+02 0.  0.
          5    1    3    3  502    0 -0.21886730346E+02  0.33530140492E+02  0.24004023585E+02  0.46871791463E+02  0.41800000000E+01 0. -1.
         -5    1    3    3    0  502  0.43903725770E+02 -0.53806724799E+02 -0.46557785547E+02  0.83712606966E+02  0.41800000000E+01 0. -1.
        -11    1    4    4    0    0 -0.31899501955E+02 -0.44180973794E+01 -0.21246220321E+02  0.38581079395E+02  0.00000000000E+00 0. -1.
         11    1    4    4    0    0  0.98825065308E+01  0.24694681686E+02  0.55715098704E+02  0.61738670722E+02  0.00000000000E+00 0.  1.
</event>
<event>
 8    1  0.3654190E-009  0.1519090E+03  0.7561462E-02  0.1198147E+00
         -2   -1    0    0    0  501 -0.00000000000E+00  0.00000000000E+00  0.61954867887E+02  0.61954867887E+02  0.00000000000E+00 0.  1.
          2   -1    0    0  501    0  0.00000000000E+00 -0.00000000000E+00 -0.39972473583E+03  0.39972473583E+03  0.00000000000E+00 0. -1.
         25    2    1    2    0    0 -0.20696030336E+02 -0.10574522560E+03 -0.12797021806E+03  0.20889492571E+03  0.12510129843E+03 0.  0.
         23    2    1    2    0    0  0.20696030336E+02  0.10574522560E+03 -0.20979964988E+03  0.25278467800E+03  0.90960551529E+02 0.  0.
          5    1    3    3  502    0 -0.66025507509E+02 -0.98999529945E+02 -0.93710960337E+02  0.15152389600E+03  0.41800000000E+01 0. -1.
         -5    1    3    3    0  502  0.45329477173E+02 -0.67456956577E+01 -0.34259257722E+02  0.57371029713E+02  0.41800000000E+01 0. -1.
        -11    1    4    4    0    0 -0.34550855320E+02  0.40697760855E+02 -0.10357152319E+03  0.11652094128E+03  0.00000000000E+00 0.  1.
         11    1    4    4    0    0  0.55246885656E+02  0.65047464747E+02 -0.10622812669E+03  0.13626373672E+03  0.00000000000E+00 0. -1.
</event>
<event>
 8    1  0.3654190E-009  0.1004808E+03  0.7561462E-02  0.1279288E+00
          2   -1    0    0  501    0  0.00000000000E+00  0.00000000000E+00  0.12119345617E+03  0.12119345617E+03  0.00000000000E+00 0. -1.
         -2   -1    0    0    0  501 -0.00000000000E+00 -0.00000000000E+00 -0.11651324069E+03  0.11651324069E+03  0.00000000000E+00 0.  1.
         25    2    1    2    0    0 -0.88670161859E+01  0.45947296118E+02 -0.73166321323E+01  0.13375366647E+03  0.12508689856E+03 0.  0.
         23    2    1    2    0    0  0.88670161859E+01 -0.45947296118E+02  0.11996847612E+02  0.10395303040E+03  0.92046347994E+02 0.  0.
          5    1    3    3  502    0 -0.79446688211E+01 -0.43217810343E+02 -0.53584769609E+01  0.44464396643E+02  0.41800000000E+01 0. -1.
         -5    1    3    3    0  502 -0.92234736482E+00  0.89165106461E+02 -0.19581551713E+01  0.89289269828E+02  0.41800000000E+01 0. -1.
        -11    1    4    4    0    0 -0.14205193040E+02  0.19984622727E+01 -0.31898292732E+02  0.34975454821E+02  0.00000000000E+00 0.  1.
         11    1    4    4    0    0  0.23072209226E+02 -0.47945758391E+02  0.43895140344E+02  0.68977575574E+02  0.00000000000E+00 0. -1.
</event>
<event>
 8    1  0.3654190E-009  0.1475854E+03  0.7561462E-02  0.1203472E+00
         -2   -1    0    0    0  501 -0.00000000000E+00  0.00000000000E+00  0.14285963387E+02  0.14285963387E+02  0.00000000000E+00 0.  1.
          2   -1    0    0  501    0  0.00000000000E+00 -0.00000000000E+00 -0.15656480365E+04  0.15656480365E+04  0.00000000000E+00 0. -1.
         25    2    1    2    0    0 -0.93597564733E+02 -0.41197179107E+02 -0.78451589941E+03  0.80098074235E+03  0.12508893431E+03 0.  0.
         23    2    1    2    0    0  0.93597564733E+02  0.41197179107E+02 -0.76684617368E+03  0.77895325752E+03  0.90870301121E+02 0.  0.
          5    1    3    3  502    0 -0.50488580792E+02  0.41589241579E+02 -0.25525234319E+03  0.26353366561E+03  0.41800000000E+01 0. -1.
         -5    1    3    3    0  502 -0.43108983941E+02 -0.82786420686E+02 -0.52926355622E+03  0.53744707674E+03  0.41800000000E+01 0. -1.
        -11    1    4    4    0    0  0.19187932312E+02 -0.28422531848E+02 -0.16285101598E+03  0.16642256598E+03  0.00000000000E+00 0.  1.
         11    1    4    4    0    0  0.74409632421E+02  0.69619710954E+02 -0.60399515770E+03  0.61253069154E+03  0.00000000000E+00 0. -1.
</event>
<event>
 8    1  0.3654190E-009  0.8801466E+02  0.7561462E-02  0.1307732E+00
         -2   -1    0    0    0  501 -0.00000000000E+00  0.00000000000E+00  0.23407482575E+02  0.23407482575E+02  0.00000000000E+00 0. -1.
          2   -1    0    0  501    0  0.00000000000E+00 -0.00000000000E+00 -0.71170032829E+03  0.71170032829E+03  0.00000000000E+00 0.  1.
         25    2    1    2    0    0  0.51212246623E+02  0.11608589282E+02 -0.50550848778E+03  0.52339629516E+03  0.12508955600E+03 0.  0.
         23    2    1    2    0    0 -0.51212246623E+02 -0.11608589282E+02 -0.18278435794E+03  0.21171151571E+03  0.93027903488E+02 0.  0.
          5    1    3    3  502    0  0.53490604148E+02  0.42515351531E+02 -0.13305709179E+03  0.14963442760E+03  0.41800000000E+01 0. -1.
         -5    1    3    3    0  502 -0.22783575256E+01 -0.30906762249E+02 -0.37245139599E+03  0.37376186756E+03  0.41800000000E+01 0. -1.
        -11    1    4    4    0    0 -0.63310174803E+02 -0.94115458608E+01 -0.18781843694E+03  0.19842510094E+03  0.00000000000E+00 0.  1.
         11    1    4    4    0    0  0.12097928181E+02 -0.21970434209E+01  0.50340789991E+01  0.13286414769E+02  0.00000000000E+00 0. -1.
</event>
<event>
 8    1  0.3654190E-009  0.1702850E+03  0.7561462E-02  0.1177551E+00
         -2   -1    0    0    0  501 -0.00000000000E+00  0.00000000000E+00  0.32902745539E+03  0.32902745539E+03  0.00000000000E+00 0.  1.
          2   -1    0    0  501    0  0.00000000000E+00 -0.00000000000E+00 -0.11550262193E+03  0.11550262193E+03  0.00000000000E+00 0. -1.
         25    2    1    2    0    0  0.85073722918E+02  0.12365467198E+03  0.44614197885E+02  0.20041481253E+03  0.12509058395E+03 0.  0.
         23    2    1    2    0    0 -0.85073722918E+02 -0.12365467198E+03  0.16891063558E+03  0.24411526479E+03  0.92376639117E+02 0.  0.
          5    1    3    3  502    0  0.76563009636E+02  0.38978355812E+02 -0.25883841963E+02  0.89825677515E+02  0.41800000000E+01 0. -1.
         -5    1    3    3    0  502  0.85107132821E+01  0.84676316172E+02  0.70498039848E+02  0.11058913502E+03  0.41800000000E+01 0. -1.
        -11    1    4    4    0    0 -0.44817596940E+02 -0.12096789487E+03  0.15449314477E+03  0.20127091287E+03  0.00000000000E+00 0.  1.
         11    1    4    4    0    0 -0.40256125978E+02 -0.26867771101E+01  0.14417490811E+02  0.42844351918E+02  0.00000000000E+00 0. -1.
</event>
<event>
 8    1  0.3654190E-009  0.7457198E+02  0.7561462E-02  0.1345202E+00
         -1   -1    0    0    0  501 -0.00000000000E+00  0.00000000000E+00  0.26831871196E+03  0.26831871196E+03  0.00000000000E+00 0.  1.
          1   -1    0    0  501    0  0.00000000000E+00 -0.00000000000E+00 -0.50961035017E+02  0.50961035017E+02  0.00000000000E+00 0. -1.
         25    2    1    2    0    0  0.39412683032E+02 -0.11256401097E+02  0.15061824564E+03  0.20003290106E+03  0.12508892612E+03 0.  0.
         23    2    1    2    0    0 -0.39412683032E+02  0.11256401097E+02  0.66739431307E+02  0.11924684592E+03  0.89919922270E+02 0.  0.
          5    1    3    3  502    0  0.22166552658E+02 -0.33330165348E+02 -0.61621244020E+01  0.40714864067E+02  0.41800000000E+01 0. -1.
         -5    1    3    3    0  502  0.17246130374E+02  0.22073764251E+02  0.15678037004E+03  0.15931803699E+03  0.41800000000E+01 0. -1.
        -11    1    4    4    0    0 -0.59003549808E+02  0.23362984625E+01  0.75634408906E+02  0.95955411473E+02  0.00000000000E+00 0.  1.
         11    1    4    4    0    0  0.19590866776E+02  0.89201026341E+01 -0.88949775990E+01  0.23291434446E+02  0.00000000000E+00 0. -1.
</event>
<event>
 8    1  0.3654190E-009  0.1166707E+03  0.7561462E-02  0.1248693E+00
         -2   -1    0    0    0  501 -0.00000000000E+00  0.00000000000E+00  0.17182212191E+03  0.17182212191E+03  0.00000000000E+00 0.  1.
          2   -1    0    0  501    0  0.00000000000E+00 -0.00000000000E+00 -0.13892965797E+03  0.13892965797E+03  0.00000000000E+00 0. -1.
         25    2    1    2    0    0 -0.88237548702E+01  0.86457368180E+02  0.85100284302E+02  0.17447783434E+03  0.12509085148E+03 0.  0.
         23    2    1    2    0    0  0.88237548702E+01 -0.86457368180E+02 -0.52207820369E+02  0.13627394554E+03  0.91061498794E+02 0.  0.
          5    1    3    3  502    0 -0.15879051203E+02 -0.13025752132E+02  0.70556048690E+02  0.73603280446E+02  0.41800000000E+01 0.  1.
         -5    1    3    3    0  502  0.70552963328E+01  0.99483120312E+02  0.14544235613E+02  0.10087455389E+03  0.41800000000E+01 0.  1.
        -11    1    4    4    0    0  0.37861158552E+02 -0.68932397283E+02 -0.62907779857E+02  0.10071013598E+03  0.00000000000E+00 0.  1.
         11    1    4    4    0    0 -0.29037403682E+02 -0.17524970898E+02  0.10699959488E+02  0.35563809562E+02  0.00000000000E+00 0. -1.
</event>
<event>
 8    1  0.3654190E-009  0.1070154E+03  0.7561462E-02  0.1266199E+00
          1   -1    0    0  501    0  0.00000000000E+00  0.00000000000E+00  0.19184123086E+03  0.19184123086E+03  0.00000000000E+00 0. -1.
         -1   -1    0    0    0  501 -0.00000000000E+00 -0.00000000000E+00 -0.94410622749E+02  0.94410622749E+02  0.00000000000E+00 0.  1.
         25    2    1    2    0    0  0.63005105540E+01 -0.23244288575E+02 -0.21535088200E+02  0.12918734549E+03  0.12508244012E+03 0.  0.
         23    2    1    2    0    0 -0.63005105540E+01  0.23244288575E+02  0.11896569631E+03  0.15706450812E+03  0.99681640374E+02 0.  0.
          5    1    3    3  502    0  0.58872908717E+02 -0.16491827150E+02  0.16913594122E+02  0.63573121755E+02  0.41800000000E+01 0.  1.
         -5    1    3    3    0  502 -0.52572398163E+02 -0.67524614248E+01 -0.38448682321E+02  0.65614223734E+02  0.41800000000E+01 0.  1.
        -11    1    4    4    0    0  0.49470696488E+01 -0.37489023739E+02  0.64234904367E+02  0.74538737164E+02  0.00000000000E+00 0. -1.
         11    1    4    4    0    0 -0.11247580203E+02  0.60733312313E+02  0.54730791941E+02  0.82525770953E+02  0.00000000000E+00 0.  1.
</event>
<event>
 8    1  0.3654190E-009  0.1255431E+03  0.7561462E-02  0.1234223E+00
          1   -1    0    0  501    0  0.00000000000E+00  0.00000000000E+00  0.32413430462E+03  0.32413430462E+03  0.00000000000E+00 0. -1.
         -1   -1    0    0    0  501 -0.00000000000E+00 -0.00000000000E+00 -0.76667686565E+02  0.76667686565E+02  0.00000000000E+00 0.  1.
         25    2    1    2    0    0 -0.10890474787E+03  0.59157173988E+01  0.93292503202E+02  0.19038505106E+03  0.12509091371E+03 0.  0.
         23    2    1    2    0    0  0.10890474787E+03 -0.59157173988E+01  0.15417411486E+03  0.21041694013E+03  0.92792193527E+02 0.  0.
          5    1    3    3  502    0 -0.73722566532E+02 -0.22393851576E+00 -0.15805677051E+02  0.75513964215E+02  0.41800000000E+01 0.  1.
         -5    1    3    3    0  502 -0.35182181340E+02  0.61396559146E+01  0.10909818025E+03  0.11487108685E+03  0.41800000000E+01 0.  1.
        -11    1    4    4    0    0  0.77698572058E+02  0.38730074866E+02  0.11095351455E+03  0.14088211096E+03  0.00000000000E+00 0. -1.
         11    1    4    4    0    0  0.31206175813E+02 -0.44645792265E+02  0.43220600310E+02  0.69534829165E+02  0.00000000000E+00 0.  1.
</event>
<event>
 8    1  0.3654190E-009  0.1264817E+03  0.7561462E-02  0.1232772E+00
          1   -1    0    0  501    0  0.00000000000E+00  0.00000000000E+00  0.61287677205E+03  0.61287677205E+03  0.00000000000E+00 0. -1.
         -1   -1    0    0    0  501 -0.00000000000E+00 -0.00000000000E+00 -0.40066353148E+02  0.40066353148E+02  0.00000000000E+00 0.  1.
         25    2    1    2    0    0  0.34411935059E+02 -0.84140684744E+02  0.16820654510E+03  0.22847661848E+03  0.12507712531E+03 0.  0.
         23    2    1    2    0    0 -0.34411935059E+02  0.84140684744E+02  0.40460387380E+03  0.42446650671E+03  0.90574193471E+02 0.  0.
          5    1    3    3  502    0  0.27647157529E+02  0.25273148409E+02  0.16214850742E+02  0.41030368442E+02  0.41800000000E+01 0.  1.
         -5    1    3    3    0  502  0.67647775293E+01 -0.10941383315E+03  0.15199169436E+03  0.18744625004E+03  0.41800000000E+01 0.  1.
        -11    1    4    4    0    0  0.10990035512E+02  0.12508458212E+01  0.24137384615E+01  0.11321290969E+02  0.00000000000E+00 0.  1.
         11    1    4    4    0    0 -0.45401970571E+02  0.82889838923E+02  0.40219013534E+03  0.41314521574E+03  0.00000000000E+00 0. -1.
</event>
<event>
 8    1  0.3654190E-009  0.1865721E+03  0.7561462E-02  0.1161590E+00
         -1   -1    0    0    0  501 -0.00000000000E+00  0.00000000000E+00  0.41963134715E+03  0.41963134715E+03  0.00000000000E+00 0.  1.
          1   -1    0    0  501    0  0.00000000000E+00 -0.00000000000E+00 -0.94718874580E+02  0.94718874580E+02  0.00000000000E+00 0. -1.
         25    2    1    2    0    0 -0.88245251829E+02  0.13763838657E+03  0.21573707808E+03  0.29819631117E+03  0.12508798189E+03 0.  0.
         23    2    1    2    0    0  0.88245251829E+02 -0.13763838657E+03  0.10917539449E+03  0.21615391056E+03  0.89842619950E+02 0.  0.
          5    1    3    3  502    0 -0.11981172923E+03  0.96877016147E+02  0.16203913585E+03  0.22363845972E+03  0.41800000000E+01 0. -1.
         -5    1    3    3    0  502  0.31566477400E+02  0.40761370421E+02  0.53697942229E+02  0.74557851455E+02  0.41800000000E+01 0. -1.
        -11    1    4    4    0    0  0.42848401079E+02 -0.98233437742E+02  0.11322676316E+03  0.15590411688E+03  0.00000000000E+00 0.  1.
         11    1    4    4    0    0  0.45396850750E+02 -0.39404948826E+02 -0.40513686642E+01  0.60249793676E+02  0.00000000000E+00 0. -1.
</event>
<event>
 8    1  0.3654190E-009  0.1322549E+03  0.7561462E-02  0.1224148E+00
          2   -1    0    0  501    0  0.00000000000E+00  0.00000000000E+00  0.35167466294E+03  0.35167466294E+03  0.00000000000E+00 0. -1.
         -2   -1    0    0    0  501 -0.00000000000E+00 -0.00000000000E+00 -0.75586039788E+02  0.75586039788E+02  0.00000000000E+00 0.  1.
         25    2    1    2    0    0  0.16201384237E+02 -0.81487617312E+02  0.26292758513E+03  0.30278746419E+03  0.12508643741E+03 0.  0.
         23    2    1    2    0    0 -0.16201384237E+02  0.81487617312E+02  0.13161038020E+02  0.12447323853E+03  0.91747793229E+02 0.  0.
          5    1    3    3  502    0 -0.86593154213E+01  0.27883615072E+02  0.21355871738E+02  0.36414631548E+02  0.41800000000E+01 0.  1.
         -5    1    3    3    0  502  0.24860699658E+02 -0.10937123238E+03  0.24157171339E+03  0.26637283265E+03  0.41800000000E+01 0.  1.
        -11    1    4    4    0    0 -0.16825985264E+02  0.10143381913E+03  0.16814152959E+02  0.10418564769E+03  0.00000000000E+00 0.  1.
         11    1    4    4    0    0  0.62460102762E+00 -0.19946201821E+02 -0.36531149389E+01  0.20287590845E+02  0.00000000000E+00 0. -1.
</event>
<event>
 8    1  0.3654190E-009  0.1286767E+03  0.7561462E-02  0.1229433E+00
         -4   -1    0    0    0  501 -0.00000000000E+00  0.00000000000E+00  0.23018175061E+03  0.23018175061E+03  0.00000000000E+00 0.  1.
          4   -1    0    0  501    0  0.00000000000E+00 -0.00000000000E+00 -0.15235948929E+03  0.15235948929E+03  0.00000000000E+00 0. -1.
         25    2    1    2    0    0 -0.28676151408E+01  0.11164707960E+03  0.14678834093E+03  0.22286197519E+03  0.12508936548E+03 0.  0.
         23    2    1    2    0    0  0.28676151408E+01 -0.11164707960E+03 -0.68966079606E+02  0.15967926471E+03  0.90927739680E+02 0.  0.
          5    1    3    3  502    0 -0.31576044130E+02  0.11190874969E+03  0.15395531358E+03  0.19297752667E+03  0.41800000000E+01 0. -1.
         -5    1    3    3    0  502  0.28708428990E+02 -0.26167008995E+00 -0.71669726570E+01  0.29884448520E+02  0.41800000000E+01 0. -1.
        -11    1    4    4    0    0  0.44442256241E+01 -0.30181356926E+02  0.21958197711E+02  0.37587602930E+02  0.00000000000E+00 0.  1.
         11    1    4    4    0    0 -0.15766104833E+01 -0.81465722672E+02 -0.90924277317E+02  0.12209166178E+03  0.00000000000E+00 0. -1.
</event>
<event>
 8    1  0.3654190E-009  0.1009052E+03  0.7561462E-02  0.1278404E+00
          2   -1    0    0  501    0  0.00000000000E+00  0.00000000000E+00  0.10654736255E+04  0.10654736255E+04  0.00000000000E+00 0.  1.
         -2   -1    0    0    0  501 -0.00000000000E+00 -0.00000000000E+00 -0.25433158320E+02  0.25433158320E+02  0.00000000000E+00 0. -1.
         25    2    1    2    0    0  0.34488537042E+02  0.64818419858E+02  0.88034548675E+03  0.89221443244E+03  0.12509009025E+03 0.  0.
         23    2    1    2    0    0 -0.34488537042E+02 -0.64818419858E+02  0.15969498047E+03  0.19869235142E+03  0.92656769769E+02 0.  0.
          5    1    3    3  502    0  0.12243207529E+02  0.68108032571E+02  0.85602750233E+03  0.85883010973E+03  0.41800000000E+01 0. -1.
         -5    1    3    3    0  502  0.22245329513E+02 -0.32896127129E+01  0.24317984423E+02  0.33384322718E+02  0.41800000000E+01 0. -1.
        -11    1    4    4    0    0  0.25303524379E+02 -0.65808626969E+01  0.11402149070E+02  0.28523413247E+02  0.00000000000E+00 0. -1.
         11    1    4    4    0    0 -0.59792061422E+02 -0.58237557161E+02  0.14829283140E+03  0.17016893817E+03  0.00000000000E+00 0.  1.
</event>
<event>
 8    1  0.3654190E-009  0.1802280E+03  0.7561462E-02  0.1167583E+00
          1   -1    0    0  501    0  0.00000000000E+00  0.00000000000E+00  0.19977979306E+03  0.19977979306E+03  0.00000000000E+00 0. -1.
         -1   -1    0    0    0  501 -0.00000000000E+00 -0.00000000000E+00 -0.25573122734E+03  0.25573122734E+03  0.00000000000E+00 0.  1.
         25    2    1    2    0    0 -0.11926719591E+03  0.11577133541E+03 -0.13807225812E+03  0.24967824439E+03  0.12509041184E+03 0.  0.
         23    2    1    2    0    0  0.11926719591E+03 -0.11577133541E+03  0.82120823842E+02  0.20583277601E+03  0.89418319416E+02 0.  0.
          5    1    3    3  502    0 -0.83615953109E+02  0.12515381538E+03 -0.14814550061E+03  0.21123367835E+03  0.41800000000E+01 0. -1.
         -5    1    3    3    0  502 -0.35651242803E+02 -0.93824799690E+01  0.10073242487E+02  0.38444566040E+02  0.41800000000E+01 0. -1.
        -11    1    4    4    0    0  0.79363183209E+02 -0.44212468636E+02  0.14615235237E+01  0.90859194817E+02  0.00000000000E+00 0.  1.
         11    1    4    4    0    0  0.39904012703E+02 -0.71558866776E+02  0.80659300318E+02  0.11497358119E+03  0.00000000000E+00 0. -1.
</event>
<event>
 8    1  0.3654190E-009  0.1116904E+03  0.7561462E-02  0.1257471E+00
         -1   -1    0    0    0  501 -0.00000000000E+00  0.00000000000E+00  0.12699127973E+03  0.12699127973E+03  0.00000000000E+00 0.  1.
          1   -1    0    0  501    0  0.00000000000E+00 -0.00000000000E+00 -0.11884522724E+03  0.11884522724E+03  0.00000000000E+00 0. -1.
         25    2    1    2    0    0 -0.45705118667E+02 -0.36681734081E+02 -0.19054081269E+01  0.13815319693E+03  0.12509263669E+03 0.  0.
         23    2    1    2    0    0  0.45705118667E+02  0.36681734081E+02  0.10051460621E+02  0.10768331004E+03  0.89778371072E+02 0.  0.
          5    1    3    3  502    0 -0.80181536430E+02 -0.35487179761E+02  0.28173867074E+02  0.92193589244E+02  0.41800000000E+01 0.  1.
         -5    1    3    3    0  502  0.34476417764E+02 -0.11945543195E+01 -0.30079275201E+02  0.45959607684E+02  0.41800000000E+01 0.  1.
        -11    1    4    4    0    0  0.38878482956E+02  0.62795618219E+02 -0.93446035981E+01  0.74445602428E+02  0.00000000000E+00 0. -1.
         11    1    4    4    0    0  0.68266357106E+01 -0.26113884138E+02  0.19396064219E+02  0.33237707609E+02  0.00000000000E+00 0.  1.
</event>
<event>
 8    1  0.3654190E-009  0.2660830E+03  0.7561462E-02  0.1103543E+00
          3   -1    0    0  501    0  0.00000000000E+00  0.00000000000E+00  0.10946266534E+04  0.10946266534E+04  0.00000000000E+00 0. -1.
         -3   -1    0    0    0  501 -0.00000000000E+00 -0.00000000000E+00 -0.67391002291E+02  0.67391002291E+02  0.00000000000E+00 0.  1.
         25    2    1    2    0    0  0.94391561428E+01  0.24871987526E+03  0.54219259285E+03  0.60956626426E+03  0.12509016253E+03 0.  0.
         23    2    1    2    0    0 -0.94391561428E+01 -0.24871987526E+03  0.48504305826E+03  0.55245139143E+03  0.89359372819E+02 0.  0.
          5    1    3    3  502    0 -0.45199106430E+02  0.19310559697E+03  0.35342004854E+03  0.40528500331E+03  0.41800000000E+01 0.  1.
         -5    1    3    3    0  502  0.54638262573E+02  0.55614278293E+02  0.18877254431E+03  0.20428126095E+03  0.41800000000E+01 0.  1.
        -11    1    4    4    0    0  0.52950574315E+00 -0.24512374712E+03  0.48302532618E+03  0.54166354641E+03  0.00000000000E+00 0. -1.
         11    1    4    4    0    0 -0.99686618860E+01 -0.35961281418E+01  0.20177320755E+01  0.10787845018E+02  0.00000000000E+00 0.  1.
</event>
<event>
 8    1  0.3654190E-009  0.9359031E+02  0.7561462E-02  0.1294383E+00
          1   -1    0    0  501    0  0.00000000000E+00  0.00000000000E+00  0.22013060783E+03  0.22013060783E+03  0.00000000000E+00 0. -1.
         -1   -1    0    0    0  501 -0.00000000000E+00 -0.00000000000E+00 -0.60720376602E+02  0.60720376602E+02  0.00000000000E+00 0.  1.
         25    2    1    2    0    0  0.16837233755E+02  0.34980951882E+02  0.95070218458E+02  0.16184418453E+03  0.12509210285E+03 0.  0.
         23    2    1    2    0    0 -0.16837233755E+02 -0.34980951882E+02  0.64340012774E+02  0.11900679990E+03  0.92281210136E+02 0.  0.
          5    1    3    3  502    0 -0.38870551383E+01  0.57234682335E+02  0.11264019730E+03  0.12647610251E+03  0.41800000000E+01 0. -1.
         -5    1    3    3    0  502  0.20724288893E+02 -0.22253730453E+02 -0.17569978841E+02  0.35368082019E+02  0.41800000000E+01 0. -1.
        -11    1    4    4    0    0 -0.54572833807E+02 -0.24375297186E+02  0.29910715594E+02  0.66835620817E+02  0.00000000000E+00 0. -1.
         11    1    4    4    0    0  0.37735600052E+02 -0.10605654696E+02  0.34429297180E+02  0.52171179085E+02  0.00000000000E+00 0.  1.
</event>
<event>
 8    1  0.3654190E-009  0.9946853E+02  0.7561462E-02  0.1281418E+00
          2   -1    0    0  501    0  0.00000000000E+00  0.00000000000E+00  0.11907505940E+04  0.11907505940E+04  0.00000000000E+00 0.  1.
         -2   -1    0    0    0  501 -0.00000000000E+00 -0.00000000000E+00 -0.17118986439E+02  0.17118986439E+02  0.00000000000E+00 0. -1.
         25    2    1    2    0    0 -0.71455620519E+02 -0.54285869819E+02  0.69873273008E+03  0.71549080342E+03  0.12508717093E+03 0.  0.
         23    2    1    2    0    0  0.71455620519E+02  0.54285869819E+02  0.47489887750E+03  0.49237877704E+03  0.94101301049E+02 0.  0.
          5    1    3    3  502    0 -0.45677835528E+02 -0.56943448463E+02  0.67829106780E+03  0.68222083378E+03  0.41800000000E+01 0.  1.
         -5    1    3    3    0  502 -0.25777784991E+02  0.26575786441E+01  0.20441662273E+02  0.33269969639E+02  0.41800000000E+01 0.  1.
        -11    1    4    4    0    0  0.76747397867E+02  0.45242461192E+02  0.47349948625E+03  0.48180785262E+03  0.00000000000E+00 0.  1.
         11    1    4    4    0    0 -0.52917773479E+01  0.90434086271E+01  0.13993912557E+01  0.10570924415E+02  0.00000000000E+00 0. -1.
</event>
<event>
 8    1  0.3654190E-009  0.9770486E+02  0.7561462E-02  0.1285198E+00
         -2   -1    0    0    0  501 -0.00000000000E+00  0.00000000000E+00  0.81526959093E+02  0.81526959093E+02  0.00000000000E+00 0.  1.
          2   -1    0    0  501    0  0.00000000000E+00 -0.00000000000E+00 -0.16192791982E+03  0.16192791982E+03  0.00000000000E+00 0. -1.
         25    2    1    2    0    0  0.11368946831E+02  0.96497482233E+00 -0.84268040512E+02  0.15125680275E+03  0.12508930249E+03 0.  0.
         23    2    1    2    0    0 -0.11368946831E+02 -0.96497482233E+00  0.38670797849E+01  0.92198076165E+02  0.91407586195E+02 0.  0.
          5    1    3    3  502    0 -0.42339761638E+02  0.19308315613E+02 -0.81911317360E+02  0.94299537533E+02  0.41800000000E+01 0. -1.
         -5    1    3    3    0  502  0.53708708469E+02 -0.18343340791E+02 -0.23567231524E+01  0.56957265215E+02  0.41800000000E+01 0. -1.
        -11    1    4    4    0    0 -0.11596218943E+02  0.44666502899E+02 -0.19990181364E+01  0.46190527692E+02  0.00000000000E+00 0. -1.
         11    1    4    4    0    0  0.22727211232E+00 -0.45631477721E+02  0.58660979213E+01  0.46007548473E+02  0.00000000000E+00 0.  1.
</event>
<event>
 8    1  0.3654190E-009  0.1089575E+03  0.7561462E-02  0.1262513E+00
         -1   -1    0    0    0  501 -0.00000000000E+00  0.00000000000E+00  0.35103052687E+03  0.35103052687E+03  0.00000000000E+00 0.  1.
          1   -1    0    0  501    0  0.00000000000E+00 -0.00000000000E+00 -0.37379458850E+02  0.37379458850E+02  0.00000000000E+00 0. -1.
         25    2    1    2    0    0  0.18717488709E+02  0.27564731940E+02  0.15377228178E+03  0.20100371561E+03  0.12508565152E+03 0.  0.
         23    2    1    2    0    0 -0.18717488709E+02 -0.27564731940E+02  0.15987878624E+03  0.18740627011E+03  0.91922385500E+02 0.  0.
          5    1    3    3  502    0 -0.42645435150E+02 -0.24056354538E+02  0.59557145083E+02  0.77213128826E+02  0.41800000000E+01 0.  1.
         -5    1    3    3    0  502  0.61362923859E+02  0.51621086478E+02  0.94215136701E+02  0.12379058679E+03  0.41800000000E+01 0.  1.
        -11    1    4    4    0    0  0.29173644518E+02 -0.28209600110E+02  0.11429699632E+03  0.12128761866E+03  0.00000000000E+00 0. -1.
         11    1    4    4    0    0 -0.47891133227E+02  0.64486816985E+00  0.45581789914E+02  0.66118651442E+02  0.00000000000E+00 0.  1.
</event>
<event>
 8    1  0.3654190E-009  0.1156143E+03  0.7561462E-02  0.1250513E+00
         -1   -1    0    0    0  501 -0.00000000000E+00  0.00000000000E+00  0.74141656230E+02  0.74141656230E+02  0.00000000000E+00 0.  1.
          1   -1    0    0  501    0  0.00000000000E+00 -0.00000000000E+00 -0.26201642446E+03  0.26201642446E+03  0.00000000000E+00 0. -1.
         25    2    1    2    0    0 -0.75068311703E+02 -0.33469087333E+02 -0.12028041491E+03  0.19201857282E+03  0.12509325668E+03 0.  0.
         23    2    1    2    0    0  0.75068311703E+02  0.33469087333E+02 -0.67594353321E+02  0.14413950787E+03  0.97220213436E+02 0.  0.
          5    1    3    3  502    0 -0.14731345467E+01 -0.67638408843E+02 -0.45871014894E+02  0.81845872734E+02  0.41800000000E+01 0. -1.
         -5    1    3    3    0  502 -0.73595177156E+02  0.34169321510E+02 -0.74409400020E+02  0.11017270009E+03  0.41800000000E+01 0. -1.
        -11    1    4    4    0    0  0.18861102875E+02  0.79592128667E+01 -0.78790924541E+02  0.81407002532E+02  0.00000000000E+00 0. -1.
         11    1    4    4    0    0  0.56207208828E+02  0.25509874466E+02  0.11196571220E+02  0.62732505343E+02  0.00000000000E+00 0.  1.
</event>
<event>
 8    1  0.3654190E-009  0.1135098E+03  0.7561462E-02  0.1254205E+00
          2   -1    0    0  501    0  0.00000000000E+00  0.00000000000E+00  0.85447844610E+03  0.85447844610E+03  0.00000000000E+00 0. -1.
         -2   -1    0    0    0  501 -0.00000000000E+00 -0.00000000000E+00 -0.20093432339E+02  0.20093432339E+02  0.00000000000E+00 0.  1.
         25    2    1    2    0    0  0.34288692873E+01 -0.39049721051E+02  0.66853374538E+03  0.68126454370E+03  0.12508945572E+03 0.  0.
         23    2    1    2    0    0 -0.34288692873E+01  0.39049721051E+02  0.16585126839E+03  0.19330733475E+03  0.91238394233E+02 0.  0.
          5    1    3    3  502    0 -0.28502462661E+02 -0.74762115891E+02  0.34530005520E+03  0.35447336271E+03  0.41800000000E+01 0.  1.
         -5    1    3    3    0  502  0.31931331948E+02  0.35712394840E+02  0.32323369018E+03  0.32679118099E+03  0.41800000000E+01 0.  1.
        -11    1    4    4    0    0  0.43022616200E+02  0.10491652844E+02  0.83966864733E+02  0.94928681952E+02  0.00000000000E+00 0.  1.
         11    1    4    4    0    0 -0.46451485487E+02  0.28558068208E+02  0.81884403656E+02  0.98378652796E+02  0.00000000000E+00 0. -1.
</event>
<event>
 8    1  0.3654190E-009  0.1113240E+03  0.7561462E-02  0.1258137E+00
         -2   -1    0    0    0  501 -0.00000000000E+00  0.00000000000E+00  0.16475168065E+03  0.16475168065E+03  0.00000000000E+00 0.  1.
          2   -1    0    0  501    0  0.00000000000E+00 -0.00000000000E+00 -0.88983141951E+02  0.88983141951E+02  0.00000000000E+00 0. -1.
         25    2    1    2    0    0  0.86976365718E+01  0.54149186391E+02  0.65496290964E+02  0.15147571989E+03  0.12508935333E+03 0.  0.
         23    2    1    2    0    0 -0.86976365718E+01 -0.54149186391E+02  0.10272247737E+02  0.10225910272E+03  0.85694934190E+02 0.  0.
          5    1    3    3  502    0  0.62272040228E+02  0.61271648748E+01  0.42773088741E+02  0.75910201317E+02  0.41800000000E+01 0. -1.
         -5    1    3    3    0  502 -0.53574403656E+02  0.48022021516E+02  0.22723202222E+02  0.75565518571E+02  0.41800000000E+01 0. -1.
        -11    1    4    4    0    0  0.28779253162E+02 -0.36393398718E+02  0.31096061039E+02  0.55854184221E+02  0.00000000000E+00 0.  1.
         11    1    4    4    0    0 -0.37476889734E+02 -0.17755787673E+02 -0.20823813302E+02  0.46404918494E+02  0.00000000000E+00 0. -1.
</event>
<event>
 8    1  0.3654190E-009  0.1056203E+03  0.7561462E-02  0.1268902E+00
         -1   -1    0    0    0  501 -0.00000000000E+00  0.00000000000E+00  0.31039814186E+03  0.31039814186E+03  0.00000000000E+00 0.  1.
          1   -1    0    0  501    0  0.00000000000E+00 -0.00000000000E+00 -0.43355656410E+02  0.43355656410E+02  0.00000000000E+00 0. -1.
         25    2    1    2    0    0  0.10861275913E+02  0.28177964039E+02  0.11336070224E+03  0.17149486366E+03  0.12509146445E+03 0.  0.
         23    2    1    2    0    0 -0.10861275913E+02 -0.28177964039E+02  0.15368178322E+03  0.18225893461E+03  0.93210856565E+02 0.  0.
          5    1    3    3  502    0  0.60527239600E+02  0.20062215005E+02  0.22877411331E+02  0.67874056559E+02  0.41800000000E+01 0. -1.
         -5    1    3    3    0  502 -0.49665963687E+02  0.81157490340E+01  0.90483290905E+02  0.10362080710E+03  0.41800000000E+01 0. -1.
        -11    1    4    4    0    0 -0.77134160851E+01 -0.62198225747E+02  0.85674831121E+02  0.10615221506E+03  0.00000000000E+00 0. -1.
         11    1    4    4    0    0 -0.31478598279E+01  0.34020261708E+02  0.68006952097E+02  0.76106719557E+02  0.00000000000E+00 0.  1.
</event>
<event>
 8    1  0.3654190E-009  0.2662803E+03  0.7561462E-02  0.1103428E+00
          3   -1    0    0  501    0  0.00000000000E+00  0.00000000000E+00  0.99343107639E+03  0.99343107639E+03  0.00000000000E+00 0. -1.
         -3   -1    0    0    0  501 -0.00000000000E+00 -0.00000000000E+00 -0.78664334542E+02  0.78664334542E+02  0.00000000000E+00 0.  1.
         25    2    1    2    0    0  0.24957006686E+03  0.17999587237E+02  0.36185574350E+03  0.45737924927E+03  0.12508794965E+03 0.  0.
         23    2    1    2    0    0 -0.24957006686E+03 -0.17999587237E+02  0.55291099834E+03  0.61471616166E+03  0.97755735912E+02 0.  0.
          5    1    3    3  502    0 -0.18666213939E+01 -0.10531908941E+02 -0.43067061525E+01  0.12264807346E+02  0.41800000000E+01 0.  1.
         -5    1    3    3    0  502  0.25143668825E+03  0.28531496178E+02  0.36616244965E+03  0.44511444192E+03  0.41800000000E+01 0.  1.
        -11    1    4    4    0    0 -0.65085421663E+02 -0.48281796747E+02  0.14816980870E+03  0.16888320289E+03  0.00000000000E+00 0.  1.
         11    1    4    4    0    0 -0.18448464519E+03  0.30282209510E+02  0.40474118965E+03  0.44583295876E+03  0.00000000000E+00 0. -1.
</event>
<event>
 8    1  0.3654190E-009  0.1451459E+03  0.7561462E-02  0.1206568E+00
         -2   -1    0    0    0  501 -0.00000000000E+00  0.00000000000E+00  0.24371999085E+02  0.24371999085E+02  0.00000000000E+00 0.  1.
          2   -1    0    0  501    0  0.00000000000E+00 -0.00000000000E+00 -0.94331603729E+03  0.94331603729E+03  0.00000000000E+00 0. -1.
         25    2    1    2    0    0 -0.74218898322E+02  0.69406135040E+02 -0.60010668241E+03  0.62136984617E+03  0.12508716560E+03 0.  0.
         23    2    1    2    0    0  0.74218898322E+02 -0.69406135040E+02 -0.31883735579E+03  0.34631819021E+03  0.89181685184E+02 0.  0.
          5    1    3    3  502    0 -0.11323136988E+02 -0.35875632710E+02 -0.11990359660E+03  0.12573630873E+03  0.41800000000E+01 0.  1.
         -5    1    3    3    0  502 -0.62895761334E+02  0.10528176775E+03 -0.48020308581E+03  0.49563353744E+03  0.41800000000E+01 0.  1.
        -11    1    4    4    0    0  0.28784349580E+02  0.16043099466E+02 -0.44227551281E+02  0.55154293699E+02  0.00000000000E+00 0.  1.
         11    1    4    4    0    0  0.45434548743E+02 -0.85449234506E+02 -0.27460980451E+03  0.29116389651E+03  0.00000000000E+00 0. -1.
</event>
<event>
 8    1  0.3654190E-009  0.1830545E+03  0.7561462E-02  0.1164879E+00
          2   -1    0    0  501    0  0.00000000000E+00  0.00000000000E+00  0.10013276190E+04  0.10013276190E+04  0.00000000000E+00 0. -1.
         -2   -1    0    0    0  501 -0.00000000000E+00 -0.00000000000E+00 -0.38341146764E+02  0.38341146764E+02  0.00000000000E+00 0.  1.
         25    2    1    2    0    0 -0.76387462758E+02  0.13624313582E+03  0.62432831765E+03  0.65561405856E+03  0.12508680600E+03 0.  0.
         23    2    1    2    0    0  0.76387462758E+02 -0.13624313582E+03  0.33865815461E+03  0.38405470723E+03  0.91713880826E+02 0.  0.
          5    1    3    3  502    0  0.24467055580E+02  0.31699336192E+02  0.55811278490E+02  0.68817555394E+02  0.41800000000E+01 0. -1.
         -5    1    3    3    0  502 -0.10085451834E+03  0.10454379963E+03  0.56851703916E+03  0.58679650317E+03  0.41800000000E+01 0. -1.
        -11    1    4    4    0    0  0.76993787135E+02 -0.44796966108E+02  0.15142817806E+03  0.17568524281E+03  0.00000000000E+00 0.  1.
         11    1    4    4    0    0 -0.60632437698E+00 -0.91446169714E+02  0.18722997654E+03  0.20836946442E+03  0.00000000000E+00 0. -1.
</event>
<event>
 8    1  0.3654190E-009  0.8444594E+02  0.7561462E-02  0.1316888E+00
          1   -1    0    0  501    0  0.00000000000E+00  0.00000000000E+00  0.42905406422E+03  0.42905406422E+03  0.00000000000E+00 0. -1.
         -1   -1    0    0    0  501 -0.00000000000E+00 -0.00000000000E+00 -0.52238647553E+02  0.52238647553E+02  0.00000000000E+00 0.  1.
         25    2    1    2    0    0  0.56744657596E+02 -0.12892902715E+02  0.33763758465E+03  0.36473774910E+03  0.12509318103E+03 0.  0.
         23    2    1    2    0    0 -0.56744657596E+02  0.12892902715E+02  0.39177832015E+02  0.11655496268E+03  0.93080468933E+02 0.  0.
          5    1    3    3  502    0  0.11213327449E+02 -0.32133129119E+02  0.30130395450E+03  0.30324877921E+03  0.41800000000E+01 0.  1.
         -5    1    3    3    0  502  0.45531330147E+02  0.19240226404E+02  0.36333630155E+02  0.61488969883E+02  0.41800000000E+01 0.  1.
        -11    1    4    4    0    0 -0.67540022248E+02 -0.81913725780E+00  0.59326146777E+02  0.89899484328E+02  0.00000000000E+00 0. -1.
         11    1    4    4    0    0  0.10795364652E+02  0.13712039973E+02 -0.20148314762E+02  0.26655478348E+02  0.00000000000E+00 0.  1.
</event>
<event>
 8    1  0.3654190E-009  0.1227452E+03  0.7561462E-02  0.1238636E+00
         -1   -1    0    0    0  501 -0.00000000000E+00  0.00000000000E+00  0.43635154365E+02  0.43635154365E+02  0.00000000000E+00 0.  1.
          1   -1    0    0  501    0  0.00000000000E+00 -0.00000000000E+00 -0.38871189113E+03  0.38871189113E+03  0.00000000000E+00 0. -1.
         25    2    1    2    0    0 -0.63520773017E+02  0.24293971840E+02 -0.16482762576E+03  0.21780482453E+03  0.12508281137E+03 0.  0.
         23    2    1    2    0    0  0.63520773017E+02 -0.24293971840E+02 -0.18024911100E+03  0.21454222096E+03  0.94411529418E+02 0.  0.
          5    1    3    3  502    0  0.37079404566E+02  0.12212437459E+02 -0.31755350338E+02  0.50496539948E+02  0.41800000000E+01 0.  1.
         -5    1    3    3    0  502 -0.10060017758E+03  0.12081534381E+02 -0.13307227542E+03  0.16730828458E+03  0.41800000000E+01 0.  1.
        -11    1    4    4    0    0 -0.13277609961E+02 -0.24674201055E+02 -0.13808606693E+02  0.31237617431E+02  0.00000000000E+00 0.  1.
         11    1    4    4    0    0  0.76798382978E+02  0.38022921503E+00 -0.16644050430E+03  0.18330460353E+03  0.00000000000E+00 0. -1.
</event>
<event>
 8    1  0.3654190E-009  0.2410823E+03  0.7561462E-02  0.1119074E+00
         -3   -1    0    0    0  501 -0.00000000000E+00  0.00000000000E+00  0.79073056922E+02  0.79073056922E+02  0.00000000000E+00 0.  1.
          3   -1    0    0  501    0  0.00000000000E+00 -0.00000000000E+00 -0.85774965383E+03  0.85774965383E+03  0.00000000000E+00 0. -1.
         25    2    1    2    0    0 -0.17296421002E+02 -0.23551553061E+03 -0.42695525938E+03  0.50369048602E+03  0.12508629363E+03 0.  0.
         23    2    1    2    0    0  0.17296421002E+02  0.23551553061E+03 -0.35172133753E+03  0.43313222474E+03  0.90160376515E+02 0.  0.
          5    1    3    3  502    0 -0.36142780487E+02 -0.15609932761E+03 -0.37239280842E+03  0.40542222044E+03  0.41800000000E+01 0. -1.
         -5    1    3    3    0  502  0.18846359485E+02 -0.79416203003E+02 -0.54562450958E+02  0.98268265579E+02  0.41800000000E+01 0. -1.
        -11    1    4    4    0    0  0.31929906779E+02  0.14620447034E+03 -0.14924996482E+03  0.21135472101E+03  0.00000000000E+00 0.  1.
         11    1    4    4    0    0 -0.14633485777E+02  0.89311060270E+02 -0.20247137271E+03  0.22177750372E+03  0.00000000000E+00 0. -1.
</event>
<event>
 8    1  0.3654190E-009  0.1213748E+03  0.7561462E-02  0.1240846E+00
          1   -1    0    0  501    0  0.00000000000E+00  0.00000000000E+00  0.69857383607E+03  0.69857383607E+03  0.00000000000E+00 0. -1.
         -1   -1    0    0    0  501 -0.00000000000E+00 -0.00000000000E+00 -0.31826795079E+02  0.31826795079E+02  0.00000000000E+00 0.  1.
         25    2    1    2    0    0  0.51700021277E+02 -0.48032599720E+02  0.18063982068E+03  0.23077744541E+03  0.12508981436E+03 0.  0.
         23    2    1    2    0    0 -0.51700021277E+02  0.48032599720E+02  0.48610722031E+03  0.49962318574E+03  0.91340436063E+02 0.  0.
          5    1    3    3  502    0 -0.33537466897E+02 -0.26153273844E+02  0.19170405763E+02  0.46837295777E+02  0.41800000000E+01 0.  1.
         -5    1    3    3    0  502  0.85237488174E+02 -0.21879325877E+02  0.16146941492E+03  0.18394014963E+03  0.41800000000E+01 0.  1.
        -11    1    4    4    0    0 -0.12802215709E+02  0.67300192866E+02  0.23461963196E+03  0.24441682509E+03  0.00000000000E+00 0. -1.
         11    1    4    4    0    0 -0.38897805568E+02 -0.19267593145E+02  0.25148758835E+03  0.25520636065E+03  0.00000000000E+00 0.  1.
</event>
<event>
 8    1  0.3654190E-009  0.1179107E+03  0.7561462E-02  0.1246584E+00
          2   -1    0    0  501    0  0.00000000000E+00  0.00000000000E+00  0.21637897145E+03  0.21637897145E+03  0.00000000000E+00 0. -1.
         -2   -1    0    0    0  501 -0.00000000000E+00 -0.00000000000E+00 -0.11479075166E+03  0.11479075166E+03  0.00000000000E+00 0.  1.
         25    2    1    2    0    0 -0.10020508273E+03  0.51690717451E+02  0.46991655681E+02  0.17483727288E+03  0.12508743906E+03 0.  0.
         23    2    1    2    0    0  0.10020508273E+03 -0.51690717451E+02  0.54596564106E+02  0.15633245023E+03  0.93520379104E+02 0.  0.
          5    1    3    3  502    0 -0.84906126809E+02  0.41397611916E+02  0.88322197995E+02  0.12938738617E+03  0.41800000000E+01 0. -1.
         -5    1    3    3    0  502 -0.15298955919E+02  0.10293105535E+02 -0.41330542314E+02  0.45449886707E+02  0.41800000000E+01 0. -1.
        -11    1    4    4    0    0  0.10804038978E+02 -0.27796047565E+02  0.56374235460E+02  0.63776186326E+02  0.00000000000E+00 0. -1.
         11    1    4    4    0    0  0.89401043750E+02 -0.23894669885E+02 -0.17776713542E+01  0.92556263905E+02  0.00000000000E+00 0.  1.
</event>
<event>
 8    1  0.3654190E-009  0.2155632E+03  0.7561462E-02  0.1137235E+00
          2   -1    0    0  501    0  0.00000000000E+00  0.00000000000E+00  0.15364286049E+04  0.15364286049E+04  0.00000000000E+00 0. -1.
         -2   -1    0    0    0  501 -0.00000000000E+00 -0.00000000000E+00 -0.35194892602E+02  0.35194892602E+02  0.00000000000E+00 0.  1.
         25    2    1    2    0    0 -0.80305590760E+02  0.18672299253E+03  0.86364830977E+03  0.89601906998E+03  0.12508919599E+03 0.  0.
         23    2    1    2    0    0  0.80305590760E+02 -0.18672299253E+03  0.63758540256E+03  0.67560442756E+03  0.92799424158E+02 0.  0.
          5    1    3    3  502    0 -0.64342338165E+02  0.18783299272E+03  0.85417990101E+03  0.87696176959E+03  0.41800000000E+01 0.  1.
         -5    1    3    3    0  502 -0.15963252595E+02 -0.11100001861E+01  0.94684087673E+01  0.19057300397E+02  0.41800000000E+01 0.  1.
        -11    1    4    4    0    0  0.80573653248E+02 -0.96254297227E+02  0.28173840823E+03  0.30843724484E+03  0.00000000000E+00 0.  1.
         11    1    4    4    0    0 -0.26806248864E+00 -0.90468695307E+02  0.35584699433E+03  0.36716718272E+03  0.00000000000E+00 0. -1.
</event>
<event>
 8    1  0.3654190E-009  0.1017160E+03  0.7561462E-02  0.1276728E+00
         -2   -1    0    0    0  501 -0.00000000000E+00  0.00000000000E+00  0.15233247041E+02  0.15233247041E+02  0.00000000000E+00 0.  1.
          2   -1    0    0  501    0  0.00000000000E+00 -0.00000000000E+00 -0.10466806275E+04  0.10466806275E+04  0.00000000000E+00 0. -1.
         25    2    1    2    0    0  0.34351723484E+02  0.22102110536E+02 -0.77292968201E+03  0.78405188339E+03  0.12509403790E+03 0.  0.
         23    2    1    2    0    0 -0.34351723484E+02 -0.22102110536E+02 -0.25851769843E+03  0.27786199113E+03  0.93313136899E+02 0.  0.
          5    1    3    3  502    0  0.32466232230E+02  0.57470958333E+02 -0.21404946496E+03  0.22403484804E+03  0.41800000000E+01 0.  1.
         -5    1    3    3    0  502  0.18854912535E+01 -0.35368847796E+02 -0.55888021705E+03  0.56001703535E+03  0.41800000000E+01 0.  1.
        -11    1    4    4    0    0 -0.12440756089E+02 -0.58137452323E+02 -0.16042210610E+03  0.17108473894E+03  0.00000000000E+00 0. -1.
         11    1    4    4    0    0 -0.21910967395E+02  0.36035341787E+02 -0.98095592334E+02  0.10677725219E+03  0.00000000000E+00 0.  1.
</event>
<event>
 8    1  0.3654190E-009  0.1048201E+03  0.7561462E-02  0.1270475E+00
          1   -1    0    0  501    0  0.00000000000E+00  0.00000000000E+00  0.11904270372E+03  0.11904270372E+03  0.00000000000E+00 0. -1.
         -1   -1    0    0    0  501 -0.00000000000E+00 -0.00000000000E+00 -0.11571368324E+03  0.11571368324E+03  0.00000000000E+00 0.  1.
         25    2    1    2    0    0 -0.14613232149E+01 -0.37506897754E+02 -0.22697086833E+02  0.13255718143E+03  0.12508935108E+03 0.  0.
         23    2    1    2    0    0  0.14613232149E+01  0.37506897754E+02  0.26026107315E+02  0.10219920553E+03  0.91424375878E+02 0.  0.
          5    1    3    3  502    0 -0.47888605566E+02 -0.60360562740E+02 -0.36234228460E+01  0.77248415326E+02  0.41800000000E+01 0.  1.
         -5    1    3    3    0  502  0.46427282351E+02  0.22853664986E+02 -0.19073663987E+02  0.55308766102E+02  0.41800000000E+01 0.  1.
        -11    1    4    4    0    0  0.33817982919E+01 -0.21378423158E+02  0.36426415160E+02  0.42371656303E+02  0.00000000000E+00 0.  1.
         11    1    4    4    0    0 -0.19204750770E+01  0.58885320912E+02 -0.10400307845E+02  0.59827549228E+02  0.00000000000E+00 0. -1.
</event>
<event>
 8    1  0.3654190E-009  0.2361745E+03  0.7561462E-02  0.1122368E+00
          1   -1    0    0  501    0  0.00000000000E+00  0.00000000000E+00  0.40744604085E+02  0.40744604085E+02  0.00000000000E+00 0. -1.
         -1   -1    0    0    0  501 -0.00000000000E+00 -0.00000000000E+00 -0.17642745828E+04  0.17642745828E+04  0.00000000000E+00 0.  1.
         25    2    1    2    0    0 -0.18227330448E+03  0.11256155085E+03 -0.12844012683E+04  0.13081388673E+04  0.12508804055E+03 0.  0.
         23    2    1    2    0    0  0.18227330448E+03 -0.11256155085E+03 -0.43912871049E+03  0.49688031965E+03  0.90345821300E+02 0.  0.
          5    1    3    3  502    0  0.11421543826E+02  0.30409312240E+02 -0.28140048284E+03  0.28329998602E+03  0.41800000000E+01 0. -1.
         -5    1    3    3    0  502 -0.19369484831E+03  0.82152238606E+02 -0.10030007854E+04  0.10248388812E+04  0.41800000000E+01 0. -1.
        -11    1    4    4    0    0  0.15293889092E+03 -0.51430972477E+02 -0.26822807757E+03  0.31302036816E+03  0.00000000000E+00 0. -1.
         11    1    4    4    0    0  0.29334413560E+02 -0.61130578368E+02 -0.17090063292E+03  0.18385995149E+03  0.00000000000E+00 0.  1.
</event>
<event>
 8    1  0.3654190E-009  0.1401284E+03  0.7561462E-02  0.1213156E+00
         -2   -1    0    0    0  501 -0.00000000000E+00  0.00000000000E+00  0.11091107251E+03  0.11091107251E+03  0.00000000000E+00 0.  1.
          2   -1    0    0  501    0  0.00000000000E+00 -0.00000000000E+00 -0.24496988524E+03  0.24496988524E+03  0.00000000000E+00 0. -1.
         25    2    1    2    0    0 -0.56938141328E+02 -0.10804007014E+03 -0.95430784908E+02  0.19916931841E+03  0.12508706565E+03 0.  0.
         23    2    1    2    0    0  0.56938141328E+02  0.10804007014E+03 -0.38628027821E+02  0.15671163934E+03  0.90287345057E+02 0.  0.
          5    1    3    3  502    0 -0.62492672925E+02 -0.67704522917E+02  0.32998042322E+01  0.92290832160E+02  0.41800000000E+01 0.  1.
         -5    1    3    3    0  502  0.55545315964E+01 -0.40335547218E+02 -0.98730589141E+02  0.10687848625E+03  0.41800000000E+01 0.  1.
        -11    1    4    4    0    0 -0.19777774677E+02  0.39700658797E+02 -0.30130339140E+02  0.53620332121E+02  0.00000000000E+00 0. -1.
         11    1    4    4    0    0  0.76715916005E+02  0.68339411339E+02 -0.84976886810E+01  0.10309130722E+03  0.00000000000E+00 0.  1.
</event>
<event>
 8    1  0.3654190E-009  0.2039519E+03  0.7561462E-02  0.1146447E+00
          1   -1    0    0  501    0  0.00000000000E+00  0.00000000000E+00  0.10039826807E+04  0.10039826807E+04  0.00000000000E+00 0. -1.
         -1   -1    0    0    0  501 -0.00000000000E+00 -0.00000000000E+00 -0.63145625885E+02  0.63145625885E+02  0.00000000000E+00 0.  1.
         25    2    1    2    0    0 -0.90979372328E+02  0.16858573175E+03  0.22692829288E+03  0.32224538413E+03  0.12508893773E+03 0.  0.
         23    2    1    2    0    0  0.90979372328E+02 -0.16858573175E+03  0.71390876197E+03  0.74488292250E+03  0.92121944561E+02 0.  0.
          5    1    3    3  502    0 -0.10433592230E+03  0.11225270148E+03  0.21319877758E+03  0.26259825748E+03  0.41800000000E+01 0. -1.
         -5    1    3    3    0  502  0.13356549972E+02  0.56333030268E+02  0.13729515304E+02  0.59647126644E+02  0.41800000000E+01 0. -1.
        -11    1    4    4    0    0  0.68857656698E+02 -0.81489545737E+02  0.24167926999E+03  0.26417947023E+03  0.00000000000E+00 0. -1.
         11    1    4    4    0    0  0.22121715631E+02 -0.87096186011E+02  0.47222949198E+03  0.48070345227E+03  0.00000000000E+00 0.  1.
</event>
<event>
 8    1  0.3654190E-009  0.2021241E+03  0.7561462E-02  0.1147959E+00
         -1   -1    0    0    0  501 -0.00000000000E+00  0.00000000000E+00  0.10527897104E+04  0.10527897104E+04  0.00000000000E+00 0.  1.
          1   -1    0    0  501    0  0.00000000000E+00 -0.00000000000E+00 -0.43447697623E+02  0.43447697623E+02  0.00000000000E+00 0. -1.
         25    2    1    2    0    0 -0.48902711864E+02 -0.17564060802E+03  0.46960283971E+03  0.51905282797E+03  0.12509161741E+03 0.  0.
         23    2    1    2    0    0  0.48902711864E+02  0.17564060802E+03  0.53973917304E+03  0.57718458003E+03  0.92642139939E+02 0.  0.
          5    1    3    3  502    0  0.32284291154E+02 -0.10880509846E+03  0.28083436990E+03  0.30292943176E+03  0.41800000000E+01 0.  1.
         -5    1    3    3    0  502 -0.81187003018E+02 -0.66835509556E+02  0.18876846981E+03  0.21612339621E+03  0.41800000000E+01 0.  1.
        -11    1    4    4    0    0  0.11722342536E+01  0.64116757300E+02  0.84607962292E+02  0.10616421235E+03  0.00000000000E+00 0. -1.
         11    1    4    4    0    0  0.47730477611E+02  0.11152385072E+03  0.45513121075E+03  0.47102036768E+03  0.00000000000E+00 0.  1.
</event>
<event>
 8    1  0.3654190E-009  0.7892663E+02  0.7561462E-02  0.1332125E+00
         -2   -1    0    0    0  501 -0.00000000000E+00  0.00000000000E+00  0.30459955040E+02  0.30459955040E+02  0.00000000000E+00 0.  1.
          2   -1    0    0  501    0  0.00000000000E+00 -0.00000000000E+00 -0.43358043660E+03  0.43358043660E+03  0.00000000000E+00 0. -1.
         25    2    1    2    0    0 -0.13808303251E+02 -0.20434383407E+02 -0.16873994160E+03  0.21149077603E+03  0.12508775794E+03 0.  0.
         23    2    1    2    0    0  0.13808303251E+02  0.20434383407E+02 -0.23438053996E+03  0.25254961562E+03  0.90768042688E+02 0.  0.
          5    1    3    3  502    0 -0.46160498378E+02 -0.25332616948E+02 -0.15943657360E+02  0.55174321037E+02  0.41800000000E+01 0. -1.
         -5    1    3    3    0  502  0.32352195127E+02  0.48982335406E+01 -0.15279628424E+03  0.15631645499E+03  0.41800000000E+01 0. -1.
        -11    1    4    4    0    0 -0.21476877749E+02 -0.11581707072E+02 -0.16345442020E+02  0.29369468694E+02  0.00000000000E+00 0.  1.
         11    1    4    4    0    0  0.35285181000E+02  0.32016090479E+02 -0.21803509794E+03  0.22318014692E+03  0.00000000000E+00 0. -1.
</event>
<event>
 8    1  0.3654190E-009  0.1801085E+03  0.7561462E-02  0.1167698E+00
          2   -1    0    0  501    0  0.00000000000E+00  0.00000000000E+00  0.12871226209E+04  0.12871226209E+04  0.00000000000E+00 0. -1.
         -2   -1    0    0    0  501 -0.00000000000E+00 -0.00000000000E+00 -0.27868673333E+02  0.27868673333E+02  0.00000000000E+00 0.  1.
         25    2    1    2    0    0 -0.14902033357E+03 -0.34756420160E+02  0.73823366651E+03  0.76423582422E+03  0.12510947238E+03 0.  0.
         23    2    1    2    0    0  0.14902033357E+03  0.34756420160E+02  0.52102028101E+03  0.55075546997E+03  0.91947734732E+02 0.  0.
          5    1    3    3  502    0 -0.80101048967E+02  0.34888323925E+02  0.48207049822E+03  0.48994164025E+03  0.41800000000E+01 0. -1.
         -5    1    3    3    0  502 -0.68919284606E+02 -0.69644744085E+02  0.25616316829E+03  0.27429418397E+03  0.41800000000E+01 0. -1.
        -11    1    4    4    0    0  0.92344513782E+02  0.62569158013E+02  0.38433381883E+03  0.40019356948E+03  0.00000000000E+00 0. -1.
         11    1    4    4    0    0  0.56675819791E+02 -0.27812737853E+02  0.13668646218E+03  0.15056190049E+03  0.00000000000E+00 0.  1.
</event>
<event>
 8    1  0.3654190E-009  0.1093703E+03  0.7561462E-02  0.1261740E+00
          3   -1    0    0  501    0  0.00000000000E+00  0.00000000000E+00  0.15876779416E+03  0.15876779416E+03  0.00000000000E+00 0. -1.
         -3   -1    0    0    0  501 -0.00000000000E+00 -0.00000000000E+00 -0.10818763580E+03  0.10818763580E+03  0.00000000000E+00 0.  1.
         25    2    1    2    0    0  0.66859750294E+02 -0.28267415672E+02  0.12981481101E+02  0.14520935120E+03  0.12509182158E+03 0.  0.
         23    2    1    2    0    0 -0.66859750294E+02  0.28267415672E+02  0.37598677259E+02  0.12174607877E+03  0.90217371749E+02 0.  0.
          5    1    3    3  502    0 -0.31243706947E+02  0.19831573333E+01  0.26947461934E+02  0.41517950835E+02  0.41800000000E+01 0.  1.
         -5    1    3    3    0  502  0.98103457241E+02 -0.30250573006E+02 -0.13965980833E+02  0.10369140037E+03  0.41800000000E+01 0.  1.
        -11    1    4    4    0    0 -0.22717061384E+02  0.32947056573E+02  0.59923509148E+02  0.72058312244E+02  0.00000000000E+00 0. -1.
         11    1    4    4    0    0 -0.44142688910E+02 -0.46796409010E+01 -0.22324831889E+02  0.49687766523E+02  0.00000000000E+00 0.  1.
</event>
<event>
 8    1  0.3654190E-009  0.9195218E+02  0.7561462E-02  0.1298192E+00
         -1   -1    0    0    0  501 -0.00000000000E+00  0.00000000000E+00  0.17554212909E+03  0.17554212909E+03  0.00000000000E+00 0.  1.
          1   -1    0    0  501    0  0.00000000000E+00 -0.00000000000E+00 -0.62012604032E+02  0.62012604032E+02  0.00000000000E+00 0. -1.
         25    2    1    2    0    0 -0.10291228804E+02  0.11640303627E+02  0.70820216282E+02  0.14458642488E+03  0.12509326588E+03 0.  0.
         23    2    1    2    0    0  0.10291228804E+02 -0.11640303627E+02  0.42709308778E+02  0.92968308240E+02  0.81102498247E+02 0.  0.
          5    1    3    3  502    0  0.48105426410E+02  0.10268281147E+02  0.70448081606E+02  0.86023103000E+02  0.41800000000E+01 0. -1.
         -5    1    3    3    0  502 -0.58396655214E+02  0.13720224807E+01  0.37213467671E+00  0.58563321884E+02  0.41800000000E+01 0. -1.
        -11    1    4    4    0    0  0.42258409673E+02 -0.95202778280E+00  0.52781989892E+01  0.42597405198E+02  0.00000000000E+00 0. -1.
         11    1    4    4    0    0 -0.31967180869E+02 -0.10688275845E+02  0.37431109789E+02  0.50370903042E+02  0.00000000000E+00 0.  1.
</event>
<event>
 8    1  0.3654190E-009  0.8616785E+02  0.7561462E-02  0.1312406E+00
          2   -1    0    0  501    0  0.00000000000E+00  0.00000000000E+00  0.16231835090E+02  0.16231835090E+02  0.00000000000E+00 0.  1.
         -2   -1    0    0    0  501 -0.00000000000E+00 -0.00000000000E+00 -0.81444567056E+03  0.81444567056E+03  0.00000000000E+00 0. -1.
         25    2    1    2    0    0 -0.29317091420E+02 -0.16824426906E+02 -0.51948316328E+03  0.53539975017E+03  0.12509029683E+03 0.  0.
         23    2    1    2    0    0  0.29317091420E+02  0.16824426906E+02 -0.27873067219E+03  0.29527775548E+03  0.91409037144E+02 0.  0.
          5    1    3    3  502    0 -0.49432030994E+02  0.11121511496E+01 -0.49856602908E+03  0.50102926094E+03  0.41800000000E+01 0.  1.
         -5    1    3    3    0  502  0.20114939575E+02 -0.17936578056E+02 -0.20917134196E+02  0.34370489223E+02  0.41800000000E+01 0.  1.
        -11    1    4    4    0    0  0.24777587305E+02  0.53251207343E+02 -0.19931405041E+03  0.20778765749E+03  0.00000000000E+00 0. -1.
         11    1    4    4    0    0  0.45395041147E+01 -0.36426780437E+02 -0.79416621788E+02  0.87490097993E+02  0.00000000000E+00 0.  1.
</event>
<event>
 8    1  0.3654190E-009  0.1039381E+03  0.7561462E-02  0.1272226E+00
          2   -1    0    0  501    0  0.00000000000E+00  0.00000000000E+00  0.35350133873E+02  0.35350133873E+02  0.00000000000E+00 0. -1.
         -2   -1    0    0    0  501 -0.00000000000E+00 -0.00000000000E+00 -0.36600319406E+03  0.36600319406E+03  0.00000000000E+00 0.  1.
         25    2    1    2    0    0 -0.18138285562E+02  0.89124662122E+00 -0.25579962117E+03  0.28532549359E+03  0.12508956543E+03 0.  0.
         23    2    1    2    0    0  0.18138285562E+02 -0.89124662122E+00 -0.74853439018E+02  0.11602783434E+03  0.86773436520E+02 0.  0.
          5    1    3    3  502    0 -0.29650774749E+02  0.58589437174E+02 -0.11197773069E+03  0.12987830905E+03  0.41800000000E+01 0.  1.
         -5    1    3    3    0  502  0.11512489187E+02 -0.57698190553E+02 -0.14382189047E+03  0.15544718453E+03  0.41800000000E+01 0.  1.
        -11    1    4    4    0    0  0.42263371315E+02  0.23857875084E+02 -0.62921907179E+02  0.79464187918E+02  0.00000000000E+00 0.  1.
         11    1    4    4    0    0 -0.24125085753E+02 -0.24749121705E+02 -0.11931531839E+02  0.36563646424E+02  0.00000000000E+00 0. -1.
</event>
<event>
 8    1  0.3654190E-009  0.1147728E+03  0.7561462E-02  0.1251978E+00
          2   -1    0    0  501    0  0.00000000000E+00  0.00000000000E+00  0.14177279275E+03  0.14177279275E+03  0.00000000000E+00 0.  1.
         -2   -1    0    0    0  501 -0.00000000000E+00 -0.00000000000E+00 -0.11345343488E+03  0.11345343488E+03  0.00000000000E+00 0. -1.
         25    2    1    2    0    0 -0.51329497474E+02 -0.38173005821E+02  0.84178723986E+01  0.14074111909E+03  0.12508119899E+03 0.  0.
         23    2    1    2    0    0  0.51329497474E+02  0.38173005821E+02  0.19901485480E+02  0.11448510854E+03  0.92837897809E+02 0.  0.
          5    1    3    3  502    0  0.29441428466E+02 -0.75715811004E+00  0.36704908748E+02  0.47245039154E+02  0.41800000000E+01 0. -1.
         -5    1    3    3    0  502 -0.80770925939E+02 -0.37415847711E+02 -0.28287036349E+02  0.93496079931E+02  0.41800000000E+01 0. -1.
        -11    1    4    4    0    0  0.51972284921E+02  0.65351966233E+02  0.54004520068E+01  0.83672951259E+02  0.00000000000E+00 0.  1.
         11    1    4    4    0    0 -0.64278744786E+00 -0.27178960412E+02  0.14501033473E+02  0.30812157285E+02  0.00000000000E+00 0. -1.
</event>
<event>
 8    1  0.3654190E-009  0.9797066E+02  0.7561462E-02  0.1284622E+00
         -1   -1    0    0    0  501 -0.00000000000E+00  0.00000000000E+00  0.70810754312E+02  0.70810754312E+02  0.00000000000E+00 0.  1.
          1   -1    0    0  501    0  0.00000000000E+00 -0.00000000000E+00 -0.25621000964E+03  0.25621000964E+03  0.00000000000E+00 0. -1.
         25    2    1    2    0    0 -0.58052636396E+01  0.76497454138E+02 -0.79086224880E+02  0.16669415069E+03  0.12508695909E+03 0.  0.
         23    2    1    2    0    0  0.58052636396E+01 -0.76497454138E+02 -0.10631303044E+03  0.16032661325E+03  0.92285431677E+02 0.  0.
          5    1    3    3  502    0 -0.66906516557E+01  0.29969423943E+02 -0.10758860613E+03  0.11196299282E+03  0.41800000000E+01 0. -1.
         -5    1    3    3    0  502  0.88538801607E+00  0.46528030195E+02  0.28502381251E+02  0.54731157878E+02  0.41800000000E+01 0. -1.
        -11    1    4    4    0    0  0.33978875113E+02  0.27799097644E+01 -0.18810883670E+02  0.38937657823E+02  0.00000000000E+00 0. -1.
         11    1    4    4    0    0 -0.28173611474E+02 -0.79277363902E+02 -0.87502146773E+02  0.12138895543E+03  0.00000000000E+00 0.  1.
</event>
<event>
 8    1  0.3654190E-009  0.1446784E+03  0.7561462E-02  0.1207169E+00
          3   -1    0    0  501    0  0.00000000000E+00  0.00000000000E+00  0.27657871357E+03  0.27657871357E+03  0.00000000000E+00 0. -1.
         -3   -1    0    0    0  501 -0.00000000000E+00 -0.00000000000E+00 -0.10541936726E+03  0.10541936726E+03  0.00000000000E+00 0.  1.
         25    2    1    2    0    0  0.69864648936E+01 -0.11187718962E+03  0.13741941013E+02  0.16852976477E+03  0.12509246348E+03 0.  0.
         23    2    1    2    0    0 -0.69864648936E+01  0.11187718962E+03  0.15741740530E+03  0.21346831607E+03  0.90681675230E+02 0.  0.
          5    1    3    3  502    0 -0.13547496812E+02 -0.13389243043E+03 -0.12340575657E+01  0.13464662229E+03  0.41800000000E+01 0.  1.
         -5    1    3    3    0  502  0.20533961705E+02  0.22015240801E+02  0.14975998578E+02  0.33883142479E+02  0.41800000000E+01 0.  1.
        -11    1    4    4    0    0  0.23579415301E+02  0.51904791530E+02  0.19939556392E+02  0.60396043901E+02  0.00000000000E+00 0.  1.
         11    1    4    4    0    0 -0.30565880195E+02  0.59972398094E+02  0.13747784891E+03  0.15307227216E+03  0.00000000000E+00 0. -1.
</event>
<event>
 8    1  0.3654190E-009  0.1462697E+03  0.7561462E-02  0.1205133E+00
         -2   -1    0    0    0  501 -0.00000000000E+00  0.00000000000E+00  0.45432851615E+02  0.45432851615E+02  0.00000000000E+00 0.  1.
          2   -1    0    0  501    0  0.00000000000E+00 -0.00000000000E+00 -0.57976146406E+03  0.57976146406E+03  0.00000000000E+00 0. -1.
         25    2    1    2    0    0  0.33104006006E+02  0.11144303224E+03 -0.34773165705E+03  0.38740412717E+03  0.12509687359E+03 0.  0.
         23    2    1    2    0    0 -0.33104006006E+02 -0.11144303224E+03 -0.18659695540E+03  0.23779018851E+03  0.90610845602E+02 0.  0.
          5    1    3    3  502    0  0.25652823721E+02  0.13407432298E+03 -0.23235348115E+03  0.26951735389E+03  0.41800000000E+01 0. -1.
         -5    1    3    3    0  502  0.74511822854E+01 -0.22631290745E+02 -0.11537817590E+03  0.11788677327E+03  0.41800000000E+01 0. -1.
        -11    1    4    4    0    0 -0.41545728158E+02 -0.33471292969E+02 -0.26621396272E+02  0.59624438955E+02  0.00000000000E+00 0.  1.
         11    1    4    4    0    0  0.84417221518E+01 -0.77971739269E+02 -0.15997555913E+03  0.17816574956E+03  0.00000000000E+00 0. -1.
</event>
<event>
 8    1  0.3654190E-009  0.8866791E+02  0.7561462E-02  0.1306110E+00
          2   -1    0    0  501    0  0.00000000000E+00  0.00000000000E+00  0.14517584799E+03  0.14517584799E+03  0.00000000000E+00 0. -1.
         -2   -1    0    0    0  501 -0.00000000000E+00 -0.00000000000E+00 -0.11869288782E+03  0.11869288782E+03  0.00000000000E+00 0.  1.
         25    2    1    2    0    0 -0.69975441916E+02 -0.16566655466E+02  0.98692257273E+00  0.14429432773E+03  0.12509541340E+03 0.  0.
         23    2    1    2    0    0  0.69975441916E+02  0.16566655466E+02  0.25496037591E+02  0.11957440808E+03  0.92070487079E+02 0.  0.
          5    1    3    3  502    0 -0.52931108199E+02 -0.76551952877E+01 -0.59838126433E+02  0.80364034276E+02  0.41800000000E+01 0.  1.
         -5    1    3    3    0  502 -0.17044333717E+02 -0.89114601778E+01  0.60825049006E+02  0.63930293452E+02  0.41800000000E+01 0.  1.
        -11    1    4    4    0    0 -0.11363715263E+02 -0.13178355139E+02 -0.15909949528E+02  0.23578158595E+02  0.00000000000E+00 0.  1.
         11    1    4    4    0    0  0.81339157179E+02  0.29745010605E+02  0.41405987119E+02  0.95996249488E+02  0.00000000000E+00 0. -1.
</event>
<event>
 8    1  0.3654190E-009  0.1642919E+03  0.7561462E-02  0.1183935E+00
         -1   -1    0    0    0  501 -0.00000000000E+00  0.00000000000E+00  0.10164502230E+03  0.10164502230E+03  0.00000000000E+00 0.  1.
          1   -1    0    0  501    0  0.00000000000E+00 -0.00000000000E+00 -0.64735906413E+03  0.64735906413E+03  0.00000000000E+00 0. -1.
         25    2    1    2    0    0 -0.13758377579E+03 -0.17111837557E+02 -0.54575412634E+03  0.57681558728E+03  0.12508615016E+03 0.  0.
         23    2    1    2    0    0  0.13758377579E+03  0.17111837557E+02  0.40084510806E-01  0.17218849916E+03  0.10211154337E+03 0.  0.
          5    1    3    3  502    0 -0.11220073487E+03  0.41812159803E+02 -0.30684986115E+03  0.32941094594E+03  0.41800000000E+01 0. -1.
         -5    1    3    3    0  502 -0.25383040920E+02 -0.58923997360E+02 -0.23890426519E+03  0.24740464134E+03  0.41800000000E+01 0. -1.
        -11    1    4    4    0    0  0.11598261250E+03 -0.14581555904E+01 -0.40309841046E+02  0.12279648164E+03  0.00000000000E+00 0. -1.
         11    1    4    4    0    0  0.21601163297E+02  0.18569993147E+02  0.40349925557E+02  0.49392017510E+02  0.00000000000E+00 0.  1.
</event>
<event>
 8    1  0.3654190E-009  0.3148268E+03  0.7561462E-02  0.1078055E+00
         -1   -1    0    0    0  501 -0.00000000000E+00  0.00000000000E+00  0.90641805799E+02  0.90641805799E+02  0.00000000000E+00 0.  1.
          1   -1    0    0  501    0  0.00000000000E+00 -0.00000000000E+00 -0.15049762809E+04  0.15049762809E+04  0.00000000000E+00 0. -1.
         25    2    1    2    0    0  0.12213130197E+03 -0.27930758167E+03 -0.33325701977E+03  0.46865348928E+03  0.12508825562E+03 0.  0.
         23    2    1    2    0    0 -0.12213130197E+03  0.27930758167E+03 -0.10810774554E+04  0.11269645975E+04  0.91607637849E+02 0.  0.
          5    1    3    3  502    0 -0.88534344089E+01 -0.48216908633E+02 -0.99476748933E+01  0.50196436275E+02  0.41800000000E+01 0.  1.
         -5    1    3    3    0  502  0.13098473638E+03 -0.23109067303E+03 -0.32330934488E+03  0.41845705301E+03  0.41800000000E+01 0.  1.
        -11    1    4    4    0    0 -0.29847990760E+01  0.96716313348E+02 -0.25961943673E+03  0.27706534648E+03  0.00000000000E+00 0.  1.
         11    1    4    4    0    0 -0.11914650289E+03  0.18259126832E+03 -0.82145801865E+03  0.84989925098E+03  0.00000000000E+00 0. -1.
</event>
<event>
 8    1  0.3654190E-009  0.9520306E+02  0.7561462E-02  0.1290719E+00
          1   -1    0    0  501    0  0.00000000000E+00  0.00000000000E+00  0.25494225071E+03  0.25494225071E+03  0.00000000000E+00 0. -1.
         -1   -1    0    0    0  501 -0.00000000000E+00 -0.00000000000E+00 -0.57473263679E+02  0.57473263679E+02  0.00000000000E+00 0.  1.
         25    2    1    2    0    0  0.49074614577E+02  0.13963990511E+02  0.98594868172E+02  0.16724740142E+03  0.12508970551E+03 0.  0.
         23    2    1    2    0    0 -0.49074614577E+02 -0.13963990511E+02  0.98874118859E+02  0.14516811297E+03  0.93243652953E+02 0.  0.
          5    1    3    3  502    0 -0.30153334713E+02  0.37980445644E+02  0.18771587523E+02  0.52168790898E+02  0.41800000000E+01 0.  1.
         -5    1    3    3    0  502  0.79227949291E+02 -0.24016455134E+02  0.79823280649E+02  0.11507861052E+03  0.41800000000E+01 0.  1.
        -11    1    4    4    0    0 -0.17611752123E+02  0.91030963242E+01  0.10395252511E+03  0.10582611990E+03  0.00000000000E+00 0. -1.
         11    1    4    4    0    0 -0.31462862454E+02 -0.23067086835E+02 -0.50784062514E+01  0.39341993073E+02  0.00000000000E+00 0.  1.
</event>
<event>
 8    1  0.3654190E-009  0.1322906E+03  0.7561462E-02  0.1224096E+00
          2   -1    0    0  501    0  0.00000000000E+00  0.00000000000E+00  0.58423603559E+03  0.58423603559E+03  0.00000000000E+00 0. -1.
         -2   -1    0    0    0  501 -0.00000000000E+00 -0.00000000000E+00 -0.34552230767E+02  0.34552230767E+02  0.00000000000E+00 0.  1.
         25    2    1    2    0    0  0.57282105984E+02 -0.69795052824E+02  0.25941407518E+03  0.30182123603E+03  0.12509119494E+03 0.  0.
         23    2    1    2    0    0 -0.57282105984E+02  0.69795052824E+02  0.29026972964E+03  0.31696703033E+03  0.89771895951E+02 0.  0.
          5    1    3    3  502    0  0.28480592687E+02  0.28420459850E+02  0.29335118950E+02  0.49968873329E+02  0.41800000000E+01 0.  1.
         -5    1    3    3    0  502  0.28801513297E+02 -0.98215512674E+02  0.23007895623E+03  0.25185236270E+03  0.41800000000E+01 0.  1.
        -11    1    4    4    0    0 -0.76959290780E+02  0.42108364680E+02  0.24595841363E+03  0.26113480819E+03  0.00000000000E+00 0.  1.
         11    1    4    4    0    0  0.19677184796E+02  0.27686688144E+02  0.44311316014E+02  0.55832222137E+02  0.00000000000E+00 0. -1.
</event>
<event>
 8    1  0.3654190E-009  0.1030638E+03  0.7561462E-02  0.1273982E+00
          1   -1    0    0  501    0  0.00000000000E+00  0.00000000000E+00  0.10702062708E+04  0.10702062708E+04  0.00000000000E+00 0. -1.
         -1   -1    0    0    0  501 -0.00000000000E+00 -0.00000000000E+00 -0.14806310628E+02  0.14806310628E+02  0.00000000000E+00 0.  1.
         25    2    1    2    0    0 -0.16192210381E+02  0.13537739066E+02  0.84696907439E+03  0.85641608675E+03  0.12508574110E+03 0.  0.
         23    2    1    2    0    0  0.16192210381E+02 -0.13537739066E+02  0.20843088582E+03  0.22859649471E+03  0.91473849671E+02 0.  0.
          5    1    3    3  502    0 -0.57254935431E+02  0.41905985427E+02  0.36530512483E+03  0.37215527119E+03  0.41800000000E+01 0.  1.
         -5    1    3    3    0  502  0.41062725051E+02 -0.28368246361E+02  0.48166394955E+03  0.48426081556E+03  0.41800000000E+01 0.  1.
        -11    1    4    4    0    0 -0.30119463426E+01  0.33773880302E+02  0.13476126678E+03  0.13896167038E+03  0.00000000000E+00 0. -1.
         11    1    4    4    0    0  0.19204156723E+02 -0.47311619369E+02  0.73669619049E+02  0.89634824335E+02  0.00000000000E+00 0.  1.
</event>
<event>
 8    1  0.3654190E-009  0.1468087E+03  0.7561462E-02  0.1204450E+00
          1   -1    0    0  501    0  0.00000000000E+00  0.00000000000E+00  0.72450544656E+02  0.72450544656E+02  0.00000000000E+00 0. -1.
         -1   -1    0    0    0  501 -0.00000000000E+00 -0.00000000000E+00 -0.41747874548E+03  0.41747874548E+03  0.00000000000E+00 0.  1.
         25    2    1    2    0    0 -0.97758032060E+02 -0.69318535076E+02 -0.27276623968E+03  0.32312678246E+03  0.12509118234E+03 0.  0.
         23    2    1    2    0    0  0.97758032060E+02  0.69318535076E+02 -0.72261961150E+02  0.16680250768E+03  0.90772206105E+02 0.  0.
          5    1    3    3  502    0  0.34709079609E+01  0.15329072458E+02 -0.12051104027E+03  0.12160349868E+03  0.41800000000E+01 0. -1.
         -5    1    3    3    0  502 -0.10122894002E+03 -0.84647607534E+02 -0.15225519941E+03  0.20152328378E+03  0.41800000000E+01 0. -1.
        -11    1    4    4    0    0  0.96915797762E+02  0.23787497117E+02 -0.68640478091E+02  0.12111990797E+03  0.00000000000E+00 0. -1.
         11    1    4    4    0    0  0.84223429770E+00  0.45531037959E+02 -0.36214830589E+01  0.45682599704E+02  0.00000000000E+00 0.  1.
</event>
<event>
 8    1  0.3654190E-009  0.9111296E+02  0.7561462E-02  0.1300179E+00
         -1   -1    0    0    0  501 -0.00000000000E+00  0.00000000000E+00  0.89128019316E+02  0.89128019316E+02  0.00000000000E+00 0.  1.
          1   -1    0    0  501    0  0.00000000000E+00 -0.00000000000E+00 -0.13764269749E+03  0.13764269749E+03  0.00000000000E+00 0. -1.
         25    2    1    2    0    0  0.19421762739E+02 -0.49862159533E+01 -0.38037709173E+02  0.13227435039E+03  0.12509024436E+03 0.  0.
         23    2    1    2    0    0 -0.19421762739E+02  0.49862159533E+01 -0.10476969005E+02  0.94496366420E+02  0.91748183467E+02 0.  0.
          5    1    3    3  502    0 -0.47888828416E+02  0.17665316422E+02 -0.33060137301E+02  0.60957758897E+02  0.41800000000E+01 0. -1.
         -5    1    3    3    0  502  0.67310591155E+02 -0.22651532376E+02 -0.49775718720E+01  0.71316591494E+02  0.41800000000E+01 0. -1.
        -11    1    4    4    0    0  0.66353224959E+01  0.25724741225E+02  0.31309994534E+02  0.41062215886E+02  0.00000000000E+00 0.  1.
         11    1    4    4    0    0 -0.26057085235E+02 -0.20738525272E+02 -0.41786963539E+02  0.53434150534E+02  0.00000000000E+00 0. -1.
</event>
<event>
 8    1  0.3654190E-009  0.1350449E+03  0.7561462E-02  0.1220156E+00
         -2   -1    0    0    0  501 -0.00000000000E+00  0.00000000000E+00  0.30229855371E+02  0.30229855371E+02  0.00000000000E+00 0.  1.
          2   -1    0    0  501    0  0.00000000000E+00 -0.00000000000E+00 -0.71700672747E+03  0.71700672747E+03  0.00000000000E+00 0. -1.
         25    2    1    2    0    0  0.40021957459E+02 -0.90352902077E+02 -0.34902478202E+03  0.38370759005E+03  0.12509121553E+03 0.  0.
         23    2    1    2    0    0 -0.40021957459E+02  0.90352902077E+02 -0.33775209008E+03  0.36352899280E+03  0.91167155590E+02 0.  0.
          5    1    3    3  502    0 -0.47509226221E+01 -0.10671091201E+03 -0.28006224856E+03  0.29977012106E+03  0.41800000000E+01 0.  1.
         -5    1    3    3    0  502  0.44772880081E+02  0.16358009931E+02 -0.68962533458E+02  0.83937468991E+02  0.41800000000E+01 0.  1.
        -11    1    4    4    0    0 -0.80609592366E+01  0.81880078079E+02 -0.30882330604E+03  0.31959530755E+03  0.00000000000E+00 0. -1.
         11    1    4    4    0    0 -0.31960998223E+02  0.84728239973E+01 -0.28928784035E+02  0.43933685250E+02  0.00000000000E+00 0.  1.
</event>
<event>
 8    1  0.3654190E-009  0.1808859E+03  0.7561462E-02  0.1166948E+00
          2   -1    0    0  501    0  0.00000000000E+00  0.00000000000E+00  0.15480221686E+04  0.15480221686E+04  0.00000000000E+00 0. -1.
         -2   -1    0    0    0  501 -0.00000000000E+00 -0.00000000000E+00 -0.23262070187E+02  0.23262070187E+02  0.00000000000E+00 0.  1.
         25    2    1    2    0    0  0.11197668040E+03 -0.92319457304E+02  0.97821528472E+03  0.99680159029E+03  0.12508640213E+03 0.  0.
         23    2    1    2    0    0 -0.11197668040E+03  0.92319457304E+02  0.54654481366E+03  0.57448264846E+03  0.10127892621E+03 0.  0.
          5    1    3    3  502    0 -0.38593079752E+01 -0.74019372099E+02  0.38382863026E+03  0.39094200530E+03  0.41800000000E+01 0.  1.
         -5    1    3    3    0  502  0.11583598838E+03 -0.18300085204E+02  0.59438665446E+03  0.60585958499E+03  0.41800000000E+01 0.  1.
        -11    1    4    4    0    0 -0.11800958701E+03  0.51217795876E+02  0.33404464303E+03  0.35795998209E+03  0.00000000000E+00 0.  1.
         11    1    4    4    0    0  0.60329066130E+01  0.41101661428E+02  0.21250017063E+03  0.21652266637E+03  0.00000000000E+00 0. -1.
</event>
<event>
 8    1  0.3654190E-009  0.7905597E+02  0.7561462E-02  0.1331752E+00
          1   -1    0    0  501    0  0.00000000000E+00  0.00000000000E+00  0.10042496812E+03  0.10042496812E+03  0.00000000000E+00 0. -1.
         -1   -1    0    0    0  501 -0.00000000000E+00 -0.00000000000E+00 -0.17485955749E+03  0.17485955749E+03  0.00000000000E+00 0.  1.
         25    2    1    2    0    0  0.20586915376E+02 -0.15722638611E+02  0.32568804143E+02  0.13183010642E+03  0.12508967786E+03 0.  0.
         23    2    1    2    0    0 -0.20586915376E+02  0.15722638611E+02 -0.10700339352E+03  0.14345441919E+03  0.91969678207E+02 0.  0.
          5    1    3    3  502    0  0.20516084892E+02  0.30060741801E+02 -0.34629183758E+02  0.50410422580E+02  0.41800000000E+01 0. -1.
         -5    1    3    3    0  502  0.70830484354E-01 -0.45783380411E+02  0.67197987901E+02  0.81419683842E+02  0.41800000000E+01 0. -1.
        -11    1    4    4    0    0  0.25543493172E+02  0.14469216945E+02 -0.28004051128E+01  0.29490177199E+02  0.00000000000E+00 0. -1.
         11    1    4    4    0    0 -0.46130408548E+02  0.12534216651E+01 -0.10420298841E+03  0.11396424199E+03  0.00000000000E+00 0.  1.
</event>
<event>
 8    1  0.3654190E-009  0.1758167E+03  0.7561462E-02  0.1171914E+00
          2   -1    0    0  501    0  0.00000000000E+00  0.00000000000E+00  0.50371485067E+03  0.50371485067E+03  0.00000000000E+00 0. -1.
         -2   -1    0    0    0  501 -0.00000000000E+00 -0.00000000000E+00 -0.72316314012E+02  0.72316314012E+02  0.00000000000E+00 0.  1.
         25    2    1    2    0    0 -0.10372914188E+03  0.11712357126E+03  0.21438301092E+03  0.29339862038E+03  0.12508001139E+03 0.  0.
         23    2    1    2    0    0  0.10372914188E+03 -0.11712357126E+03  0.21701552573E+03  0.28263254430E+03  0.91146864273E+02 0.  0.
          5    1    3    3  502    0 -0.76428161521E+02  0.25879372581E+02  0.30671554947E+02  0.86424663618E+02  0.41800000000E+01 0. -1.
         -5    1    3    3    0  502 -0.27300980359E+02  0.91244198682E+02  0.18371145598E+03  0.20697395676E+03  0.41800000000E+01 0. -1.
        -11    1    4    4    0    0  0.47309982432E+02 -0.20650697633E+01  0.30464823233E+02  0.56308120244E+02  0.00000000000E+00 0.  1.
         11    1    4    4    0    0  0.56419159448E+02 -0.11505850150E+03  0.18655070250E+03  0.22632442405E+03  0.00000000000E+00 0. -1.
</event>
<event>
 8    1  0.3654190E-009  0.1231803E+03  0.7561462E-02  0.1237941E+00
         -1   -1    0    0    0  501 -0.00000000000E+00  0.00000000000E+00  0.17775855670E+02  0.17775855670E+02  0.00000000000E+00 0.  1.
          1   -1    0    0  501    0  0.00000000000E+00 -0.00000000000E+00 -0.95639009695E+03  0.95639009695E+03  0.00000000000E+00 0. -1.
         25    2    1    2    0    0 -0.61797240418E+02 -0.10011949499E+02 -0.43589775447E+03  0.45779605189E+03  0.12510489489E+03 0.  0.
         23    2    1    2    0    0  0.61797240418E+02  0.10011949499E+02 -0.50271648682E+03  0.51636990073E+03  0.99974347734E+02 0.  0.
          5    1    3    3  502    0 -0.51327781221E+02 -0.65346445170E+02 -0.27221761469E+03  0.28464820599E+03  0.41800000000E+01 0.  1.
         -5    1    3    3    0  502 -0.10469459197E+02  0.55334495671E+02 -0.16368013977E+03  0.17314784591E+03  0.41800000000E+01 0.  1.
        -11    1    4    4    0    0  0.64245913076E+02 -0.26933700980E+02 -0.42008381171E+03  0.42582081966E+03  0.00000000000E+00 0. -1.
         11    1    4    4    0    0 -0.24486726575E+01  0.36945650478E+02 -0.82632675112E+02  0.90549081073E+02  0.00000000000E+00 0.  1.
</event>
<event>
 8    1  0.3654190E-009  0.1056715E+03  0.7561462E-02  0.1268802E+00
          2   -1    0    0  501    0  0.00000000000E+00  0.00000000000E+00  0.13893688297E+03  0.13893688297E+03  0.00000000000E+00 0. -1.
         -2   -1    0    0    0  501 -0.00000000000E+00 -0.00000000000E+00 -0.97375782691E+02  0.97375782691E+02  0.00000000000E+00 0.  1.
         25    2    1    2    0    0  0.42545600432E+02  0.34881980865E+01  0.26733428301E+02  0.13485316759E+03  0.12509358488E+03 0.  0.
         23    2    1    2    0    0 -0.42545600432E+02 -0.34881980865E+01  0.14827671980E+02  0.10145949808E+03  0.90839827452E+02 0.  0.
          5    1    3    3  502    0 -0.42513923072E+02  0.54088645228E+01 -0.62409408788E+01  0.43509897879E+02  0.41800000000E+01 0. -1.
         -5    1    3    3    0  502  0.85059523503E+02 -0.19206664364E+01  0.32974369180E+02  0.91343269708E+02  0.41800000000E+01 0. -1.
        -11    1    4    4    0    0  0.19928568244E+02 -0.52201858666E+01 -0.21002201313E+02  0.29419222164E+02  0.00000000000E+00 0.  1.
         11    1    4    4    0    0 -0.62474168675E+02  0.17319877801E+01  0.35829873293E+02  0.72040275913E+02  0.00000000000E+00 0. -1.
</event>
<event>
 8    1  0.3654190E-009  0.1290860E+03  0.7561462E-02  0.1228818E+00
          3   -1    0    0  501    0  0.00000000000E+00  0.00000000000E+00  0.66952768709E+03  0.66952768709E+03  0.00000000000E+00 0. -1.
         -3   -1    0    0    0  501 -0.00000000000E+00 -0.00000000000E+00 -0.28311637977E+02  0.28311637977E+02  0.00000000000E+00 0.  1.
         25    2    1    2    0    0  0.14368120137E+02  0.76446319339E+02  0.26651032028E+03  0.30450939875E+03  0.12509092890E+03 0.  0.
         23    2    1    2    0    0 -0.14368120137E+02 -0.76446319339E+02  0.37470572884E+03  0.39332992632E+03  0.90849133728E+02 0.  0.
          5    1    3    3  502    0  0.40958875332E+02  0.98905273086E+02  0.23087918774E+03  0.25452417222E+03  0.41800000000E+01 0.  1.
         -5    1    3    3    0  502 -0.26590755194E+02 -0.22458953747E+02  0.35631132542E+02  0.49985226532E+02  0.41800000000E+01 0.  1.
        -11    1    4    4    0    0  0.30574470066E+02 -0.41479392566E+01  0.62134042274E+02  0.69373214061E+02  0.00000000000E+00 0.  1.
         11    1    4    4    0    0 -0.44942590204E+02 -0.72298380082E+02  0.31257168656E+03  0.32395671226E+03  0.00000000000E+00 0. -1.
</event>
<event>
 8    1  0.3654190E-009  0.1483574E+03  0.7561462E-02  0.1202506E+00
          2   -1    0    0  501    0  0.00000000000E+00  0.00000000000E+00  0.10273016214E+04  0.10273016214E+04  0.00000000000E+00 0. -1.
         -2   -1    0    0    0  501 -0.00000000000E+00 -0.00000000000E+00 -0.25704654352E+02  0.25704654352E+02  0.00000000000E+00 0.  1.
         25    2    1    2    0    0  0.12030721502E+03  0.92716502884E+01  0.53565227233E+03  0.56314288654E+03  0.12508702701E+03 0.  0.
         23    2    1    2    0    0 -0.12030721502E+03 -0.92716502884E+01  0.46594469471E+03  0.48986338920E+03  0.91114719258E+02 0.  0.
          5    1    3    3  502    0  0.33796394613E+02  0.45976442095E+02  0.82934152679E+02  0.10075502765E+03  0.41800000000E+01 0.  1.
         -5    1    3    3    0  502  0.86510820411E+02 -0.36704791807E+02  0.45271811965E+03  0.46238785889E+03  0.41800000000E+01 0.  1.
        -11    1    4    4    0    0 -0.50678313990E+02 -0.44460100343E+02  0.15041883271E+03  0.16483572813E+03  0.00000000000E+00 0.  1.
         11    1    4    4    0    0 -0.69628901033E+02  0.35188450055E+02  0.31552586200E+03  0.32502766108E+03  0.00000000000E+00 0. -1.
</event>
<event>
 8    1  0.3654190E-009  0.9922651E+02  0.7561462E-02  0.1281931E+00
          1   -1    0    0  501    0  0.00000000000E+00  0.00000000000E+00  0.61375173113E+02  0.61375173113E+02  0.00000000000E+00 0. -1.
         -1   -1    0    0    0  501 -0.00000000000E+00 -0.00000000000E+00 -0.33238423029E+03  0.33238423029E+03  0.00000000000E+00 0.  1.
         25    2    1    2    0    0  0.30388132845E+01  0.43188130350E+02 -0.26113098007E+03  0.29276214201E+03  0.12508330844E+03 0.  0.
         23    2    1    2    0    0 -0.30388132845E+01 -0.43188130350E+02 -0.98780771098E+01  0.10099726140E+03  0.90710646636E+02 0.  0.
          5    1    3    3  502    0  0.55020074991E+02  0.33268028825E+02 -0.20761773140E+03  0.21738575203E+03  0.41800000000E+01 0.  1.
         -5    1    3    3    0  502 -0.51981261707E+02  0.99201015257E+01 -0.53513248669E+02  0.75376389977E+02  0.41800000000E+01 0.  1.
        -11    1    4    4    0    0  0.79881917518E+01 -0.60165222463E+02 -0.33951002070E+02  0.69543768542E+02  0.00000000000E+00 0.  1.
         11    1    4    4    0    0 -0.11027005036E+02  0.16977092113E+02  0.24072924960E+02  0.31453492856E+02  0.00000000000E+00 0. -1.
</event>
<event>
 8    1  0.3654190E-009  0.1116324E+03  0.7561462E-02  0.1257576E+00
         -2   -1    0    0    0  501 -0.00000000000E+00  0.00000000000E+00  0.23038214527E+02  0.23038214527E+02  0.00000000000E+00 0.  1.
          2   -1    0    0  501    0  0.00000000000E+00 -0.00000000000E+00 -0.58221803199E+03  0.58221803199E+03  0.00000000000E+00 0. -1.
         25    2    1    2    0    0 -0.26310069364E+02  0.81095268158E+01 -0.27628604977E+03  0.30453183241E+03  0.12509065304E+03 0.  0.
         23    2    1    2    0    0  0.26310069364E+02 -0.81095268158E+01 -0.28289376769E+03  0.30072441410E+03  0.98225787168E+02 0.  0.
          5    1    3    3  502    0 -0.70993008941E+02  0.22108199294E+02 -0.21336369913E+03  0.22598743394E+03  0.41800000000E+01 0.  1.
         -5    1    3    3    0  502  0.44682939578E+02 -0.13998672478E+02 -0.62922350645E+02  0.78544398471E+02  0.41800000000E+01 0.  1.
        -11    1    4    4    0    0  0.63852467371E+02 -0.33790841798E+01 -0.18731728872E+03  0.19793009486E+03  0.00000000000E+00 0.  1.
         11    1    4    4    0    0 -0.37542398007E+02 -0.47304426360E+01 -0.95576478974E+02  0.10279431924E+03  0.00000000000E+00 0. -1.
</event>
<event>
 8    1  0.3654190E-009  0.1081983E+03  0.7561462E-02  0.1263943E+00
         -2   -1    0    0    0  501 -0.00000000000E+00  0.00000000000E+00  0.38165889379E+02  0.38165889379E+02  0.00000000000E+00 0.  1.
          2   -1    0    0  501    0  0.00000000000E+00 -0.00000000000E+00 -0.52510423045E+03  0.52510423045E+03  0.00000000000E+00 0. -1.
         25    2    1    2    0    0 -0.76094656535E+02  0.24274524996E+02 -0.36033943622E+03  0.38971101273E+03  0.12510201770E+03 0.  0.
         23    2    1    2    0    0  0.76094656535E+02 -0.24274524996E+02 -0.12659890485E+03  0.17355910710E+03  0.87839806635E+02 0.  0.
          5    1    3    3  502    0 -0.69522505722E+02 -0.50529799549E+01 -0.35112071796E+03  0.35799740557E+03  0.41800000000E+01 0. -1.
         -5    1    3    3    0  502 -0.65721508130E+01  0.29327504951E+02 -0.92187182509E+01  0.31713607161E+02  0.41800000000E+01 0. -1.
        -11    1    4    4    0    0  0.71205430539E+02  0.18177309696E+02 -0.96471987896E+02  0.12127436817E+03  0.00000000000E+00 0.  1.
         11    1    4    4    0    0  0.48892259961E+01 -0.42451834692E+02 -0.30126916955E+02  0.52284738928E+02  0.00000000000E+00 0. -1.
</event>
<event>
 8    1  0.3654190E-009  0.1122969E+03  0.7561462E-02  0.1256375E+00
         -2   -1    0    0    0  501 -0.00000000000E+00  0.00000000000E+00  0.13181238069E+03  0.13181238069E+03  0.00000000000E+00 0.  1.
          2   -1    0    0  501    0  0.00000000000E+00 -0.00000000000E+00 -0.13894424148E+03  0.13894424148E+03  0.00000000000E+00 0. -1.
         25    2    1    2    0    0 -0.60246479650E+02  0.38713334359E+01  0.51873206747E+02  0.14826883381E+03  0.12509273347E+03 0.  0.
         23    2    1    2    0    0  0.60246479650E+02 -0.38713334359E+01 -0.59005067535E+02  0.12248778836E+03  0.88752660635E+02 0.  0.
          5    1    3    3  502    0  0.13327848847E+02  0.39060841120E+02 -0.13539919952E+02  0.43636941875E+02  0.41800000000E+01 0.  1.
         -5    1    3    3    0  502 -0.73574328497E+02 -0.35189507684E+02  0.65413126699E+02  0.10463189193E+03  0.41800000000E+01 0.  1.
        -11    1    4    4    0    0  0.31304376045E+02 -0.42745242482E+02 -0.50670249401E+02  0.73311621785E+02  0.00000000000E+00 0.  1.
         11    1    4    4    0    0  0.28942103605E+02  0.38873909046E+02 -0.83348181335E+01  0.49176166575E+02  0.00000000000E+00 0. -1.
</event>
<event>
 8    1  0.3654190E-009  0.7753637E+02  0.7561462E-02  0.1336192E+00
         -3   -1    0    0    0  501 -0.00000000000E+00  0.00000000000E+00  0.25330680640E+03  0.25330680640E+03  0.00000000000E+00 0.  1.
          3   -1    0    0  501    0  0.00000000000E+00 -0.00000000000E+00 -0.53426910120E+02  0.53426910120E+02  0.00000000000E+00 0. -1.
         25    2    1    2    0    0 -0.16628255817E+02  0.96504405525E+00  0.13995355386E+03  0.18845064696E+03  0.12509683810E+03 0.  0.
         23    2    1    2    0    0  0.16628255817E+02 -0.96504405525E+00  0.59926342425E+02  0.11828306956E+03  0.10060958118E+03 0.  0.
          5    1    3    3  502    0  0.63076351374E+01 -0.20497298225E+02 -0.17404192683E+02  0.27933918782E+02  0.41800000000E+01 0. -1.
         -5    1    3    3    0  502 -0.22935890954E+02  0.21462342281E+02  0.15735774654E+03  0.16051672818E+03  0.41800000000E+01 0. -1.
        -11    1    4    4    0    0 -0.40386185141E+02 -0.14544805190E+02  0.19926686413E+02  0.47325132220E+02  0.00000000000E+00 0.  1.
         11    1    4    4    0    0  0.57014440958E+02  0.13579761135E+02  0.39999656012E+02  0.70957937338E+02  0.00000000000E+00 0. -1.
</event>
<event>
 8    1  0.3654190E-009  0.1031415E+03  0.7561462E-02  0.1273825E+00
          1   -1    0    0  501    0  0.00000000000E+00  0.00000000000E+00  0.32981117554E+03  0.32981117554E+03  0.00000000000E+00 0. -1.
         -1   -1    0    0    0  501 -0.00000000000E+00 -0.00000000000E+00 -0.39390358342E+02  0.39390358342E+02  0.00000000000E+00 0.  1.
         25    2    1    2    0    0  0.20144001161E+02  0.13299796963E+02  0.20976734723E+03  0.24542318548E+03  0.12509010602E+03 0.  0.
         23    2    1    2    0    0 -0.20144001161E+02 -0.13299796963E+02  0.80653469966E+02  0.12377834840E+03  0.90738260580E+02 0.  0.
          5    1    3    3  502    0 -0.52156701495E+02  0.14264291940E+02  0.76950234303E+02  0.94141396286E+02  0.41800000000E+01 0. -1.
         -5    1    3    3    0  502  0.72300702656E+02 -0.96449497671E+00  0.13281711293E+03  0.15128178919E+03  0.41800000000E+01 0. -1.
        -11    1    4    4    0    0  0.12042039423E+02 -0.37478560141E+02  0.72024042470E+01  0.40019093076E+02  0.00000000000E+00 0.  1.
         11    1    4    4    0    0 -0.32186040584E+02  0.24178763177E+02  0.73451065719E+02  0.83759255324E+02  0.00000000000E+00 0. -1.
</event>
<event>
 8    1  0.3654190E-009  0.1335150E+03  0.7561462E-02  0.1222331E+00
          1   -1    0    0  501    0  0.00000000000E+00  0.00000000000E+00  0.50257956109E+03  0.50257956109E+03  0.00000000000E+00 0. -1.
         -1   -1    0    0    0  501 -0.00000000000E+00 -0.00000000000E+00 -0.56125593415E+02  0.56125593415E+02  0.00000000000E+00 0.  1.
         25    2    1    2    0    0 -0.76039063929E+02  0.51941616397E+02  0.38633218782E+03  0.41638798716E+03  0.12508607337E+03 0.  0.
         23    2    1    2    0    0  0.76039063929E+02 -0.51941616397E+02  0.60121779857E+02  0.14231716734E+03  0.90330930195E+02 0.  0.
          5    1    3    3  502    0 -0.76757150022E+02 -0.21542473459E+02  0.16847885091E+03  0.18643587060E+03  0.41800000000E+01 0. -1.
         -5    1    3    3    0  502  0.71808609297E+00  0.73484089856E+02  0.21785333691E+03  0.22995211656E+03  0.41800000000E+01 0. -1.
        -11    1    4    4    0    0  0.65851513101E+02 -0.55397871998E+01  0.67242211748E+02  0.94279510291E+02  0.00000000000E+00 0. -1.
         11    1    4    4    0    0  0.10187550829E+02 -0.46401829197E+02 -0.71204318907E+01  0.48037657052E+02  0.00000000000E+00 0.  1.
</event>
<event>
 8    1  0.3654190E-009  0.1163514E+03  0.7561462E-02  0.1249240E+00
         -1   -1    0    0    0  501 -0.00000000000E+00  0.00000000000E+00  0.21516713676E+02  0.21516713676E+02  0.00000000000E+00 0.  1.
          1   -1    0    0  501    0  0.00000000000E+00 -0.00000000000E+00 -0.68682532991E+03  0.68682532991E+03  0.00000000000E+00 0. -1.
         25    2    1    2    0    0 -0.19832190125E+02  0.49310949989E+02 -0.39257052972E+03  0.41543360637E+03  0.12509426421E+03 0.  0.
         23    2    1    2    0    0  0.19832190125E+02 -0.49310949989E+02 -0.27273808651E+03  0.29290843722E+03  0.92652054520E+02 0.  0.
          5    1    3    3  502    0 -0.60351202820E+02  0.64714036000E+02 -0.21361226485E+03  0.23125277562E+03  0.41800000000E+01 0. -1.
         -5    1    3    3    0  502  0.40519012695E+02 -0.15403086011E+02 -0.17895826488E+03  0.18418083075E+03  0.41800000000E+01 0. -1.
        -11    1    4    4    0    0 -0.14175658329E+02 -0.62502641094E+02 -0.21723567839E+03  0.22649253718E+03  0.00000000000E+00 0. -1.
         11    1    4    4    0    0  0.34007848454E+02  0.13191691106E+02 -0.55502408113E+02  0.66415900032E+02  0.00000000000E+00 0.  1.
</event>
<event>
 8    1  0.3654190E-009  0.1424200E+03  0.7561462E-02  0.1210109E+00
          2   -1    0    0  501    0  0.00000000000E+00  0.00000000000E+00  0.80384774434E+03  0.80384774434E+03  0.00000000000E+00 0. -1.
         -2   -1    0    0    0  501 -0.00000000000E+00 -0.00000000000E+00 -0.30900024008E+02  0.30900024008E+02  0.00000000000E+00 0.  1.
         25    2    1    2    0    0  0.40673274737E+02  0.10684221736E+03  0.41543743635E+03  0.44866848096E+03  0.12508224336E+03 0.  0.
         23    2    1    2    0    0 -0.40673274737E+02 -0.10684221736E+03  0.35751028399E+03  0.38607928738E+03  0.90410388254E+02 0.  0.
          5    1    3    3  502    0  0.47278967757E+02  0.11735922466E+03  0.22811077055E+03  0.26088404406E+03  0.41800000000E+01 0.  1.
         -5    1    3    3    0  502 -0.66056930206E+01 -0.10517007305E+02  0.18732666580E+03  0.18778443690E+03  0.41800000000E+01 0.  1.
        -11    1    4    4    0    0 -0.70561687310E+01 -0.11104010728E+03  0.28821273957E+03  0.30894381073E+03  0.00000000000E+00 0.  1.
         11    1    4    4    0    0 -0.33617106006E+02  0.41978899180E+01  0.69297544419E+02  0.77135476653E+02  0.00000000000E+00 0. -1.
</event>
<event>
 8    1  0.3654190E-009  0.1191722E+03  0.7561462E-02  0.1244469E+00
          4   -1    0    0  501    0  0.00000000000E+00  0.00000000000E+00  0.93185103553E+02  0.93185103553E+02  0.00000000000E+00 0.  1.
         -4   -1    0    0    0  501 -0.00000000000E+00 -0.00000000000E+00 -0.30140192820E+03  0.30140192820E+03  0.00000000000E+00 0. -1.
         25    2    1    2    0    0 -0.91705430421E+02  0.40069998402E+01 -0.21567103934E+03  0.26568313188E+03  0.12509031673E+03 0.  0.
         23    2    1    2    0    0  0.91705430421E+02 -0.40069998402E+01  0.74542146966E+01  0.12890389987E+03  0.90192616483E+02 0.  0.
          5    1    3    3  502    0 -0.37138063478E+02  0.49213249180E+02 -0.33765569834E+02  0.70418504387E+02  0.41800000000E+01 0. -1.
         -5    1    3    3    0  502 -0.54567366942E+02 -0.45206249340E+02 -0.18190546950E+03  0.19526462749E+03  0.41800000000E+01 0. -1.
        -11    1    4    4    0    0  0.64017985978E+02 -0.27094072115E+02 -0.31070033311E+02  0.76142880445E+02  0.00000000000E+00 0.  1.
         11    1    4    4    0    0  0.27687444443E+02  0.23087072275E+02  0.38524248008E+02  0.52761019423E+02  0.00000000000E+00 0. -1.
</event>
<event>
 8    1  0.3654190E-009  0.1049205E+03  0.7561462E-02  0.1270276E+00
         -4   -1    0    0    0  501 -0.00000000000E+00  0.00000000000E+00  0.15285251376E+02  0.15285251376E+02  0.00000000000E+00 0. -1.
          4   -1    0    0  501    0  0.00000000000E+00 -0.00000000000E+00 -0.93682161273E+03  0.93682161273E+03  0.00000000000E+00 0.  1.
         25    2    1    2    0    0 -0.22130023691E+02 -0.22863181398E+02 -0.57674533121E+03  0.59101281785E+03  0.12509400775E+03 0.  0.
         23    2    1    2    0    0  0.22130023691E+02  0.22863181398E+02 -0.34479103015E+03  0.36109404626E+03  0.10244800029E+03 0.  0.
          5    1    3    3  502    0  0.40202522111E+02 -0.46524917735E+02 -0.24741983539E+03  0.25498011314E+03  0.41800000000E+01 0. -1.
         -5    1    3    3    0  502 -0.62332545802E+02  0.23661736338E+02 -0.32932549582E+03  0.33603270470E+03  0.41800000000E+01 0. -1.
        -11    1    4    4    0    0 -0.24279314462E+02 -0.81255484826E+01 -0.22738638436E+02  0.34242595212E+02  0.00000000000E+00 0.  1.
         11    1    4    4    0    0  0.46409338153E+02  0.30988729880E+02 -0.32205239171E+03  0.32685145105E+03  0.00000000000E+00 0. -1.
</event>
<event>
 8    1  0.3654190E-009  0.7800588E+02  0.7561462E-02  0.1334808E+00
          1   -1    0    0  501    0  0.00000000000E+00  0.00000000000E+00  0.49307134933E+03  0.49307134933E+03  0.00000000000E+00 0. -1.
         -1   -1    0    0    0  501 -0.00000000000E+00 -0.00000000000E+00 -0.27809831869E+02  0.27809831869E+02  0.00000000000E+00 0.  1.
         25    2    1    2    0    0  0.16446491879E+02  0.71667882727E+01  0.17511990242E+03  0.21595383771E+03  0.12508888779E+03 0.  0.
         23    2    1    2    0    0 -0.16446491879E+02 -0.71667882727E+01  0.29014161504E+03  0.30492734349E+03  0.92068876824E+02 0.  0.
          5    1    3    3  502    0 -0.18959659490E+02  0.17216230858E+02  0.17697389663E+03  0.17886615046E+03  0.41800000000E+01 0.  1.
         -5    1    3    3    0  502  0.35406151370E+02 -0.10049442585E+02 -0.18539942061E+01  0.37087687251E+02  0.41800000000E+01 0.  1.
        -11    1    4    4    0    0 -0.84065637026E+01 -0.49359247681E+02  0.17553818984E+03  0.18253947995E+03  0.00000000000E+00 0.  1.
         11    1    4    4    0    0 -0.80399281769E+01  0.42192459408E+02  0.11460342519E+03  0.12238786354E+03  0.00000000000E+00 0. -1.
</event>
<event>
 8    1  0.3654190E-009  0.1045248E+03  0.7561462E-02  0.1271059E+00
          1   -1    0    0  501    0  0.00000000000E+00  0.00000000000E+00  0.73803689095E+02  0.73803689095E+02  0.00000000000E+00 0. -1.
         -1   -1    0    0    0  501 -0.00000000000E+00 -0.00000000000E+00 -0.23203944579E+03  0.23203944579E+03  0.00000000000E+00 0.  1.
         25    2    1    2    0    0  0.15921129384E+02  0.63759332935E+02 -0.12535707512E+03  0.18889295413E+03  0.12508963563E+03 0.  0.
         23    2    1    2    0    0 -0.15921129384E+02 -0.63759332935E+02 -0.32878681579E+02  0.11695018075E+03  0.90981328732E+02 0.  0.
          5    1    3    3  502    0 -0.31857859475E+02  0.73741427382E+02 -0.38508238726E+02  0.89180032364E+02  0.41800000000E+01 0. -1.
         -5    1    3    3    0  502  0.47778988859E+02 -0.99820944466E+01 -0.86848836389E+02  0.99712921771E+02  0.41800000000E+01 0. -1.
        -11    1    4    4    0    0  0.61904600518E+01 -0.55769590697E+02 -0.59261365365E+02  0.81611754466E+02  0.00000000000E+00 0.  1.
         11    1    4    4    0    0 -0.22111589436E+02 -0.79897422388E+01  0.26382683786E+02  0.35338426283E+02  0.00000000000E+00 0. -1.
</event>
<event>
 8    1  0.3654190E-009  0.2027900E+03  0.7561462E-02  0.1147406E+00
         -2   -1    0    0    0  501 -0.00000000000E+00  0.00000000000E+00  0.85271777867E+02  0.85271777867E+02  0.00000000000E+00 0.  1.
          2   -1    0    0  501    0  0.00000000000E+00 -0.00000000000E+00 -0.58514351358E+03  0.58514351358E+03  0.00000000000E+00 0. -1.
         25    2    1    2    0    0 -0.13021557421E+03 -0.12760363541E+03 -0.15455504084E+03  0.26975901827E+03  0.12507551220E+03 0.  0.
         23    2    1    2    0    0  0.13021557421E+03  0.12760363541E+03 -0.34531669487E+03  0.40065627318E+03  0.89683030411E+02 0.  0.
          5    1    3    3  502    0 -0.13963338652E+02  0.14582197812E+02  0.10191890132E+02  0.22999181373E+02  0.41800000000E+01 0.  1.
         -5    1    3    3    0  502 -0.11625223556E+03 -0.14218583322E+03 -0.16474693098E+03  0.24675983690E+03  0.41800000000E+01 0.  1.
        -11    1    4    4    0    0  0.24124288407E+02 -0.11160018210E+02 -0.29166628952E+02  0.39461621127E+02  0.00000000000E+00 0.  1.
         11    1    4    4    0    0  0.10609128580E+03  0.13876365362E+03 -0.31615006592E+03  0.36119465205E+03  0.00000000000E+00 0. -1.
</event>
<event>
 8    1  0.3654190E-009  0.1002891E+03  0.7561462E-02  0.1279689E+00
          1   -1    0    0  501    0  0.00000000000E+00  0.00000000000E+00  0.47296249386E+02  0.47296249386E+02  0.00000000000E+00 0. -1.
         -1   -1    0    0    0  501 -0.00000000000E+00 -0.00000000000E+00 -0.38847453611E+03  0.38847453611E+03  0.00000000000E+00 0.  1.
         25    2    1    2    0    0 -0.70149753928E+02 -0.41658933096E+02 -0.21480154178E+03  0.26161905108E+03  0.12509344848E+03 0.  0.
         23    2    1    2    0    0  0.70149753928E+02  0.41658933096E+02 -0.12637674495E+03  0.17415173442E+03  0.87756995483E+02 0.  0.
          5    1    3    3  502    0 -0.37285223793E+02 -0.43150488999E+02 -0.22065504023E+03  0.22794357151E+03  0.41800000000E+01 0. -1.
         -5    1    3    3    0  502 -0.32864530134E+02  0.14915559024E+01  0.58534984492E+01  0.33675479567E+02  0.41800000000E+01 0. -1.
        -11    1    4    4    0    0  0.40430746170E+02 -0.17480540676E+02 -0.18903370531E+02  0.47932785811E+02  0.00000000000E+00 0. -1.
         11    1    4    4    0    0  0.29719007758E+02  0.59139473772E+02 -0.10747337442E+03  0.12621894861E+03  0.00000000000E+00 0.  1.
</event>
<event>
 8    1  0.3654190E-009  0.1220097E+03  0.7561462E-02  0.1239818E+00
         -2   -1    0    0    0  501 -0.00000000000E+00  0.00000000000E+00  0.13645858711E+02  0.13645858711E+02  0.00000000000E+00 0.  1.
          2   -1    0    0  501    0  0.00000000000E+00 -0.00000000000E+00 -0.11064147595E+04  0.11064147595E+04  0.00000000000E+00 0. -1.
         25    2    1    2    0    0  0.55945303340E+02  0.62770531343E+01 -0.60569031662E+03  0.62102899963E+03  0.12508789058E+03 0.  0.
         23    2    1    2    0    0 -0.55945303340E+02 -0.62770531343E+01 -0.48707858412E+03  0.49903161854E+03  0.92831733950E+02 0.  0.
          5    1    3    3  502    0  0.83620709656E+02  0.40461768523E+02 -0.40926162351E+03  0.41969289566E+03  0.41800000000E+01 0.  1.
         -5    1    3    3    0  502 -0.27675406315E+02 -0.34184715389E+02 -0.19642869312E+03  0.20133610397E+03  0.41800000000E+01 0.  1.
        -11    1    4    4    0    0  0.76300969001E+01  0.31826888836E+02 -0.11127031556E+03  0.11598384524E+03  0.00000000000E+00 0.  1.
         11    1    4    4    0    0 -0.63575400240E+02 -0.38103941970E+02 -0.37580826856E+03  0.38304777329E+03  0.00000000000E+00 0. -1.
</event>
<event>
 8    1  0.3654190E-009  0.9771975E+02  0.7561462E-02  0.1285165E+00
          2   -1    0    0  501    0  0.00000000000E+00  0.00000000000E+00  0.14341212118E+04  0.14341212118E+04  0.00000000000E+00 0. -1.
         -2   -1    0    0    0  501 -0.00000000000E+00 -0.00000000000E+00 -0.13202618272E+02  0.13202618272E+02  0.00000000000E+00 0.  1.
         25    2    1    2    0    0  0.19614635079E+02 -0.33796429928E+02  0.11776397924E+04  0.11849099337E+04  0.12509651368E+03 0.  0.
         23    2    1    2    0    0 -0.19614635079E+02  0.33796429928E+02  0.24327880114E+03  0.26241389639E+03  0.90274832318E+02 0.  0.
          5    1    3    3  502    0  0.11921631104E+02  0.30267562062E+02  0.98142357444E+02  0.10347775281E+03  0.41800000000E+01 0.  1.
         -5    1    3    3    0  502  0.76930039746E+01 -0.64063991989E+02  0.10794974350E+04  0.10814321809E+04  0.41800000000E+01 0.  1.
        -11    1    4    4    0    0  0.35817979089E+02  0.73529919932E+01  0.79775152231E+02  0.87755735030E+02  0.00000000000E+00 0.  1.
         11    1    4    4    0    0 -0.55432614168E+02  0.26443437934E+02  0.16350364891E+03  0.17465816136E+03  0.00000000000E+00 0. -1.
</event>
<event>
 8    1  0.3654190E-009  0.3605690E+03  0.7561462E-02  0.1058359E+00
          1   -1    0    0  501    0  0.00000000000E+00  0.00000000000E+00  0.54330955262E+03  0.54330955262E+03  0.00000000000E+00 0. -1.
         -1   -1    0    0    0  501 -0.00000000000E+00 -0.00000000000E+00 -0.25905588092E+03  0.25905588092E+03  0.00000000000E+00 0.  1.
         25    2    1    2    0    0  0.17204604326E+03  0.31511777342E+03  0.15538204978E+03  0.41071852091E+03  0.12508824847E+03 0.  0.
         23    2    1    2    0    0 -0.17204604326E+03 -0.31511777342E+03  0.12887162192E+03  0.39164691263E+03  0.88771375533E+02 0.  0.
          5    1    3    3  502    0  0.12954601326E+02  0.10043750665E+02  0.47018005315E+02  0.49968628625E+02  0.41800000000E+01 0. -1.
         -5    1    3    3    0  502  0.15909144193E+03  0.30507402275E+03  0.10836404447E+03  0.36074989229E+03  0.41800000000E+01 0. -1.
        -11    1    4    4    0    0 -0.10053923468E+03 -0.15472276953E+03  0.11050085205E+03  0.21507605963E+03  0.00000000000E+00 0. -1.
         11    1    4    4    0    0 -0.71506808585E+02 -0.16039500388E+03  0.18370769864E+02  0.17657085300E+03  0.00000000000E+00 0.  1.
</event>
<event>
 8    1  0.3654190E-009  0.6889279E+02  0.7561462E-02  0.1363899E+00
         -2   -1    0    0    0  501 -0.00000000000E+00  0.00000000000E+00  0.28894969202E+02  0.28894969202E+02  0.00000000000E+00 0.  1.
          2   -1    0    0  501    0  0.00000000000E+00 -0.00000000000E+00 -0.46211819716E+03  0.46211819716E+03  0.00000000000E+00 0. -1.
         25    2    1    2    0    0 -0.35668270624E+02  0.54934148486E+01 -0.24813063925E+03  0.28021150018E+03  0.12508903854E+03 0.  0.
         23    2    1    2    0    0  0.35668270624E+02 -0.54934148486E+01 -0.18509258872E+03  0.21080166619E+03  0.94210789900E+02 0.  0.
          5    1    3    3  502    0 -0.78837813403E+01 -0.77517849190E+01  0.12809005431E+02  0.17429492184E+02  0.41800000000E+01 0. -1.
         -5    1    3    3    0  502 -0.27784489284E+02  0.13245199768E+02 -0.26093964468E+03  0.26278200799E+03  0.41800000000E+01 0. -1.
        -11    1    4    4    0    0 -0.26290113413E+02 -0.17779927061E+02 -0.99407313241E+02  0.10435089743E+03  0.00000000000E+00 0. -1.
         11    1    4    4    0    0  0.61958384037E+02  0.12286512212E+02 -0.85685275475E+02  0.10645076875E+03  0.00000000000E+00 0.  1.
</event>
<event>
 8    1  0.3654190E-009  0.1851146E+03  0.7561462E-02  0.1162943E+00
          1   -1    0    0  501    0  0.00000000000E+00  0.00000000000E+00  0.22740347936E+03  0.22740347936E+03  0.00000000000E+00 0. -1.
         -1   -1    0    0    0  501 -0.00000000000E+00 -0.00000000000E+00 -0.17041596515E+03  0.17041596515E+03  0.00000000000E+00 0.  1.
         25    2    1    2    0    0 -0.15657595169E+03  0.31378723509E+02  0.65162520397E+02  0.21306690997E+03  0.12510276225E+03 0.  0.
         23    2    1    2    0    0  0.15657595169E+03 -0.31378723509E+02 -0.81750061868E+01  0.18475253454E+03  0.92552770654E+02 0.  0.
          5    1    3    3  502    0 -0.16318717861E+03  0.46850339001E+02  0.82272214762E+02  0.18870929825E+03  0.41800000000E+01 0.  1.
         -5    1    3    3    0  502  0.66112269136E+01 -0.15471615492E+02 -0.17109694365E+02  0.24357611716E+02  0.41800000000E+01 0.  1.
        -11    1    4    4    0    0  0.11493960705E+03  0.20277728633E+02 -0.16536851156E+02  0.11788030791E+03  0.00000000000E+00 0.  1.
         11    1    4    4    0    0  0.41636344645E+02 -0.51656452142E+02  0.83618449693E+01  0.66872226631E+02  0.00000000000E+00 0. -1.
</event>
<event>
 8    1  0.3654190E-009  0.1375581E+03  0.7561462E-02  0.1216653E+00
          1   -1    0    0  501    0  0.00000000000E+00  0.00000000000E+00  0.52627043343E+03  0.52627043343E+03  0.00000000000E+00 0. -1.
         -1   -1    0    0    0  501 -0.00000000000E+00 -0.00000000000E+00 -0.39123077017E+02  0.39123077017E+02  0.00000000000E+00 0.  1.
         25    2    1    2    0    0  0.52213241122E+02  0.69608022891E+02  0.33189328746E+03  0.36520116182E+03  0.12508890812E+03 0.  0.
         23    2    1    2    0    0 -0.52213241122E+02 -0.69608022891E+02  0.15525406895E+03  0.20019234862E+03  0.91660521066E+02 0.  0.
          5    1    3    3  502    0  0.49293401268E+02 -0.24758107883E+02  0.91819460432E+02  0.10719649728E+03  0.41800000000E+01 0.  1.
         -5    1    3    3    0  502  0.29198398540E+01  0.94366130774E+02  0.24007382703E+03  0.25800466454E+03  0.41800000000E+01 0.  1.
        -11    1    4    4    0    0  0.24343251611E+02 -0.31400708467E+02  0.61959036798E+02  0.73603808544E+02  0.00000000000E+00 0. -1.
         11    1    4    4    0    0 -0.76556492733E+02 -0.38207314424E+02  0.93295032151E+02  0.12658854008E+03  0.00000000000E+00 0.  1.
</event>
<event>
 8    1  0.3654190E-009  0.9278693E+02  0.7561462E-02  0.1296240E+00
          1   -1    0    0  501    0  0.00000000000E+00  0.00000000000E+00  0.37211863096E+03  0.37211863096E+03  0.00000000000E+00 0. -1.
         -1   -1    0    0    0  501 -0.00000000000E+00 -0.00000000000E+00 -0.10702372003E+03  0.10702372003E+03  0.00000000000E+00 0.  1.
         25    2    1    2    0    0 -0.31888903401E+02 -0.59582859538E+02 -0.44923601389E+02  0.14910506435E+03  0.12508865233E+03 0.  0.
         23    2    1    2    0    0  0.31888903401E+02  0.59582859538E+02  0.31001851232E+03  0.33003728665E+03  0.90808112443E+02 0.  0.
          5    1    3    3  502    0  0.11896122082E+02  0.21892817441E+02  0.23084548923E+02  0.34222536070E+02  0.41800000000E+01 0. -1.
         -5    1    3    3    0  502 -0.43785025482E+02 -0.81475676979E+02 -0.68008150312E+02  0.11488252828E+03  0.41800000000E+01 0. -1.
        -11    1    4    4    0    0  0.77325682068E+01  0.10791636913E+02 -0.18926645764E+01  0.13410228094E+02  0.00000000000E+00 0.  1.
         11    1    4    4    0    0  0.24156335194E+02  0.48791222626E+02  0.31191117690E+03  0.31662705855E+03  0.00000000000E+00 0. -1.
</event>
<event>
 8    1  0.3654190E-009  0.1158065E+03  0.7561462E-02  0.1250180E+00
         -2   -1    0    0    0  501 -0.00000000000E+00  0.00000000000E+00  0.22202071580E+03  0.22202071580E+03  0.00000000000E+00 0. -1.
          2   -1    0    0  501    0  0.00000000000E+00 -0.00000000000E+00 -0.83502703155E+02  0.83502703155E+02  0.00000000000E+00 0.  1.
         25    2    1    2    0    0  0.28745848545E+01  0.82380850358E+02  0.64810972920E+02  0.16322760561E+03  0.12509165151E+03 0.  0.
         23    2    1    2    0    0 -0.28745848545E+01 -0.82380850358E+02  0.73707039725E+02  0.14229581334E+03  0.89557261271E+02 0.  0.
          5    1    3    3  502    0 -0.15579262793E+02 -0.29423079189E+02  0.28896862717E+02  0.44282412909E+02  0.41800000000E+01 0.  1.
         -5    1    3    3    0  502  0.18453847647E+02  0.11180392955E+03  0.35914110202E+02  0.11894519270E+03  0.41800000000E+01 0.  1.
        -11    1    4    4    0    0  0.69510003781E+01 -0.14540793132E+02  0.71942005004E+02  0.73725186708E+02  0.00000000000E+00 0. -1.
         11    1    4    4    0    0 -0.98255852326E+01 -0.67840057226E+02  0.17650347207E+01  0.68570626635E+02  0.00000000000E+00 0.  1.
</event>
<event>
 8    1  0.3654190E-009  0.1569078E+03  0.7561462E-02  0.1192233E+00
          2   -1    0    0  501    0  0.00000000000E+00  0.00000000000E+00  0.17320239109E+03  0.17320239109E+03  0.00000000000E+00 0. -1.
         -2   -1    0    0    0  501 -0.00000000000E+00 -0.00000000000E+00 -0.19063956392E+03  0.19063956392E+03  0.00000000000E+00 0.  1.
         25    2    1    2    0    0 -0.12141192234E+03  0.79255611555E+02  0.41522140279E+01  0.19154010976E+03  0.12509222964E+03 0.  0.
         23    2    1    2    0    0  0.12141192234E+03 -0.79255611555E+02 -0.21589386858E+02  0.17230184524E+03  0.90551186620E+02 0.  0.
          5    1    3    3  502    0 -0.95166605393E+02  0.13788240850E+02  0.48844967830E+02  0.10793563661E+03  0.41800000000E+01 0.  1.
         -5    1    3    3    0  502 -0.26245316951E+02  0.65467370705E+02 -0.44692753802E+02  0.83604473154E+02  0.41800000000E+01 0.  1.
        -11    1    4    4    0    0  0.95979148748E+02 -0.73352129132E+02 -0.52607823662E+02  0.13175778897E+03  0.00000000000E+00 0.  1.
         11    1    4    4    0    0  0.25432773595E+02 -0.59034824222E+01  0.31018436804E+02  0.40544056275E+02  0.00000000000E+00 0. -1.
</event>
<event>
 8    1  0.3654190E-009  0.1431716E+03  0.7561462E-02  0.1209124E+00
         -1   -1    0    0    0  501 -0.00000000000E+00  0.00000000000E+00  0.23020192116E+03  0.23020192116E+03  0.00000000000E+00 0.  1.
          1   -1    0    0  501    0  0.00000000000E+00 -0.00000000000E+00 -0.12678758255E+03  0.12678758255E+03  0.00000000000E+00 0. -1.
         25    2    1    2    0    0  0.80053365933E+02 -0.94793620629E+02  0.12447087272E+02  0.17662377281E+03  0.12508659093E+03 0.  0.
         23    2    1    2    0    0 -0.80053365933E+02  0.94793620629E+02  0.90967251336E+02  0.18036573091E+03  0.94140236673E+02 0.  0.
          5    1    3    3  502    0  0.20531985112E+01 -0.37794983065E+02 -0.48997743943E+02  0.62055843242E+02  0.41800000000E+01 0. -1.
         -5    1    3    3    0  502  0.78000167422E+02 -0.56998637564E+02  0.61444831215E+02  0.11456792957E+03  0.41800000000E+01 0. -1.
        -11    1    4    4    0    0 -0.29253334203E+02 -0.13295978625E+02  0.37861262601E+02  0.49658995311E+02  0.00000000000E+00 0.  1.
         11    1    4    4    0    0 -0.50800031731E+02  0.10808959925E+03  0.53105988735E+02  0.13070673560E+03  0.00000000000E+00 0. -1.
</event>
<event>
 8    1  0.3654190E-009  0.1404342E+03  0.7561462E-02  0.1212746E+00
          1   -1    0    0  501    0  0.00000000000E+00  0.00000000000E+00  0.63911617344E+03  0.63911617344E+03  0.00000000000E+00 0. -1.
         -1   -1    0    0    0  501 -0.00000000000E+00 -0.00000000000E+00 -0.51227060759E+02  0.51227060759E+02  0.00000000000E+00 0.  1.
         25    2    1    2    0    0  0.77919048847E+02 -0.95586047701E+02  0.16536537840E+03  0.24124924846E+03  0.12508965112E+03 0.  0.
         23    2    1    2    0    0 -0.77919048847E+02  0.95586047701E+02  0.42252373428E+03  0.44909398574E+03  0.89168555627E+02 0.  0.
          5    1    3    3  502    0  0.79853272442E+02 -0.11336904942E+03  0.94051458299E+02  0.16760738556E+03  0.41800000000E+01 0.  1.
         -5    1    3    3    0  502 -0.19342235948E+01  0.17783001714E+02  0.71313920101E+02  0.73641862898E+02  0.41800000000E+01 0.  1.
        -11    1    4    4    0    0 -0.41399480472E+02  0.58975527642E+02  0.36371521967E+03  0.37078402186E+03  0.00000000000E+00 0. -1.
         11    1    4    4    0    0 -0.36519568376E+02  0.36610520060E+02  0.58808514609E+02  0.78309963886E+02  0.00000000000E+00 0.  1.
</event>
<event>
 8    1  0.3654190E-009  0.1077900E+03  0.7561462E-02  0.1264718E+00
          3   -1    0    0  501    0  0.00000000000E+00  0.00000000000E+00  0.50067370435E+02  0.50067370435E+02  0.00000000000E+00 0. -1.
         -3   -1    0    0    0  501 -0.00000000000E+00 -0.00000000000E+00 -0.29333161226E+03  0.29333161226E+03  0.00000000000E+00 0.  1.
         25    2    1    2    0    0 -0.55078675237E+02  0.25747375199E+02 -0.14053805950E+03  0.19772228592E+03  0.12508624379E+03 0.  0.
         23    2    1    2    0    0  0.55078675237E+02 -0.25747375199E+02 -0.10272618233E+03  0.14567669678E+03  0.83501159595E+02 0.  0.
          5    1    3    3  502    0  0.27581548681E+02  0.25795091240E+02 -0.97059577175E+02  0.10423129320E+03  0.41800000000E+01 0.  1.
         -5    1    3    3    0  502 -0.82660223917E+02 -0.47716040529E-01 -0.43478482323E+02  0.93490992721E+02  0.41800000000E+01 0.  1.
        -11    1    4    4    0    0  0.30302775412E+00 -0.38563197054E+02 -0.71750074022E+02  0.81457259437E+02  0.00000000000E+00 0.  1.
         11    1    4    4    0    0  0.54775647483E+02  0.12815821855E+02 -0.30976108307E+02  0.64219437344E+02  0.00000000000E+00 0. -1.
</event>
<event>
 8    1  0.3654190E-009  0.1083474E+03  0.7561462E-02  0.1263661E+00
         -3   -1    0    0    0  501 -0.00000000000E+00  0.00000000000E+00  0.44357893698E+03  0.44357893698E+03  0.00000000000E+00 0.  1.
          3   -1    0    0  501    0  0.00000000000E+00 -0.00000000000E+00 -0.33203201856E+02  0.33203201856E+02  0.00000000000E+00 0. -1.
         25    2    1    2    0    0 -0.20530690796E+02 -0.56027299379E+01  0.13724311786E+03  0.18690761918E+03  0.12508351154E+03 0.  0.
         23    2    1    2    0    0  0.20530690796E+02  0.56027299379E+01  0.27313261726E+03  0.28987451965E+03  0.94725448984E+02 0.  0.
          5    1    3    3  502    0  0.92517607095E+01 -0.61985063067E+02  0.63221005421E+02  0.89118522464E+02  0.41800000000E+01 0. -1.
         -5    1    3    3    0  502 -0.29782451505E+02  0.56382333129E+02  0.74022112441E+02  0.97789096718E+02  0.41800000000E+01 0. -1.
        -11    1    4    4    0    0  0.38040537181E+02  0.37612829586E+02  0.21232415949E+03  0.21895971347E+03  0.00000000000E+00 0.  1.
         11    1    4    4    0    0 -0.17509846386E+02 -0.32010099648E+02  0.60808457771E+02  0.70914806187E+02  0.00000000000E+00 0. -1.
</event>
<event>
 8    1  0.3654190E-009  0.3549964E+03  0.7561462E-02  0.1060583E+00
          2   -1    0    0  501    0  0.00000000000E+00  0.00000000000E+00  0.55830929799E+03  0.55830929799E+03  0.00000000000E+00 0. -1.
         -2   -1    0    0    0  501 -0.00000000000E+00 -0.00000000000E+00 -0.24338725485E+03  0.24338725485E+03  0.00000000000E+00 0.  1.
         25    2    1    2    0    0  0.26681288613E+03 -0.21432392335E+03  0.71443618160E+02  0.37131457581E+03  0.12508582376E+03 0.  0.
         23    2    1    2    0    0 -0.26681288613E+03  0.21432392335E+03  0.24347842498E+03  0.43038197704E+03  0.93931051306E+02 0.  0.
          5    1    3    3  502    0  0.19374622846E+03 -0.78949509915E+02  0.56193415265E+02  0.21666979134E+03  0.41800000000E+01 0.  1.
         -5    1    3    3    0  502  0.73066657670E+02 -0.13537441343E+03  0.15250202895E+02  0.15464478447E+03  0.41800000000E+01 0.  1.
        -11    1    4    4    0    0 -0.17926907978E+03  0.10866585114E+03  0.10141926354E+03  0.23287665660E+03  0.00000000000E+00 0. -1.
         11    1    4    4    0    0 -0.87543806350E+02  0.10565807221E+03  0.14205916143E+03  0.19750532044E+03  0.00000000000E+00 0.  1.
</event>
<event>
 8    1  0.3654190E-009  0.9348243E+02  0.7561462E-02  0.1294631E+00
         -1   -1    0    0    0  501 -0.00000000000E+00  0.00000000000E+00  0.12588522606E+03  0.12588522606E+03  0.00000000000E+00 0.  1.
          1   -1    0    0  501    0  0.00000000000E+00 -0.00000000000E+00 -0.18769623499E+03  0.18769623499E+03  0.00000000000E+00 0. -1.
         25    2    1    2    0    0  0.50385647993E+02 -0.20306639057E+02  0.63041196721E+02  0.15023858626E+03  0.12508543961E+03 0.  0.
         23    2    1    2    0    0 -0.50385647993E+02  0.20306639057E+02 -0.12485220565E+03  0.16334287478E+03  0.90231637321E+02 0.  0.
          5    1    3    3  502    0 -0.22861311353E+00  0.29221859834E+02 -0.23932877245E+02  0.38002952114E+02  0.41800000000E+01 0. -1.
         -5    1    3    3    0  502  0.50614261107E+02 -0.49528498891E+02  0.86974073966E+02  0.11223563415E+03  0.41800000000E+01 0. -1.
        -11    1    4    4    0    0 -0.40707124845E+02  0.44582760385E+02 -0.12315163298E+03  0.13715326187E+03  0.00000000000E+00 0. -1.
         11    1    4    4    0    0 -0.96785231483E+01 -0.24276121328E+02 -0.17005726706E+01  0.26189612912E+02  0.00000000000E+00 0.  1.
</event>
<event>
 8    1  0.3654190E-009  0.3347868E+03  0.7561462E-02  0.1069038E+00
         -2   -1    0    0    0  501 -0.00000000000E+00  0.00000000000E+00  0.14018749127E+03  0.14018749127E+03  0.00000000000E+00 0.  1.
          2   -1    0    0  501    0  0.00000000000E+00 -0.00000000000E+00 -0.84220571484E+03  0.84220571484E+03  0.00000000000E+00 0. -1.
         25    2    1    2    0    0 -0.22429309868E+03  0.22460259706E+03 -0.46195291632E+03  0.57428393293E+03  0.12509123873E+03 0.  0.
         23    2    1    2    0    0  0.22429309868E+03 -0.22460259706E+03 -0.24006530725E+03  0.40810927318E+03  0.90377576803E+02 0.  0.
          5    1    3    3  502    0 -0.22482696002E+03  0.23685380613E+03 -0.45331861871E+03  0.55871471244E+03  0.41800000000E+01 0.  1.
         -5    1    3    3    0  502  0.53386134025E+00 -0.12251209066E+02 -0.86342976067E+01  0.15569220490E+02  0.41800000000E+01 0.  1.
        -11    1    4    4    0    0 -0.87166962096E+01 -0.66128957652E+01 -0.73913009844E+01  0.13203882514E+02  0.00000000000E+00 0.  1.
         11    1    4    4    0    0  0.23300979489E+03 -0.21798970130E+03 -0.23267400626E+03  0.39490539066E+03  0.00000000000E+00 0. -1.
</event>
<event>
 8    1  0.3654190E-009  0.1113331E+03  0.7561462E-02  0.1258121E+00
          2   -1    0    0  501    0  0.00000000000E+00  0.00000000000E+00  0.91296855721E+03  0.91296855721E+03  0.00000000000E+00 0. -1.
         -2   -1    0    0    0  501 -0.00000000000E+00 -0.00000000000E+00 -0.22829295851E+02  0.22829295851E+02  0.00000000000E+00 0.  1.
         25    2    1    2    0    0  0.27239796013E+02  0.42018916371E+02  0.74697531461E+03  0.75903058856E+03  0.12509083864E+03 0.  0.
         23    2    1    2    0    0 -0.27239796013E+02 -0.42018916371E+02  0.14316394674E+03  0.17676726450E+03  0.90791818631E+02 0.  0.
          5    1    3    3  502    0  0.49490619236E+02 -0.22573430853E+02  0.49245783295E+03  0.49547055493E+03  0.41800000000E+01 0. -1.
         -5    1    3    3    0  502 -0.22250823223E+02  0.64592347224E+02  0.25451748167E+03  0.26356003363E+03  0.41800000000E+01 0. -1.
        -11    1    4    4    0    0 -0.21129460700E+02  0.24792441885E+02  0.71661683340E+02  0.78717953119E+02  0.00000000000E+00 0.  1.
         11    1    4    4    0    0 -0.61103353129E+01 -0.66811358256E+02  0.71502263404E+02  0.98049311377E+02  0.00000000000E+00 0. -1.
</event>
<event>
 8    1  0.3654190E-009  0.1934071E+03  0.7561462E-02  0.1155424E+00
          2   -1    0    0  501    0  0.00000000000E+00  0.00000000000E+00  0.30824363118E+03  0.30824363118E+03  0.00000000000E+00 0. -1.
         -2   -1    0    0    0  501 -0.00000000000E+00 -0.00000000000E+00 -0.14383439689E+03  0.14383439689E+03  0.00000000000E+00 0.  1.
         25    2    1    2    0    0 -0.72415333503E+02 -0.14989588551E+03  0.10136369168E+02  0.20847868603E+03  0.12509140470E+03 0.  0.
         23    2    1    2    0    0  0.72415333503E+02  0.14989588551E+03  0.15427286511E+03  0.24359934204E+03  0.88474660295E+02 0.  0.
          5    1    3    3  502    0 -0.84347563303E+01  0.17752381463E+02  0.20478408740E+02  0.28690238523E+02  0.41800000000E+01 0. -1.
         -5    1    3    3    0  502 -0.63980577173E+02 -0.16764826697E+03 -0.10342039572E+02  0.17978844750E+03  0.41800000000E+01 0. -1.
        -11    1    4    4    0    0  0.66201815934E+01  0.11017601769E+03  0.76747218462E+02  0.13443480658E+03  0.00000000000E+00 0.  1.
         11    1    4    4    0    0  0.65795151910E+02  0.39719867821E+02  0.77525646652E+02  0.10916453547E+03  0.00000000000E+00 0. -1.
</event>
<event>
 8    1  0.3654190E-009  0.9961615E+02  0.7561462E-02  0.1281105E+00
         -1   -1    0    0    0  501 -0.00000000000E+00  0.00000000000E+00  0.52909150333E+02  0.52909150333E+02  0.00000000000E+00 0.  1.
          1   -1    0    0  501    0  0.00000000000E+00 -0.00000000000E+00 -0.25038604114E+03  0.25038604114E+03  0.00000000000E+00 0. -1.
         25    2    1    2    0    0 -0.42163450912E+01 -0.27256060848E+02 -0.11467509969E+03  0.17192665485E+03  0.12509086993E+03 0.  0.
         23    2    1    2    0    0  0.42163450912E+01  0.27256060848E+02 -0.82801791116E+02  0.13136853662E+03  0.98188010386E+02 0.  0.
          5    1    3    3  502    0 -0.25784756799E+02 -0.55666942083E+02 -0.12074689648E+03  0.13550257390E+03  0.41800000000E+01 0. -1.
         -5    1    3    3    0  502  0.21568411708E+02  0.28410881236E+02  0.60717967963E+01  0.36424080943E+02  0.41800000000E+01 0. -1.
        -11    1    4    4    0    0 -0.32797266291E+02  0.48951974442E+02 -0.44249082037E+02  0.73688111246E+02  0.00000000000E+00 0. -1.
         11    1    4    4    0    0  0.37013611382E+02 -0.21695913595E+02 -0.38552709080E+02  0.57680425376E+02  0.00000000000E+00 0.  1.
</event>
<event>
 8    1  0.3654190E-009  0.8244533E+02  0.7561462E-02  0.1322252E+00
          1   -1    0    0  501    0  0.00000000000E+00  0.00000000000E+00  0.24972251288E+03  0.24972251288E+03  0.00000000000E+00 0.  1.
         -1   -1    0    0    0  501 -0.00000000000E+00 -0.00000000000E+00 -0.90695767875E+02  0.90695767875E+02  0.00000000000E+00 0. -1.
         25    2    1    2    0    0  0.57462487273E+02  0.19123520701E+01 -0.12869053117E+02  0.13826051917E+03  0.12507903141E+03 0.  0.
         23    2    1    2    0    0 -0.57462487273E+02 -0.19123520701E+01  0.17189579812E+03  0.20215776158E+03  0.89520950753E+02 0.  0.
          5    1    3    3  502    0  0.47117698909E+02 -0.18533917103E+02  0.49959622741E+02  0.71253210019E+02  0.41800000000E+01 0.  1.
         -5    1    3    3    0  502  0.10344788364E+02  0.20446269174E+02 -0.62828675858E+02  0.67007309149E+02  0.41800000000E+01 0.  1.
        -11    1    4    4    0    0 -0.46874247897E+02 -0.33411374187E+02  0.15401702817E+03  0.16442250457E+03  0.00000000000E+00 0.  1.
         11    1    4    4    0    0 -0.10588239376E+02  0.31499022117E+02  0.17878769949E+02  0.37735257019E+02  0.00000000000E+00 0. -1.
</event>
<event>
 8    1  0.3654190E-009  0.9370712E+02  0.7561462E-02  0.1294115E+00
          2   -1    0    0  501    0  0.00000000000E+00  0.00000000000E+00  0.19365054694E+03  0.19365054694E+03  0.00000000000E+00 0. -1.
         -2   -1    0    0    0  501 -0.00000000000E+00 -0.00000000000E+00 -0.95552480102E+02  0.95552480102E+02  0.00000000000E+00 0.  1.
         25    2    1    2    0    0 -0.15638975319E+02  0.28019134189E+02  0.13618635982E+03  0.18768197235E+03  0.12509256058E+03 0.  0.
         23    2    1    2    0    0  0.15638975319E+02 -0.28019134189E+02 -0.38088292988E+02  0.10152105469E+03  0.88465569874E+02 0.  0.
          5    1    3    3  502    0 -0.23938898347E+02  0.68838352536E+02  0.12431983148E+03  0.14416893748E+03  0.41800000000E+01 0.  1.
         -5    1    3    3    0  502  0.82999230276E+01 -0.40819218347E+02  0.11866528342E+02  0.43513034870E+02  0.41800000000E+01 0.  1.
        -11    1    4    4    0    0 -0.24251595234E+02 -0.20927320542E+02 -0.49919276086E+02  0.59312955932E+02  0.00000000000E+00 0.  1.
         11    1    4    4    0    0  0.39890570553E+02 -0.70918136473E+01  0.11830983097E+02  0.42208098760E+02  0.00000000000E+00 0. -1.
</event>
<event>
 8    1  0.3654190E-009  0.1053881E+03  0.7561462E-02  0.1269357E+00
         -2   -1    0    0    0  501 -0.00000000000E+00  0.00000000000E+00  0.69921780592E+01  0.69921780592E+01  0.00000000000E+00 0.  1.
          2   -1    0    0  501    0  0.00000000000E+00 -0.00000000000E+00 -0.20051084408E+04  0.20051084408E+04  0.00000000000E+00 0. -1.
         25    2    1    2    0    0 -0.68303883837E+01  0.79014281091E+01 -0.15178847524E+04  0.15230664250E+04  0.12509247163E+03 0.  0.
         23    2    1    2    0    0  0.68303883837E+01 -0.79014281091E+01 -0.48023151029E+03  0.48903419387E+03  0.91777189538E+02 0.  0.
          5    1    3    3  502    0 -0.61770396813E+02 -0.40438363594E+01 -0.53893395833E+03  0.54249351920E+03  0.41800000000E+01 0.  1.
         -5    1    3    3    0  502  0.54940008429E+02  0.11945264469E+02 -0.97895079409E+03  0.98057290577E+03  0.41800000000E+01 0.  1.
        -11    1    4    4    0    0  0.40058510261E+02 -0.32029826701E+02 -0.27118968127E+03  0.27599716896E+03  0.00000000000E+00 0. -1.
         11    1    4    4    0    0 -0.33228121877E+02  0.24128398592E+02 -0.20904182902E+03  0.21303702491E+03  0.00000000000E+00 0.  1.
</event>
<event>
 8    1  0.3654190E-009  0.2414988E+03  0.7561462E-02  0.1118798E+00
          2   -1    0    0  501    0  0.00000000000E+00  0.00000000000E+00  0.11628465851E+04  0.11628465851E+04  0.00000000000E+00 0. -1.
         -2   -1    0    0    0  501 -0.00000000000E+00 -0.00000000000E+00 -0.62354495628E+02  0.62354495628E+02  0.00000000000E+00 0.  1.
         25    2    1    2    0    0 -0.19005841731E+03 -0.14047996143E+03  0.40808811184E+03  0.48789356985E+03  0.12508959557E+03 0.  0.
         23    2    1    2    0    0  0.19005841731E+03  0.14047996143E+03  0.69240397767E+03  0.73730751091E+03  0.91336059742E+02 0.  0.
          5    1    3    3  502    0 -0.11296343237E+03 -0.11079870828E+03  0.35739643343E+03  0.39087948762E+03  0.41800000000E+01 0.  1.
         -5    1    3    3    0  502 -0.77094984941E+02 -0.29681253148E+02  0.50691678409E+02  0.97014082232E+02  0.41800000000E+01 0.  1.
        -11    1    4    4    0    0  0.75174235860E+02  0.87864852108E+02  0.44135601568E+03  0.45625270470E+03  0.00000000000E+00 0. -1.
         11    1    4    4    0    0  0.11488418145E+03  0.52615109319E+02  0.25104796199E+03  0.28105480621E+03  0.00000000000E+00 0.  1.
</event>
<event>
 8    1  0.3654190E-009  0.6791220E+02  0.7561462E-02  0.1367340E+00
          1   -1    0    0  501    0  0.00000000000E+00  0.00000000000E+00  0.31813629505E+02  0.31813629505E+02  0.00000000000E+00 0. -1.
         -1   -1    0    0    0  501 -0.00000000000E+00 -0.00000000000E+00 -0.42831034946E+03  0.42831034946E+03  0.00000000000E+00 0.  1.
         25    2    1    2    0    0 -0.33951451725E+01  0.12658571135E+02 -0.30250771979E+03  0.32761219764E+03  0.12508822916E+03 0.  0.
         23    2    1    2    0    0  0.33951451725E+01 -0.12658571135E+02 -0.93989000174E+02  0.13251178133E+03  0.92486072490E+02 0.  0.
          5    1    3    3  502    0  0.17390013913E+02  0.18653312487E+00  0.54309730848E+01  0.18692652223E+02  0.41800000000E+01 0. -1.
         -5    1    3    3    0  502 -0.20785159085E+02  0.12472038010E+02 -0.30793869287E+03  0.30891954541E+03  0.41800000000E+01 0. -1.
        -11    1    4    4    0    0 -0.41780707727E+02 -0.21984895502E+02 -0.44980776421E+02  0.65209151320E+02  0.00000000000E+00 0.  1.
         11    1    4    4    0    0  0.45175852900E+02  0.93263243673E+01 -0.49008223754E+02  0.67302630015E+02  0.00000000000E+00 0. -1.
</event>
<event>
 8    1  0.3654190E-009  0.2154897E+03  0.7561462E-02  0.1137291E+00
          2   -1    0    0  501    0  0.00000000000E+00  0.00000000000E+00  0.49810933438E+03  0.49810933438E+03  0.00000000000E+00 0. -1.
         -2   -1    0    0    0  501 -0.00000000000E+00 -0.00000000000E+00 -0.10058302084E+03  0.10058302084E+03  0.00000000000E+00 0.  1.
         25    2    1    2    0    0 -0.20735861933E+02 -0.18479583181E+03  0.12579147111E+03  0.25700134358E+03  0.12508685370E+03 0.  0.
         23    2    1    2    0    0  0.20735861933E+02  0.18479583181E+03  0.27173484243E+03  0.34169101165E+03  0.91287717843E+02 0.  0.
          5    1    3    3  502    0 -0.10712131297E+01  0.18819052162E+02  0.78892873859E+01  0.20857072597E+02  0.41800000000E+01 0.  1.
         -5    1    3    3    0  502 -0.19664648804E+02 -0.20361488397E+03  0.11790218373E+03  0.23614427098E+03  0.41800000000E+01 0.  1.
        -11    1    4    4    0    0 -0.36056670351E+02  0.83154303257E+02  0.12387656371E+03  0.15349307692E+03  0.00000000000E+00 0. -1.
         11    1    4    4    0    0  0.56792532285E+02  0.10164152856E+03  0.14785827871E+03  0.18819793473E+03  0.00000000000E+00 0.  1.
</event>
<event>
 8    1  0.3654190E-009  0.2041070E+03  0.7561462E-02  0.1146319E+00
         -1   -1    0    0    0  501 -0.00000000000E+00  0.00000000000E+00  0.49749341838E+03  0.49749341838E+03  0.00000000000E+00 0.  1.
          1   -1    0    0  501    0  0.00000000000E+00 -0.00000000000E+00 -0.10533692337E+03  0.10533692337E+03  0.00000000000E+00 0. -1.
         25    2    1    2    0    0  0.16327810137E+03 -0.98189958039E+02  0.12125591061E+03  0.25816724417E+03  0.12508526636E+03 0.  0.
         23    2    1    2    0    0 -0.16327810137E+03  0.98189958039E+02  0.27090058440E+03  0.34466309757E+03  0.95417597731E+02 0.  0.
          5    1    3    3  502    0  0.27638349117E+02  0.85380110088E+01  0.73410142610E+02  0.79014539244E+02  0.41800000000E+01 0.  1.
         -5    1    3    3    0  502  0.13563975225E+03 -0.10672796905E+03  0.47845768000E+02  0.17915270493E+03  0.41800000000E+01 0.  1.
        -11    1    4    4    0    0 -0.87826924327E+02  0.71767314230E+01  0.15950513729E+03  0.18222777761E+03  0.00000000000E+00 0.  1.
         11    1    4    4    0    0 -0.75451177040E+02  0.91013226616E+02  0.11139544711E+03  0.16243531997E+03  0.00000000000E+00 0. -1.
</event>
<event>
 8    1  0.3654190E-009  0.1286237E+03  0.7561462E-02  0.1229512E+00
         -1   -1    0    0    0  501 -0.00000000000E+00  0.00000000000E+00  0.79243433427E+02  0.79243433427E+02  0.00000000000E+00 0.  1.
          1   -1    0    0  501    0  0.00000000000E+00 -0.00000000000E+00 -0.26323008407E+03  0.26323008407E+03  0.00000000000E+00 0. -1.
         25    2    1    2    0    0  0.70872663002E+02  0.52036011140E+02 -0.14563902626E+03  0.21115983970E+03  0.12508825332E+03 0.  0.
         23    2    1    2    0    0 -0.70872663002E+02 -0.52036011140E+02 -0.38347624382E+02  0.13131367779E+03  0.89677538229E+02 0.  0.
          5    1    3    3  502    0  0.10562013322E+03  0.32716155294E+02 -0.89900868977E+02  0.14256787156E+03  0.41800000000E+01 0.  1.
         -5    1    3    3    0  502 -0.34747470218E+02  0.19319855846E+02 -0.55738157284E+02  0.68591968144E+02  0.41800000000E+01 0.  1.
        -11    1    4    4    0    0 -0.23671675692E+02 -0.54434695136E+02  0.13793499921E+02  0.60940502990E+02  0.00000000000E+00 0. -1.
         11    1    4    4    0    0 -0.47200987310E+02  0.23986839960E+01 -0.52141124303E+02  0.70373174800E+02  0.00000000000E+00 0.  1.
</event>
<event>
 8    1  0.3654190E-009  0.1935528E+03  0.7561462E-02  0.1155295E+00
         -2   -1    0    0    0  501 -0.00000000000E+00  0.00000000000E+00  0.35660871096E+02  0.35660871096E+02  0.00000000000E+00 0.  1.
          2   -1    0    0  501    0  0.00000000000E+00 -0.00000000000E+00 -0.13100472355E+04  0.13100472355E+04  0.00000000000E+00 0. -1.
         25    2    1    2    0    0  0.85009606349E+02  0.13929311352E+03 -0.37997025833E+03  0.43203508229E+03  0.12509080891E+03 0.  0.
         23    2    1    2    0    0 -0.85009606349E+02 -0.13929311352E+03 -0.89441610606E+03  0.91367302429E+03  0.90493203534E+02 0.  0.
          5    1    3    3  502    0  0.21910039929E+02  0.13920748105E+03 -0.23810027914E+03  0.27670921191E+03  0.41800000000E+01 0.  1.
         -5    1    3    3    0  502  0.63099566420E+02  0.85632468268E-01 -0.14186997919E+03  0.15532587038E+03  0.41800000000E+01 0.  1.
        -11    1    4    4    0    0  0.22597047290E+01 -0.73646055876E+02 -0.27475545615E+03  0.28446336933E+03  0.00000000000E+00 0. -1.
         11    1    4    4    0    0 -0.87269311078E+02 -0.65647057640E+02 -0.61966064991E+03  0.62920965495E+03  0.00000000000E+00 0.  1.
</event>
<event>
 8    1  0.3654190E-009  0.1361437E+03  0.7561462E-02  0.1218614E+00
          2   -1    0    0  501    0  0.00000000000E+00  0.00000000000E+00  0.30120055149E+02  0.30120055149E+02  0.00000000000E+00 0.  1.
         -2   -1    0    0    0  501 -0.00000000000E+00 -0.00000000000E+00 -0.68573256268E+03  0.68573256268E+03  0.00000000000E+00 0. -1.
         25    2    1    2    0    0  0.82719253568E+02 -0.40001329029E+02 -0.40481564150E+03  0.43355561625E+03  0.12510870293E+03 0.  0.
         23    2    1    2    0    0 -0.82719253568E+02  0.40001329029E+02 -0.25079686604E+03  0.28229700158E+03  0.91378049072E+02 0.  0.
          5    1    3    3  502    0  0.11593701420E+03 -0.26412720861E+02 -0.31731029481E+03  0.33888393099E+03  0.41800000000E+01 0. -1.
         -5    1    3    3    0  502 -0.33217760631E+02 -0.13588608168E+02 -0.87505346683E+02  0.94671685268E+02  0.41800000000E+01 0. -1.
        -11    1    4    4    0    0 -0.85632477439E+02  0.55079580125E+02 -0.24595220785E+03  0.26619385771E+03  0.00000000000E+00 0. -1.
         11    1    4    4    0    0  0.29132238709E+01 -0.15078251096E+02 -0.48446581895E+01  0.16103143867E+02  0.00000000000E+00 0.  1.
</event>
<event>
 8    1  0.3654190E-009  0.9951955E+02  0.7561462E-02  0.1281310E+00
         -1   -1    0    0    0  501 -0.00000000000E+00  0.00000000000E+00  0.66025838392E+03  0.66025838392E+03  0.00000000000E+00 0.  1.
          1   -1    0    0  501    0  0.00000000000E+00 -0.00000000000E+00 -0.17978724111E+02  0.17978724111E+02  0.00000000000E+00 0. -1.
         25    2    1    2    0    0 -0.21865919457E+02  0.67670109495E+01  0.38078421162E+03  0.40145792734E+03  0.12509172929E+03 0.  0.
         23    2    1    2    0    0  0.21865919457E+02 -0.67670109495E+01  0.26149544819E+03  0.27677918069E+03  0.87766363535E+02 0.  0.
          5    1    3    3  502    0  0.50633024106E+02  0.12613834268E+02  0.19486908171E+03  0.20177770777E+03  0.41800000000E+01 0.  1.
         -5    1    3    3    0  502 -0.72498943563E+02 -0.58468233190E+01  0.18591512991E+03  0.19968021958E+03  0.41800000000E+01 0.  1.
        -11    1    4    4    0    0 -0.25619161063E+02 -0.61543018867E+01  0.27779305051E+02  0.38287160177E+02  0.00000000000E+00 0. -1.
         11    1    4    4    0    0  0.47485080520E+02 -0.61270906276E+00  0.23371614313E+03  0.23849202051E+03  0.00000000000E+00 0.  1.
</event>
<event>
 8    1  0.3654190E-009  0.2356982E+03  0.7561462E-02  0.1122692E+00
         -2   -1    0    0    0  501 -0.00000000000E+00  0.00000000000E+00  0.20808658080E+03  0.20808658080E+03  0.00000000000E+00 0.  1.
          2   -1    0    0  501    0  0.00000000000E+00 -0.00000000000E+00 -0.37568063980E+03  0.37568063980E+03  0.00000000000E+00 0. -1.
         25    2    1    2    0    0  0.11859218181E+03  0.19101541594E+03 -0.21736546603E+03  0.33681990904E+03  0.12509560579E+03 0.  0.
         23    2    1    2    0    0 -0.11859218181E+03 -0.19101541594E+03  0.49771407036E+02  0.24694731157E+03  0.89189612722E+02 0.  0.
          5    1    3    3  502    0 -0.45145370251E+01 -0.60190711532E+01  0.89751422009E+01  0.12435265965E+02  0.41800000000E+01 0.  1.
         -5    1    3    3    0  502  0.12310671884E+03  0.19703448709E+03 -0.22634060823E+03  0.32438464307E+03  0.41800000000E+01 0.  1.
        -11    1    4    4    0    0 -0.87751220885E+02 -0.93877439420E+02  0.64818727462E+02  0.14392608460E+03  0.00000000000E+00 0.  1.
         11    1    4    4    0    0 -0.30840960928E+02 -0.97137976520E+02 -0.15047320426E+02  0.10302122696E+03  0.00000000000E+00 0. -1.
</event>
<event>
 8    1  0.3654190E-009  0.1043279E+03  0.7561462E-02  0.1271450E+00
          2   -1    0    0  501    0  0.00000000000E+00  0.00000000000E+00  0.47517958014E+03  0.47517958014E+03  0.00000000000E+00 0. -1.
         -2   -1    0    0    0  501 -0.00000000000E+00 -0.00000000000E+00 -0.44746909873E+02  0.44746909873E+02  0.00000000000E+00 0.  1.
         25    2    1    2    0    0 -0.49967717136E+02 -0.43932235951E+02  0.35840097385E+03  0.38539042639E+03  0.12509080134E+03 0.  0.
         23    2    1    2    0    0  0.49967717136E+02  0.43932235951E+02  0.72031696413E+02  0.13453606363E+03  0.92111742012E+02 0.  0.
          5    1    3    3  502    0 -0.89311990660E+02 -0.12007167447E+02  0.24625009670E+03  0.26225443042E+03  0.41800000000E+01 0. -1.
         -5    1    3    3    0  502  0.39344273525E+02 -0.31925068504E+02  0.11215087715E+03  0.12313599597E+03  0.41800000000E+01 0. -1.
        -11    1    4    4    0    0  0.23808777278E+02  0.13117754631E+02 -0.20179484761E+02  0.33854762845E+02  0.00000000000E+00 0.  1.
         11    1    4    4    0    0  0.26158939858E+02  0.30814481321E+02  0.92211181174E+02  0.10068130078E+03  0.00000000000E+00 0. -1.
</event>
<event>
 8    1  0.3654190E-009  0.1007507E+03  0.7561462E-02  0.1278725E+00
          1   -1    0    0  501    0  0.00000000000E+00  0.00000000000E+00  0.82114059084E+03  0.82114059084E+03  0.00000000000E+00 0. -1.
         -1   -1    0    0    0  501 -0.00000000000E+00 -0.00000000000E+00 -0.24971386621E+02  0.24971386621E+02  0.00000000000E+00 0.  1.
         25    2    1    2    0    0 -0.17022558405E+02 -0.48054087443E+02  0.66066447821E+03  0.67433064776E+03  0.12508120133E+03 0.  0.
         23    2    1    2    0    0  0.17022558405E+02  0.48054087443E+02  0.13550472601E+03  0.17178132971E+03  0.92457188193E+02 0.  0.
          5    1    3    3  502    0 -0.71138984823E+02 -0.26334988827E+02  0.40539622307E+03  0.41245346026E+03  0.41800000000E+01 0.  1.
         -5    1    3    3    0  502  0.54116426418E+02 -0.21719098616E+02  0.25526825514E+03  0.26187718750E+03  0.41800000000E+01 0.  1.
        -11    1    4    4    0    0 -0.14744139529E+02  0.18715119254E+02  0.12504156039E+03  0.12729115116E+03  0.00000000000E+00 0. -1.
         11    1    4    4    0    0  0.31766697934E+02  0.29338968189E+02  0.10463165624E+02  0.44490178544E+02  0.00000000000E+00 0.  1.
</event>
<event>
 8    1  0.3654190E-009  0.1062500E+03  0.7561462E-02  0.1267676E+00
         -2   -1    0    0    0  501 -0.00000000000E+00  0.00000000000E+00  0.24131773588E+02  0.24131773588E+02  0.00000000000E+00 0.  1.
          2   -1    0    0  501    0  0.00000000000E+00 -0.00000000000E+00 -0.70514155696E+03  0.70514155696E+03  0.00000000000E+00 0. -1.
         25    2    1    2    0    0 -0.79891086214E+00 -0.68210061494E+02 -0.32413534763E+03  0.35406907492E+03  0.12509170831E+03 0.  0.
         23    2    1    2    0    0  0.79891086214E+00  0.68210061494E+02 -0.35687443575E+03  0.37520425563E+03  0.93624888797E+02 0.  0.
          5    1    3    3  502    0  0.46614083362E+02  0.44091968769E+01 -0.17783571114E+03  0.18394381301E+03  0.41800000000E+01 0.  1.
         -5    1    3    3    0  502 -0.47412994225E+02 -0.72619258371E+02 -0.14629963648E+03  0.17012526192E+03  0.41800000000E+01 0.  1.
        -11    1    4    4    0    0 -0.16014015164E+02  0.12049596862E+02 -0.82291707950E+01  0.21664734436E+02  0.00000000000E+00 0.  1.
         11    1    4    4    0    0  0.16812926026E+02  0.56160464632E+02 -0.34864526495E+03  0.35353952119E+03  0.00000000000E+00 0. -1.
</event>
<event>
 8    1  0.3654190E-009  0.1051813E+03  0.7561462E-02  0.1269763E+00
         -2   -1    0    0    0  501 -0.00000000000E+00  0.00000000000E+00  0.38230867587E+02  0.38230867587E+02  0.00000000000E+00 0.  1.
          2   -1    0    0  501    0  0.00000000000E+00 -0.00000000000E+00 -0.54626211662E+03  0.54626211662E+03  0.00000000000E+00 0. -1.
         25    2    1    2    0    0  0.38609923574E+02  0.68608481247E+02 -0.17047100252E+03  0.22562259805E+03  0.12508934469E+03 0.  0.
         23    2    1    2    0    0 -0.38609923574E+02 -0.68608481247E+02 -0.33756024652E+03  0.35887038616E+03  0.92968726635E+02 0.  0.
          5    1    3    3  502    0  0.76162533593E+01  0.53687682482E+02 -0.28535310953E+01  0.54460899783E+02  0.41800000000E+01 0. -1.
         -5    1    3    3    0  502  0.30993670214E+02  0.14920798765E+02 -0.16761747142E+03  0.17116169827E+03  0.41800000000E+01 0. -1.
        -11    1    4    4    0    0  0.21586408363E+02  0.87609307035E+01 -0.52858978940E+02  0.57765029104E+02  0.00000000000E+00 0.  1.
         11    1    4    4    0    0 -0.60196331936E+02 -0.77369411950E+02 -0.28470126758E+03  0.30110535705E+03  0.00000000000E+00 0. -1.
</event>
<event>
 8    1  0.3654190E-009  0.1048355E+03  0.7561462E-02  0.1270444E+00
          2   -1    0    0  501    0  0.00000000000E+00  0.00000000000E+00  0.26326088038E+03  0.26326088038E+03  0.00000000000E+00 0. -1.
         -2   -1    0    0    0  501 -0.00000000000E+00 -0.00000000000E+00 -0.59837982878E+02  0.59837982878E+02  0.00000000000E+00 0.  1.
         25    2    1    2    0    0 -0.53842895932E+02 -0.29877832461E+02  0.13712698270E+03  0.19555857938E+03  0.12509039240E+03 0.  0.
         23    2    1    2    0    0  0.53842895932E+02  0.29877832461E+02  0.66295914802E+02  0.12754028387E+03  0.89886780877E+02 0.  0.
          5    1    3    3  502    0 -0.56688920306E+02 -0.52652034324E+02  0.15006144982E+03  0.16888392915E+03  0.41800000000E+01 0.  1.
         -5    1    3    3    0  502  0.28460243740E+01  0.22774201863E+02 -0.12934467120E+02  0.26674650230E+02  0.41800000000E+01 0.  1.
        -11    1    4    4    0    0 -0.23875794150E+02  0.18731938684E+02  0.16118567774E+02  0.34362003729E+02  0.00000000000E+00 0.  1.
         11    1    4    4    0    0  0.77718690082E+02  0.11145893776E+02  0.50177347028E+02  0.93178280146E+02  0.00000000000E+00 0. -1.
</event>
<event>
 8    1  0.3654190E-009  0.9617724E+02  0.7561462E-02  0.1288546E+00
          2   -1    0    0  501    0  0.00000000000E+00  0.00000000000E+00  0.31526041820E+03  0.31526041820E+03  0.00000000000E+00 0. -1.
         -2   -1    0    0    0  501 -0.00000000000E+00 -0.00000000000E+00 -0.54577396683E+02  0.54577396683E+02  0.00000000000E+00 0.  1.
         25    2    1    2    0    0 -0.54577808592E+02  0.49133614997E+02  0.11796944355E+03  0.18696856178E+03  0.12509038399E+03 0.  0.
         23    2    1    2    0    0  0.54577808592E+02 -0.49133614997E+02  0.14271357797E+03  0.18286925311E+03  0.87642164982E+02 0.  0.
          5    1    3    3  502    0  0.38235722756E+01  0.23230726285E+02 -0.22351426416E+02  0.32731407112E+02  0.41800000000E+01 0.  1.
         -5    1    3    3    0  502 -0.58401380868E+02  0.25902888712E+02  0.14032086997E+03  0.15423715467E+03  0.41800000000E+01 0.  1.
        -11    1    4    4    0    0  0.41642907722E+02 -0.69070669420E+02  0.13609660669E+03  0.15819979611E+03  0.00000000000E+00 0. -1.
         11    1    4    4    0    0  0.12934900870E+02  0.19937054423E+02  0.66169712795E+01  0.24669456997E+02  0.00000000000E+00 0.  1.
</event>
<event>
 8    1  0.3654190E-009  0.1157812E+03  0.7561462E-02  0.1250224E+00
         -1   -1    0    0    0  501 -0.00000000000E+00  0.00000000000E+00  0.17506962218E+03  0.17506962218E+03  0.00000000000E+00 0.  1.
          1   -1    0    0  501    0  0.00000000000E+00 -0.00000000000E+00 -0.89501744237E+02  0.89501744237E+02  0.00000000000E+00 0. -1.
         25    2    1    2    0    0  0.31159964269E+02  0.57557249332E+02  0.55912254916E+02  0.15185055970E+03  0.12509449192E+03 0.  0.
         23    2    1    2    0    0 -0.31159964269E+02 -0.57557249332E+02  0.29655623028E+02  0.11272080672E+03  0.86848972164E+02 0.  0.
          5    1    3    3  502    0  0.52821240748E+02 -0.20862773961E+02  0.37941846020E+02  0.68428027086E+02  0.41800000000E+01 0. -1.
         -5    1    3    3    0  502 -0.21661276479E+02  0.78420023293E+02  0.17970408897E+02  0.83422532615E+02  0.41800000000E+01 0. -1.
        -11    1    4    4    0    0  0.90644353985E+01 -0.51718469183E+02 -0.12696353371E+02  0.54020009558E+02  0.00000000000E+00 0. -1.
         11    1    4    4    0    0 -0.40224399668E+02 -0.58387801490E+01  0.42351976398E+02  0.58700797159E+02  0.00000000000E+00 0.  1.
</event>
<event>
 8    1  0.3654190E-009  0.1521301E+03  0.7561462E-02  0.1197880E+00
         -1   -1    0    0    0  501 -0.00000000000E+00  0.00000000000E+00  0.62603097200E+02  0.62603097200E+02  0.00000000000E+00 0.  1.
          1   -1    0    0  501    0  0.00000000000E+00 -0.00000000000E+00 -0.48408677218E+03  0.48408677218E+03  0.00000000000E+00 0. -1.
         25    2    1    2    0    0 -0.44696857068E+02 -0.12314859148E+03 -0.24985271795E+03  0.30860515168E+03  0.12508946543E+03 0.  0.
         23    2    1    2    0    0  0.44696857068E+02  0.12314859148E+03 -0.17163095703E+03  0.23808471770E+03  0.10031830728E+03 0.  0.
          5    1    3    3  502    0  0.24383595592E+02 -0.41562090102E+01 -0.20928654168E+01  0.25173126405E+02  0.41800000000E+01 0.  1.
         -5    1    3    3    0  502 -0.69080452660E+02 -0.11899238247E+03 -0.24775985253E+03  0.28343202528E+03  0.41800000000E+01 0.  1.
        -11    1    4    4    0    0  0.17594556700E+02  0.23887361270E+01  0.83786078439E+01  0.19633531398E+02  0.00000000000E+00 0.  1.
         11    1    4    4    0    0  0.27102300368E+02  0.12075985535E+03 -0.18000956487E+03  0.21845118630E+03  0.00000000000E+00 0. -1.
</event>
<event>
 8    1  0.3654190E-009  0.1117117E+03  0.7561462E-02  0.1257433E+00
          1   -1    0    0  501    0  0.00000000000E+00  0.00000000000E+00  0.75281323438E+03  0.75281323438E+03  0.00000000000E+00 0. -1.
         -1   -1    0    0    0  501 -0.00000000000E+00 -0.00000000000E+00 -0.25571195642E+02  0.25571195642E+02  0.00000000000E+00 0.  1.
         25    2    1    2    0    0 -0.22100581927E+02  0.41426796592E+02  0.59532116706E+03  0.61013035426E+03  0.12508853680E+03 0.  0.
         23    2    1    2    0    0  0.22100581927E+02 -0.41426796592E+02  0.13192087167E+03  0.16825407576E+03  0.93282916065E+02 0.  0.
          5    1    3    3  502    0  0.39044733376E+02 -0.87255752835E+01  0.35094546529E+03  0.35324328568E+03  0.41800000000E+01 0. -1.
         -5    1    3    3    0  502 -0.61145315303E+02  0.50152371875E+02  0.24437570177E+03  0.25688706858E+03  0.41800000000E+01 0. -1.
        -11    1    4    4    0    0 -0.29128328633E+02 -0.43936126000E+02  0.74466618485E+02  0.91236615268E+02  0.00000000000E+00 0. -1.
         11    1    4    4    0    0  0.51228910561E+02  0.25093294088E+01  0.57454253186E+02  0.77017460491E+02  0.00000000000E+00 0.  1.
</event>
<event>
 8    1  0.3654190E-009  0.1530964E+03  0.7561462E-02  0.1196719E+00
          1   -1    0    0  501    0  0.00000000000E+00  0.00000000000E+00  0.20196107745E+03  0.20196107745E+03  0.00000000000E+00 0. -1.
         -1   -1    0    0    0  501 -0.00000000000E+00 -0.00000000000E+00 -0.18060568936E+03  0.18060568936E+03  0.00000000000E+00 0.  1.
         25    2    1    2    0    0 -0.12639263993E+03 -0.76352694129E+02  0.64068749756E+02  0.20385285894E+03  0.12508537114E+03 0.  0.
         23    2    1    2    0    0  0.12639263993E+03  0.76352694129E+02 -0.42713361663E+02  0.17871390787E+03  0.91155889942E+02 0.  0.
          5    1    3    3  502    0 -0.10017424687E+03 -0.48165501150E+02  0.10107257390E+03  0.15029282362E+03  0.41800000000E+01 0.  1.
         -5    1    3    3    0  502 -0.26218393058E+02 -0.28187192978E+02 -0.37003824140E+02  0.53560035320E+02  0.41800000000E+01 0.  1.
        -11    1    4    4    0    0  0.28809907259E+02  0.45577248140E+02 -0.53337501592E+02  0.75843163043E+02  0.00000000000E+00 0.  1.
         11    1    4    4    0    0  0.97582732671E+02  0.30775445989E+02  0.10624139929E+02  0.10287074482E+03  0.00000000000E+00 0. -1.
</event>
<event>
 8    1  0.3654190E-009  0.1589934E+03  0.7561462E-02  0.1189838E+00
          1   -1    0    0  501    0  0.00000000000E+00  0.00000000000E+00  0.72770259836E+03  0.72770259836E+03  0.00000000000E+00 0. -1.
         -1   -1    0    0    0  501 -0.00000000000E+00 -0.00000000000E+00 -0.46839411176E+02  0.46839411176E+02  0.00000000000E+00 0.  1.
         25    2    1    2    0    0 -0.14252684544E+03  0.55673390128E+01  0.44351302975E+03  0.48238590948E+03  0.12508981244E+03 0.  0.
         23    2    1    2    0    0  0.14252684544E+03 -0.55673390128E+01  0.23735015743E+03  0.29215610005E+03  0.93140714143E+02 0.  0.
          5    1    3    3  502    0 -0.15760832858E+03  0.24906195422E+01  0.43798575686E+03  0.46550572933E+03  0.41800000000E+01 0. -1.
         -5    1    3    3    0  502  0.15081483141E+02  0.30767194706E+01  0.55272728853E+01  0.16880180153E+02  0.41800000000E+01 0. -1.
        -11    1    4    4    0    0  0.60520437014E+02  0.86136992500E+01  0.28722896567E+02  0.67542015800E+02  0.00000000000E+00 0. -1.
         11    1    4    4    0    0  0.82006408422E+02 -0.14181038263E+02  0.20862726086E+03  0.22461408425E+03  0.00000000000E+00 0.  1.
</event>
<event>
 8    1  0.3654190E-009  0.1656159E+03  0.7561462E-02  0.1182498E+00
         -1   -1    0    0    0  501 -0.00000000000E+00  0.00000000000E+00  0.77426938444E+02  0.77426938444E+02  0.00000000000E+00 0.  1.
          1   -1    0    0  501    0  0.00000000000E+00 -0.00000000000E+00 -0.45188648564E+03  0.45188648564E+03  0.00000000000E+00 0. -1.
         25    2    1    2    0    0 -0.51508087557E+02 -0.13959041844E+03 -0.23833513625E+03  0.30755717612E+03  0.12509680815E+03 0.  0.
         23    2    1    2    0    0  0.51508087557E+02  0.13959041844E+03 -0.13612441094E+03  0.22175624796E+03  0.92235623538E+02 0.  0.
          5    1    3    3  502    0 -0.62207314990E+02 -0.48037004685E+02 -0.18484179987E+03  0.20090113797E+03  0.41800000000E+01 0.  1.
         -5    1    3    3    0  502  0.10699227433E+02 -0.91553413756E+02 -0.53493336378E+02  0.10665603815E+03  0.41800000000E+01 0.  1.
        -11    1    4    4    0    0  0.38912435052E+02  0.27962354300E+02 -0.36383494607E+01  0.48055264504E+02  0.00000000000E+00 0.  1.
         11    1    4    4    0    0  0.12595652505E+02  0.11162806414E+03 -0.13248606148E+03  0.17370098346E+03  0.00000000000E+00 0. -1.
</event>
<event>
 8    1  0.3654190E-009  0.1356809E+03  0.7561462E-02  0.1219262E+00
          2   -1    0    0  501    0  0.00000000000E+00  0.00000000000E+00  0.19618036065E+02  0.19618036065E+02  0.00000000000E+00 0. -1.
         -2   -1    0    0    0  501 -0.00000000000E+00 -0.00000000000E+00 -0.10254208517E+04  0.10254208517E+04  0.00000000000E+00 0.  1.
         25    2    1    2    0    0 -0.60747374664E+02  0.66222680529E+02 -0.51943232027E+03  0.54178664976E+03  0.12508857492E+03 0.  0.
         23    2    1    2    0    0  0.60747374664E+02 -0.66222680529E+02 -0.48637049537E+03  0.50325223801E+03  0.92902472242E+02 0.  0.
          5    1    3    3  502    0 -0.62028505059E+02  0.10031044805E+03 -0.36613744343E+03  0.38468665340E+03  0.41800000000E+01 0. -1.
         -5    1    3    3    0  502  0.12811303946E+01 -0.34087767521E+02 -0.15329487684E+03  0.15709999636E+03  0.41800000000E+01 0. -1.
        -11    1    4    4    0    0 -0.16936947573E+02 -0.27211236837E+02 -0.59134621217E+02  0.67262285344E+02  0.00000000000E+00 0. -1.
         11    1    4    4    0    0  0.77684322237E+02 -0.39011443692E+02 -0.42723587415E+03  0.43598995266E+03  0.00000000000E+00 0.  1.
</event>
<event>
 8    1  0.3654190E-009  0.1262243E+03  0.7561462E-02  0.1233168E+00
          1   -1    0    0  501    0  0.00000000000E+00  0.00000000000E+00  0.88350545489E+03  0.88350545489E+03  0.00000000000E+00 0. -1.
         -1   -1    0    0    0  501 -0.00000000000E+00 -0.00000000000E+00 -0.31867199001E+02  0.31867199001E+02  0.00000000000E+00 0.  1.
         25    2    1    2    0    0 -0.13515593890E+02  0.11921446286E+03  0.32238286679E+03  0.36602354547E+03  0.12509102127E+03 0.  0.
         23    2    1    2    0    0  0.13515593890E+02 -0.11921446286E+03  0.52925538909E+03  0.54934910842E+03  0.85313636667E+02 0.  0.
          5    1    3    3  502    0 -0.78282173314E+01  0.66543172751E+02  0.38870402767E+02  0.77573548569E+02  0.41800000000E+01 0. -1.
         -5    1    3    3    0  502 -0.56873765585E+01  0.52671290114E+02  0.28351246402E+03  0.28844999690E+03  0.41800000000E+01 0. -1.
        -11    1    4    4    0    0 -0.14453541563E+02 -0.92073274908E+02  0.46459820760E+03  0.47385428912E+03  0.00000000000E+00 0. -1.
         11    1    4    4    0    0  0.27969135453E+02 -0.27141187957E+02  0.64657181496E+02  0.75494819297E+02  0.00000000000E+00 0.  1.
</event>
<event>
 8    1  0.3654190E-009  0.1101089E+03  0.7561462E-02  0.1260368E+00
          1   -1    0    0  501    0  0.00000000000E+00  0.00000000000E+00  0.25974505247E+03  0.25974505247E+03  0.00000000000E+00 0. -1.
         -1   -1    0    0    0  501 -0.00000000000E+00 -0.00000000000E+00 -0.69861778564E+02  0.69861778564E+02  0.00000000000E+00 0.  1.
         25    2    1    2    0    0  0.37943497446E+02 -0.18833767325E+02  0.18249296565E+02  0.13332164068E+03  0.12508878150E+03 0.  0.
         23    2    1    2    0    0 -0.37943497446E+02  0.18833767325E+02  0.17163397734E+03  0.19628519036E+03  0.85294982185E+02 0.  0.
          5    1    3    3  502    0  0.58247799593E+02 -0.61368840951E+02  0.10230176517E+02  0.85329184390E+02  0.41800000000E+01 0. -1.
         -5    1    3    3    0  502 -0.20304302147E+02  0.42535073626E+02  0.80191200478E+01  0.47992456286E+02  0.41800000000E+01 0. -1.
        -11    1    4    4    0    0 -0.51971374454E+02  0.38037966651E+02  0.15322690431E+03  0.16621189751E+03  0.00000000000E+00 0. -1.
         11    1    4    4    0    0  0.14027877008E+02 -0.19204199327E+02  0.18407073031E+02  0.30073292848E+02  0.00000000000E+00 0.  1.
</event>
<event>
 8    1  0.3654190E-009  0.1406352E+03  0.7561462E-02  0.1212477E+00
          1   -1    0    0  501    0  0.00000000000E+00  0.00000000000E+00  0.68385073442E+02  0.68385073442E+02  0.00000000000E+00 0. -1.
         -1   -1    0    0    0  501 -0.00000000000E+00 -0.00000000000E+00 -0.42507978631E+03  0.42507978631E+03  0.00000000000E+00 0.  1.
         25    2    1    2    0    0 -0.56975129223E+02 -0.84079728341E+02 -0.30875797878E+03  0.34827407938E+03  0.12509108219E+03 0.  0.
         23    2    1    2    0    0  0.56975129223E+02  0.84079728341E+02 -0.47936734095E+02  0.14519078037E+03  0.92015575649E+02 0.  0.
          5    1    3    3  502    0  0.88977692396E+01  0.19295031121E+02 -0.73524423777E+01  0.22869178655E+02  0.41800000000E+01 0.  1.
         -5    1    3    3    0  502 -0.65872898462E+02 -0.10337475946E+03 -0.30140553640E+03  0.32540490073E+03  0.41800000000E+01 0.  1.
        -11    1    4    4    0    0 -0.33326125034E+01  0.76052630890E+02 -0.29162420971E+02  0.81520278264E+02  0.00000000000E+00 0. -1.
         11    1    4    4    0    0  0.60307741726E+02  0.80270974512E+01 -0.18774313124E+02  0.63670502110E+02  0.00000000000E+00 0.  1.
</event>
<event>
 8    1  0.3654190E-009  0.2610105E+03  0.7561462E-02  0.1106538E+00
         -2   -1    0    0    0  501 -0.00000000000E+00  0.00000000000E+00  0.18851322699E+03  0.18851322699E+03  0.00000000000E+00 0.  1.
          2   -1    0    0  501    0  0.00000000000E+00 -0.00000000000E+00 -0.39606729690E+03  0.39606729690E+03  0.00000000000E+00 0. -1.
         25    2    1    2    0    0  0.21031150705E+03  0.13483168976E+03 -0.83172257153E+02  0.29150040397E+03  0.12507736244E+03 0.  0.
         23    2    1    2    0    0 -0.21031150705E+03 -0.13483168976E+03 -0.12438181276E+03  0.29308011992E+03  0.89524336301E+02 0.  0.
          5    1    3    3  502    0  0.10892315388E+03  0.16724922042E+02  0.88427777145E+01  0.11063292270E+03  0.41800000000E+01 0. -1.
         -5    1    3    3    0  502  0.10138835317E+03  0.11810676771E+03 -0.92015034867E+02  0.18086748127E+03  0.41800000000E+01 0. -1.
        -11    1    4    4    0    0 -0.53003708517E+02 -0.72666518971E+01  0.34013695952E+01  0.53607524299E+02  0.00000000000E+00 0. -1.
         11    1    4    4    0    0 -0.15730779853E+03 -0.12756503786E+03 -0.12778318236E+03  0.23947259562E+03  0.00000000000E+00 0.  1.
</event>
<event>
 8    1  0.3654190E-009  0.4203094E+03  0.7561462E-02  0.1036966E+00
          2   -1    0    0  501    0  0.00000000000E+00  0.00000000000E+00  0.18983666794E+04  0.18983666794E+04  0.00000000000E+00 0. -1.
         -2   -1    0    0    0  501 -0.00000000000E+00 -0.00000000000E+00 -0.18290709812E+03  0.18290709812E+03  0.00000000000E+00 0.  1.
         25    2    1    2    0    0 -0.40837209505E+03  0.50018058612E+02  0.14257826553E+03  0.45304111928E+03  0.12509244482E+03 0.  0.
         23    2    1    2    0    0  0.40837209505E+03 -0.50018058612E+02  0.15728813158E+04  0.16282326583E+04  0.88974050959E+02 0.  0.
          5    1    3    3  502    0 -0.32498608579E+03  0.79603818490E+02  0.14439455056E+03  0.36444475920E+03  0.41800000000E+01 0. -1.
         -5    1    3    3    0  502 -0.83386009260E+02 -0.29585759878E+02 -0.18162850328E+01  0.88596360078E+02  0.41800000000E+01 0. -1.
        -11    1    4    4    0    0  0.19017739919E+03 -0.58771064426E+02  0.64579890238E+03  0.67577933048E+03  0.00000000000E+00 0. -1.
         11    1    4    4    0    0  0.21819469586E+03  0.87530058133E+01  0.92708241337E+03  0.95245332778E+03  0.00000000000E+00 0.  1.
</event>
<event>
 8    1  0.3654190E-009  0.8275640E+02  0.7561462E-02  0.1321406E+00
          2   -1    0    0  501    0  0.00000000000E+00  0.00000000000E+00  0.31642700482E+03  0.31642700482E+03  0.00000000000E+00 0. -1.
         -2   -1    0    0    0  501 -0.00000000000E+00 -0.00000000000E+00 -0.46752643844E+02  0.46752643844E+02  0.00000000000E+00 0.  1.
         25    2    1    2    0    0 -0.29904794011E+02  0.20161050460E+02  0.92316419357E+02  0.15959434606E+03  0.12508904568E+03 0.  0.
         23    2    1    2    0    0  0.29904794011E+02 -0.20161050460E+02  0.17735794162E+03  0.20358530261E+03  0.93222161109E+02 0.  0.
          5    1    3    3  502    0  0.81528819658E+01  0.25850485126E+02 -0.24349229940E+02  0.36675256840E+02  0.41800000000E+01 0.  1.
         -5    1    3    3    0  502 -0.38057675977E+02 -0.56894346661E+01  0.11666564930E+03  0.12291908922E+03  0.41800000000E+01 0.  1.
        -11    1    4    4    0    0  0.10373141716E+02  0.37286592715E+02  0.79940210765E+02  0.88816267443E+02  0.00000000000E+00 0. -1.
         11    1    4    4    0    0  0.19531652295E+02 -0.57447643175E+02  0.97417730851E+02  0.11476903516E+03  0.00000000000E+00 0.  1.
</event>
<event>
 8    1  0.3654190E-009  0.7583538E+02  0.7561462E-02  0.1341303E+00
          1   -1    0    0  501    0  0.00000000000E+00  0.00000000000E+00  0.21736496167E+03  0.21736496167E+03  0.00000000000E+00 0. -1.
         -1   -1    0    0    0  501 -0.00000000000E+00 -0.00000000000E+00 -0.61421975349E+02  0.61421975349E+02  0.00000000000E+00 0.  1.
         25    2    1    2    0    0 -0.33212604900E+02  0.81377477865E+00  0.52603899601E+02  0.13970698355E+03  0.12508849526E+03 0.  0.
         23    2    1    2    0    0  0.33212604900E+02 -0.81377477865E+00  0.10333908672E+03  0.13907995347E+03  0.86951292450E+02 0.  0.
          5    1    3    3  502    0  0.18080672484E+02  0.20508995845E+02 -0.29748372186E+02  0.40619794137E+02  0.41800000000E+01 0.  1.
         -5    1    3    3    0  502 -0.51293277384E+02 -0.19695221066E+02  0.82352271786E+02  0.99087189414E+02  0.41800000000E+01 0.  1.
        -11    1    4    4    0    0  0.12042303376E+02  0.29540739909E+02  0.28913818051E+01  0.32031741659E+02  0.00000000000E+00 0.  1.
         11    1    4    4    0    0  0.21170301524E+02 -0.30354514687E+02  0.10044770492E+03  0.10704821181E+03  0.00000000000E+00 0. -1.
</event>
<event>
 8    1  0.3654190E-009  0.1513759E+03  0.7561462E-02  0.1198792E+00
          1   -1    0    0  501    0  0.00000000000E+00  0.00000000000E+00  0.44236427123E+02  0.44236427123E+02  0.00000000000E+00 0. -1.
         -1   -1    0    0    0  501 -0.00000000000E+00 -0.00000000000E+00 -0.66444401926E+03  0.66444401926E+03  0.00000000000E+00 0.  1.
         25    2    1    2    0    0  0.88185468383E+02  0.98241775845E+02 -0.29510286930E+03  0.34664908893E+03  0.12510701031E+03 0.  0.
         23    2    1    2    0    0 -0.88185468383E+02 -0.98241775845E+02 -0.32510472283E+03  0.36203135745E+03  0.89137532030E+02 0.  0.
          5    1    3    3  502    0  0.73817908768E+02  0.87783721300E+01 -0.20787479579E+03  0.22080658187E+03  0.41800000000E+01 0.  1.
         -5    1    3    3    0  502  0.14367559615E+02  0.89463403715E+02 -0.87228073511E+02  0.12584250706E+03  0.41800000000E+01 0.  1.
        -11    1    4    4    0    0 -0.91019209255E+02 -0.86692639068E+02 -0.32668685040E+03  0.35003486733E+03  0.00000000000E+00 0.  1.
         11    1    4    4    0    0  0.28337408719E+01 -0.11549136777E+02  0.15821275685E+01  0.11996490123E+02  0.00000000000E+00 0. -1.
</event>
<event>
 8    1  0.3654190E-009  0.1258395E+03  0.7561462E-02  0.1233763E+00
          4   -1    0    0  501    0  0.00000000000E+00  0.00000000000E+00  0.55366415036E+02  0.55366415036E+02  0.00000000000E+00 0. -1.
         -4   -1    0    0    0  501 -0.00000000000E+00 -0.00000000000E+00 -0.38927442799E+03  0.38927442799E+03  0.00000000000E+00 0.  1.
         25    2    1    2    0    0 -0.90698350802E+02  0.32628842568E+02 -0.21523940387E+03  0.26695800424E+03  0.12509093830E+03 0.  0.
         23    2    1    2    0    0  0.90698350802E+02 -0.32628842568E+02 -0.11866860909E+03  0.17768283879E+03  0.90543471392E+02 0.  0.
          5    1    3    3  502    0 -0.10250268510E+03  0.62586793709E+02 -0.13693394230E+03  0.18218749725E+03  0.41800000000E+01 0.  1.
         -5    1    3    3    0  502  0.11804334296E+02 -0.29957951141E+02 -0.78305461564E+02  0.84770506991E+02  0.41800000000E+01 0.  1.
        -11    1    4    4    0    0  0.31275828049E+02 -0.23038790804E+02  0.59412208797E+01  0.39297091589E+02  0.00000000000E+00 0. -1.
         11    1    4    4    0    0  0.59422522754E+02 -0.95900517640E+01 -0.12460982997E+03  0.13838574720E+03  0.00000000000E+00 0.  1.
</event>
<event>
 8    1  0.3654190E-009  0.1359739E+03  0.7561462E-02  0.1218851E+00
         -1   -1    0    0    0  501 -0.00000000000E+00  0.00000000000E+00  0.37555199919E+03  0.37555199919E+03  0.00000000000E+00 0.  1.
          1   -1    0    0  501    0  0.00000000000E+00 -0.00000000000E+00 -0.63728799735E+02  0.63728799735E+02  0.00000000000E+00 0. -1.
         25    2    1    2    0    0  0.18146699887E+02 -0.10932841813E+03  0.15262199068E+03  0.22631639289E+03  0.12507450550E+03 0.  0.
         23    2    1    2    0    0 -0.18146699887E+02  0.10932841813E+03  0.15920120878E+03  0.21296440603E+03  0.87902261825E+02 0.  0.
          5    1    3    3  502    0  0.14065969619E+02  0.23464416911E+02  0.58227855439E+01  0.28280869750E+02  0.41800000000E+01 0. -1.
         -5    1    3    3    0  502  0.40807302678E+01 -0.13279283504E+03  0.14679920513E+03  0.19803552314E+03  0.41800000000E+01 0. -1.
        -11    1    4    4    0    0 -0.13683509644E+02  0.49486264137E+02  0.14130589778E+03  0.15034455601E+03  0.00000000000E+00 0.  1.
         11    1    4    4    0    0 -0.44631902436E+01  0.59842153993E+02  0.17895311000E+02  0.62619850027E+02  0.00000000000E+00 0. -1.
</event>
<event>
 8    1  0.3654190E-009  0.1291972E+03  0.7561462E-02  0.1228652E+00
         -1   -1    0    0    0  501 -0.00000000000E+00  0.00000000000E+00  0.28777680229E+03  0.28777680229E+03  0.00000000000E+00 0. -1.
          1   -1    0    0  501    0  0.00000000000E+00 -0.00000000000E+00 -0.72501227267E+02  0.72501227267E+02  0.00000000000E+00 0.  1.
         25    2    1    2    0    0 -0.82024168005E+02 -0.85560946876E+01  0.17424250955E+03  0.22980131555E+03  0.12508805539E+03 0.  0.
         23    2    1    2    0    0  0.82024168005E+02  0.85560946876E+01  0.41033065473E+02  0.13047671400E+03  0.92408276371E+02 0.  0.
          5    1    3    3  502    0 -0.49937820747E+02  0.56341950631E+02  0.70510075054E+02  0.10323441493E+03  0.41800000000E+01 0. -1.
         -5    1    3    3    0  502 -0.32086347258E+02 -0.64898045319E+02  0.10373243449E+03  0.12656690062E+03  0.41800000000E+01 0. -1.
        -11    1    4    4    0    0  0.64558432248E+02 -0.27684432795E+02 -0.36664069783E+01  0.70339615677E+02  0.00000000000E+00 0.  1.
         11    1    4    4    0    0  0.17465735757E+02  0.36240527482E+02  0.44699472451E+02  0.60137098326E+02  0.00000000000E+00 0. -1.
</event>
<event>
 8    1  0.3654190E-009  0.1214785E+03  0.7561462E-02  0.1240678E+00
         -1   -1    0    0    0  501 -0.00000000000E+00  0.00000000000E+00  0.32326605784E+02  0.32326605784E+02  0.00000000000E+00 0.  1.
          1   -1    0    0  501    0  0.00000000000E+00 -0.00000000000E+00 -0.59049511233E+03  0.59049511233E+03  0.00000000000E+00 0. -1.
         25    2    1    2    0    0 -0.44496190717E+02 -0.67556651470E+02 -0.36442939096E+03  0.39369970010E+03  0.12508741230E+03 0.  0.
         23    2    1    2    0    0  0.44496190717E+02  0.67556651470E+02 -0.19373911558E+03  0.22912201801E+03  0.91750978657E+02 0.  0.
          5    1    3    3  502    0  0.29384638459E+02 -0.68641619604E+02 -0.19269457015E+03  0.20669736013E+03  0.41800000000E+01 0. -1.
         -5    1    3    3    0  502 -0.73880829177E+02  0.10849681340E+01 -0.17173482081E+03  0.18700233997E+03  0.41800000000E+01 0. -1.
        -11    1    4    4    0    0  0.44778215550E+02  0.24372797393E+02 -0.28654550621E+02  0.58482519713E+02  0.00000000000E+00 0. -1.
         11    1    4    4    0    0 -0.28202483270E+00  0.43183854077E+02 -0.16508456496E+03  0.17063949830E+03  0.00000000000E+00 0.  1.
</event>
<event>
 8    1  0.3654190E-009  0.1065983E+03  0.7561462E-02  0.1267002E+00
         -1   -1    0    0    0  501 -0.00000000000E+00  0.00000000000E+00  0.57346303166E+02  0.57346303166E+02  0.00000000000E+00 0.  1.
          1   -1    0    0  501    0  0.00000000000E+00 -0.00000000000E+00 -0.58026545821E+03  0.58026545821E+03  0.00000000000E+00 0. -1.
         25    2    1    2    0    0 -0.18923950156E+02  0.70899069790E+02 -0.54984494082E+02  0.15509893613E+03  0.12509033300E+03 0.  0.
         23    2    1    2    0    0  0.18923950156E+02 -0.70899069790E+02 -0.46793466096E+03  0.48251282525E+03  0.92037957472E+02 0.  0.
          5    1    3    3  502    0 -0.41939730004E+02  0.48215308626E+02  0.24988381628E+02  0.68742625460E+02  0.41800000000E+01 0. -1.
         -5    1    3    3    0  502  0.23015779848E+02  0.22683761164E+02 -0.79972875710E+02  0.86356310666E+02  0.41800000000E+01 0. -1.
        -11    1    4    4    0    0 -0.28208348057E+02 -0.62671198023E+02 -0.30801521076E+03  0.31558954359E+03  0.00000000000E+00 0. -1.
         11    1    4    4    0    0  0.47132298213E+02 -0.82278717667E+01 -0.15991945020E+03  0.16692328166E+03  0.00000000000E+00 0.  1.
</event>
<event>
 8    1  0.3654190E-009  0.8862393E+02  0.7561462E-02  0.1306219E+00
          1   -1    0    0  501    0  0.00000000000E+00  0.00000000000E+00  0.40482145553E+02  0.40482145553E+02  0.00000000000E+00 0. -1.
         -1   -1    0    0    0  501 -0.00000000000E+00 -0.00000000000E+00 -0.48364896638E+03  0.48364896638E+03  0.00000000000E+00 0.  1.
         25    2    1    2    0    0  0.31061262700E+01  0.86737331020E+01 -0.38772125678E+03  0.40750444444E+03  0.12508883891E+03 0.  0.
         23    2    1    2    0    0 -0.31061262700E+01 -0.86737331020E+01 -0.55445564048E+02  0.11662666748E+03  0.10218946780E+03 0.  0.
          5    1    3    3  502    0 -0.59655215963E+02  0.10221397536E+01 -0.22689946301E+03  0.23465001231E+03  0.41800000000E+01 0.  1.
         -5    1    3    3    0  502  0.62761342233E+02  0.76515933484E+01 -0.16082179377E+03  0.17285443214E+03  0.41800000000E+01 0.  1.
        -11    1    4    4    0    0 -0.26111026720E+02  0.59943871184E+01 -0.77210021426E+02  0.81725796428E+02  0.00000000000E+00 0.  1.
         11    1    4    4    0    0  0.23004900450E+02 -0.14668120220E+02  0.21764457378E+02  0.34900871056E+02  0.00000000000E+00 0. -1.
</event>
<event>
 8    1  0.3654190E-009  0.9692554E+02  0.7561462E-02  0.1286897E+00
          1   -1    0    0  501    0  0.00000000000E+00  0.00000000000E+00  0.54487791210E+03  0.54487791210E+03  0.00000000000E+00 0. -1.
         -1   -1    0    0    0  501 -0.00000000000E+00 -0.00000000000E+00 -0.35067935010E+02  0.35067935010E+02  0.00000000000E+00 0.  1.
         25    2    1    2    0    0  0.23742679383E+02  0.62850833395E+01  0.10784444073E+03  0.16697461269E+03  0.12508749254E+03 0.  0.
         23    2    1    2    0    0 -0.23742679383E+02 -0.62850833395E+01  0.40196553636E+03  0.41297123442E+03  0.91464369782E+02 0.  0.
          5    1    3    3  502    0 -0.37050378395E+02  0.17900544228E+02  0.95017017338E+02  0.10362849997E+03  0.41800000000E+01 0.  1.
         -5    1    3    3    0  502  0.60793057778E+02 -0.11615460888E+02  0.12827423394E+02  0.63346112719E+02  0.41800000000E+01 0.  1.
        -11    1    4    4    0    0 -0.71476979106E+01 -0.46451370610E+02  0.14705689340E+03  0.15438442057E+03  0.00000000000E+00 0.  1.
         11    1    4    4    0    0 -0.16594981473E+02  0.40166287270E+02  0.25490864296E+03  0.25858681385E+03  0.00000000000E+00 0. -1.
</event>
<event>
 8    1  0.3654190E-009  0.1153082E+03  0.7561462E-02  0.1251044E+00
          1   -1    0    0  501    0  0.00000000000E+00  0.00000000000E+00  0.27752826619E+03  0.27752826619E+03  0.00000000000E+00 0. -1.
         -1   -1    0    0    0  501 -0.00000000000E+00 -0.00000000000E+00 -0.50416978158E+02  0.50416978158E+02  0.00000000000E+00 0.  1.
         25    2    1    2    0    0  0.33954412493E+02 -0.32389172436E+02  0.14630964958E+03  0.19813153952E+03  0.12509049833E+03 0.  0.
         23    2    1    2    0    0 -0.33954412493E+02  0.32389172436E+02  0.80801638452E+02  0.12981370483E+03  0.90115107319E+02 0.  0.
          5    1    3    3  502    0 -0.10502640149E+02 -0.71460862321E+02  0.63527632999E+02  0.96281840698E+02  0.41800000000E+01 0.  1.
         -5    1    3    3    0  502  0.44457052642E+02  0.39071689884E+02  0.82782016585E+02  0.10184969882E+03  0.41800000000E+01 0.  1.
        -11    1    4    4    0    0  0.11333965645E+02  0.49303380580E+02  0.56041992846E+02  0.75498258761E+02  0.00000000000E+00 0. -1.
         11    1    4    4    0    0 -0.45288378137E+02 -0.16914208144E+02  0.24759645606E+02  0.54315446072E+02  0.00000000000E+00 0.  1.
</event>
<event>
 8    1  0.3654190E-009  0.1742993E+03  0.7561462E-02  0.1173437E+00
          2   -1    0    0  501    0  0.00000000000E+00  0.00000000000E+00  0.17472358843E+03  0.17472358843E+03  0.00000000000E+00 0. -1.
         -2   -1    0    0    0  501 -0.00000000000E+00 -0.00000000000E+00 -0.21151191613E+03  0.21151191613E+03  0.00000000000E+00 0.  1.
         25    2    1    2    0    0 -0.14905505640E+03 -0.49090961162E+02  0.14259123099E+01  0.20069112660E+03  0.12509021849E+03 0.  0.
         23    2    1    2    0    0  0.14905505640E+03  0.49090961162E+02 -0.38214240013E+02  0.18554437796E+03  0.91318430480E+02 0.  0.
          5    1    3    3  502    0  0.10386939091E+02 -0.28596286229E+02  0.23101137850E+02  0.38428779056E+02  0.41800000000E+01 0.  1.
         -5    1    3    3    0  502 -0.15944199550E+03 -0.20494674932E+02 -0.21675225540E+02  0.16226234754E+03  0.41800000000E+01 0.  1.
        -11    1    4    4    0    0  0.84395082362E+02  0.31361801489E+02 -0.67353684514E+02  0.11243936738E+03  0.00000000000E+00 0.  1.
         11    1    4    4    0    0  0.64659974042E+02  0.17729159672E+02  0.29139444501E+02  0.73105010578E+02  0.00000000000E+00 0. -1.
</event>
<event>
 8    1  0.3654190E-009  0.1117120E+03  0.7561462E-02  0.1257432E+00
          1   -1    0    0  501    0  0.00000000000E+00  0.00000000000E+00  0.95392662490E+03  0.95392662490E+03  0.00000000000E+00 0. -1.
         -1   -1    0    0    0  501 -0.00000000000E+00 -0.00000000000E+00 -0.15540193753E+02  0.15540193753E+02  0.00000000000E+00 0.  1.
         25    2    1    2    0    0 -0.29612049140E+02  0.45548674833E+02  0.54611898782E+03  0.56289029282E+03  0.12509187688E+03 0.  0.
         23    2    1    2    0    0  0.29612049140E+02 -0.45548674833E+02  0.39226744333E+03  0.40657652584E+03  0.92082403482E+02 0.  0.
          5    1    3    3  502    0  0.40347412883E+02  0.19844142249E+01  0.31244797761E+03  0.31507628082E+03  0.41800000000E+01 0.  1.
         -5    1    3    3    0  502 -0.69959462023E+02  0.43564260608E+02  0.23367101021E+03  0.24781401200E+03  0.41800000000E+01 0.  1.
        -11    1    4    4    0    0 -0.17010126035E+02  0.15814760724E+02  0.42629713073E+02  0.48546302446E+02  0.00000000000E+00 0.  1.
         11    1    4    4    0    0  0.46622175175E+02 -0.61363435557E+02  0.34963773026E+03  0.35803022339E+03  0.00000000000E+00 0. -1.
</event>
<event>
 8    1  0.3654190E-009  0.7466766E+02  0.7561462E-02  0.1344903E+00
          3   -1    0    0  501    0  0.00000000000E+00  0.00000000000E+00  0.55220341832E+02  0.55220341832E+02  0.00000000000E+00 0. -1.
         -3   -1    0    0    0  501 -0.00000000000E+00 -0.00000000000E+00 -0.29226893941E+03  0.29226893941E+03  0.00000000000E+00 0.  1.
         25    2    1    2    0    0 -0.36612873800E+02  0.41728815731E+02 -0.83812421229E+02  0.16048007800E+03  0.12509011509E+03 0.  0.
         23    2    1    2    0    0  0.36612873800E+02 -0.41728815731E+02 -0.15323617635E+03  0.18700920324E+03  0.91702343284E+02 0.  0.
          5    1    3    3  502    0  0.25081407863E+01 -0.19870555251E+02 -0.84950362067E+02  0.87379437807E+02  0.41800000000E+01 0. -1.
         -5    1    3    3    0  502 -0.39121014587E+02  0.61599370982E+02  0.11379408380E+01  0.73100640196E+02  0.41800000000E+01 0. -1.
        -11    1    4    4    0    0  0.25980499564E+02 -0.33176452458E+02 -0.16419011470E+03  0.16951123008E+03  0.00000000000E+00 0.  1.
         11    1    4    4    0    0  0.10632374236E+02 -0.85523632731E+01  0.10953938353E+02  0.17497973165E+02  0.00000000000E+00 0. -1.
</event>
<event>
 8    1  0.3654190E-009  0.1468883E+03  0.7561462E-02  0.1204350E+00
          2   -1    0    0  501    0  0.00000000000E+00  0.00000000000E+00  0.73091096706E+03  0.73091096706E+03  0.00000000000E+00 0. -1.
         -2   -1    0    0    0  501 -0.00000000000E+00 -0.00000000000E+00 -0.41263538017E+02  0.41263538017E+02  0.00000000000E+00 0.  1.
         25    2    1    2    0    0 -0.85490179325E+02  0.91833587435E+02  0.26712168616E+03  0.32053489046E+03  0.12508653900E+03 0.  0.
         23    2    1    2    0    0  0.85490179325E+02 -0.91833587435E+02  0.42252574288E+03  0.45163961462E+03  0.98531008094E+02 0.  0.
          5    1    3    3  502    0 -0.20547786807E+02  0.93410129839E+02  0.22073781625E+03  0.24060407274E+03  0.41800000000E+01 0.  1.
         -5    1    3    3    0  502 -0.64942392518E+02 -0.15765424036E+01  0.46383869915E+02  0.79930817712E+02  0.41800000000E+01 0.  1.
        -11    1    4    4    0    0  0.23497285094E+02 -0.17096661902E+01  0.11328508445E+02  0.26141546795E+02  0.00000000000E+00 0.  1.
         11    1    4    4    0    0  0.61992894231E+02 -0.90123921245E+02  0.41119723443E+03  0.42549806782E+03  0.00000000000E+00 0. -1.
</event>
<event>
 8    1  0.3654190E-009  0.1303962E+03  0.7561462E-02  0.1226869E+00
         -2   -1    0    0    0  501 -0.00000000000E+00  0.00000000000E+00  0.46742411327E+03  0.46742411327E+03  0.00000000000E+00 0.  1.
          2   -1    0    0  501    0  0.00000000000E+00 -0.00000000000E+00 -0.57351955515E+02  0.57351955515E+02  0.00000000000E+00 0. -1.
         25    2    1    2    0    0 -0.86746924161E+02  0.63438668700E+01  0.36139922949E+03  0.39220156306E+03  0.12508952591E+03 0.  0.
         23    2    1    2    0    0  0.86746924161E+02 -0.63438668700E+01  0.48672928265E+02  0.13257450573E+03  0.87416658162E+02 0.  0.
          5    1    3    3  502    0 -0.36078359114E+02 -0.57716742510E+02  0.19922269373E+03  0.21057071131E+03  0.41800000000E+01 0. -1.
         -5    1    3    3    0  502 -0.50668565047E+02  0.64060609380E+02  0.16217653576E+03  0.18163085175E+03  0.41800000000E+01 0. -1.
        -11    1    4    4    0    0  0.54529154809E+01 -0.26503923153E+02 -0.11543559146E+02  0.29418463378E+02  0.00000000000E+00 0. -1.
         11    1    4    4    0    0  0.81294008680E+02  0.20160056283E+02  0.60216487411E+02  0.10315604235E+03  0.00000000000E+00 0.  1.
</event>
<event>
 8    1  0.3654190E-009  0.1040805E+03  0.7561462E-02  0.1271942E+00
          1   -1    0    0  501    0  0.00000000000E+00  0.00000000000E+00  0.16682106883E+03  0.16682106883E+03  0.00000000000E+00 0. -1.
         -1   -1    0    0    0  501 -0.00000000000E+00 -0.00000000000E+00 -0.93658170439E+02  0.93658170439E+02  0.00000000000E+00 0.  1.
         25    2    1    2    0    0 -0.75204770213E+01  0.55137846284E+02  0.42324802324E+02  0.14331749499E+03  0.12510705740E+03 0.  0.
         23    2    1    2    0    0  0.75204770213E+01 -0.55137846284E+02  0.30838096070E+02  0.11716174428E+03  0.98382653382E+02 0.  0.
          5    1    3    3  502    0  0.38464536888E+02  0.20755326416E+02 -0.28273353441E+02  0.52222208757E+02  0.41800000000E+01 0.  1.
         -5    1    3    3    0  502 -0.45985013909E+02  0.34382519868E+02  0.70598155765E+02  0.91095286234E+02  0.41800000000E+01 0. -1.
        -11    1    4    4    0    0  0.24901369265E+02 -0.75741177997E+02  0.39327146501E+02  0.88901229955E+02  0.00000000000E+00 0. -1.
         11    1    4    4    0    0 -0.17380892244E+02  0.20603331712E+02 -0.84890504307E+01  0.28260514327E+02  0.00000000000E+00 0.  1.
</event>
<event>
 8    1  0.3654190E-009  0.1489168E+03  0.7561462E-02  0.1201810E+00
         -2   -1    0    0    0  501 -0.00000000000E+00  0.00000000000E+00  0.40510446699E+02  0.40510446699E+02  0.00000000000E+00 0.  1.
          2   -1    0    0  501    0  0.00000000000E+00 -0.00000000000E+00 -0.14600334372E+04  0.14600334372E+04  0.00000000000E+00 0. -1.
         25    2    1    2    0    0 -0.46510669022E+02  0.12641881015E+03 -0.12595977807E+04  0.12729411022E+04  0.12509005808E+03 0.  0.
         23    2    1    2    0    0  0.46510669022E+02 -0.12641881015E+03 -0.15992520975E+03  0.22760278165E+03  0.89899919955E+02 0.  0.
          5    1    3    3  502    0 -0.30605089897E+02  0.12355978008E+03 -0.12426268647E+04  0.12491367772E+04  0.41800000000E+01 0.  1.
         -5    1    3    3    0  502 -0.15905579126E+02  0.28590300732E+01 -0.16970915972E+02  0.23804325011E+02  0.41800000000E+01 0.  1.
        -11    1    4    4    0    0  0.63518715461E+02 -0.68513844410E+02 -0.60537141676E+02  0.11132618565E+03  0.00000000000E+00 0.  1.
         11    1    4    4    0    0 -0.17008046439E+02 -0.57904965740E+02 -0.99388068072E+02  0.11627659599E+03  0.00000000000E+00 0. -1.
</event>
<event>
 8    1  0.3654190E-009  0.1493823E+03  0.7561462E-02  0.1201234E+00
          4   -1    0    0  501    0  0.00000000000E+00  0.00000000000E+00  0.78316458405E+03  0.78316458405E+03  0.00000000000E+00 0. -1.
         -4   -1    0    0    0  501 -0.00000000000E+00 -0.00000000000E+00 -0.46133364475E+02  0.46133364475E+02  0.00000000000E+00 0.  1.
         25    2    1    2    0    0  0.22837924019E+02  0.14685862461E+03  0.48394544364E+03  0.52147854689E+03  0.12509059135E+03 0.  0.
         23    2    1    2    0    0 -0.22837924019E+02 -0.14685862461E+03  0.25308577593E+03  0.30781940164E+03  0.92797347208E+02 0.  0.
          5    1    3    3  502    0 -0.50757620030E+00  0.71713907111E+01 -0.67663983803E+01  0.10721148510E+02  0.41800000000E+01 0. -1.
         -5    1    3    3    0  502  0.23345500219E+02  0.13968723390E+03  0.49071184202E+03  0.51075739838E+03  0.41800000000E+01 0. -1.
        -11    1    4    4    0    0 -0.19537160480E+02 -0.10714687609E+03  0.94157259753E+02  0.14397132791E+03  0.00000000000E+00 0.  1.
         11    1    4    4    0    0 -0.33007635388E+01 -0.39711748526E+02  0.15892851618E+03  0.16384807373E+03  0.00000000000E+00 0. -1.
</event>
<event>
 8    1  0.3654190E-009  0.1595036E+03  0.7561462E-02  0.1189258E+00
          2   -1    0    0  501    0  0.00000000000E+00  0.00000000000E+00  0.21847130967E+03  0.21847130967E+03  0.00000000000E+00 0. -1.
         -2   -1    0    0    0  501 -0.00000000000E+00 -0.00000000000E+00 -0.12443655261E+03  0.12443655261E+03  0.00000000000E+00 0.  1.
         25    2    1    2    0    0  0.12183568669E+03 -0.14826660811E+02  0.70436853371E+02  0.18886261468E+03  0.12507586693E+03 0.  0.
         23    2    1    2    0    0 -0.12183568669E+03  0.14826660811E+02  0.23597903689E+02  0.15404524760E+03  0.90051723066E+02 0.  0.
          5    1    3    3  502    0  0.49104613356E+02  0.50018997579E+02  0.56937778500E+02  0.90402135993E+02  0.41800000000E+01 0.  1.
         -5    1    3    3    0  502  0.72731073334E+02 -0.64845658390E+02  0.13499074872E+02  0.98460478685E+02  0.41800000000E+01 0.  1.
        -11    1    4    4    0    0 -0.36668143378E+02 -0.36567153581E+02 -0.11395250097E+00  0.51785349714E+02  0.00000000000E+00 0.  1.
         11    1    4    4    0    0 -0.85167543311E+02  0.51393814392E+02  0.23711856190E+02  0.10225989788E+03  0.00000000000E+00 0. -1.
</event>
<event>
 8    1  0.3654190E-009  0.1915978E+03  0.7561462E-02  0.1157028E+00
         -2   -1    0    0    0  501 -0.00000000000E+00  0.00000000000E+00  0.47849309995E+03  0.47849309995E+03  0.00000000000E+00 0.  1.
          2   -1    0    0  501    0  0.00000000000E+00 -0.00000000000E+00 -0.24080742685E+03  0.24080742685E+03  0.00000000000E+00 0. -1.
         25    2    1    2    0    0 -0.12754022086E+03 -0.12222609007E+03  0.40505628187E+03  0.45926457405E+03  0.12509049707E+03 0.  0.
         23    2    1    2    0    0  0.12754022086E+03  0.12222609007E+03 -0.16737060877E+03  0.26003595276E+03  0.91651792211E+02 0.  0.
          5    1    3    3  502    0 -0.99948196738E+02 -0.58401942775E+02  0.12392918092E+03  0.16963591375E+03  0.41800000000E+01 0.  1.
         -5    1    3    3    0  502 -0.27592024126E+02 -0.63824147292E+02  0.28112710096E+03  0.28962866030E+03  0.41800000000E+01 0.  1.
        -11    1    4    4    0    0  0.84110869260E+02  0.12874525521E+03 -0.11716071188E+03  0.19333031701E+03  0.00000000000E+00 0.  1.
         11    1    4    4    0    0  0.43429351604E+02 -0.65191651424E+01 -0.50209896891E+02  0.66705635749E+02  0.00000000000E+00 0. -1.
</event>
<event>
 8    1  0.3654190E-009  0.9283348E+02  0.7561462E-02  0.1296132E+00
         -3   -1    0    0    0  501 -0.00000000000E+00  0.00000000000E+00  0.12486198186E+03  0.12486198186E+03  0.00000000000E+00 0.  1.
          3   -1    0    0  501    0  0.00000000000E+00 -0.00000000000E+00 -0.10870901817E+03  0.10870901817E+03  0.00000000000E+00 0. -1.
         25    2    1    2    0    0  0.37057369027E+02  0.13348960619E+02  0.22427180012E+02  0.13304812360E+03  0.12508949373E+03 0.  0.
         23    2    1    2    0    0 -0.37057369027E+02 -0.13348960619E+02 -0.62742163170E+01  0.10052287642E+03  0.92271553283E+02 0.  0.
          5    1    3    3  502    0  0.68956834962E+02  0.10674565526E+02  0.53664069786E+02  0.88126592031E+02  0.41800000000E+01 0.  1.
         -5    1    3    3    0  502 -0.31899465935E+02  0.26743950938E+01 -0.31236889773E+02  0.44921531572E+02  0.41800000000E+01 0.  1.
        -11    1    4    4    0    0 -0.45020469629E+02  0.19949993047E+02 -0.31091314132E+02  0.58236712842E+02  0.00000000000E+00 0. -1.
         11    1    4    4    0    0  0.79631006024E+01 -0.33298953666E+02  0.24817097815E+02  0.42286163582E+02  0.00000000000E+00 0.  1.
</event>
<event>
 8    1  0.3654190E-009  0.1162430E+03  0.7561462E-02  0.1249427E+00
         -1   -1    0    0    0  501 -0.00000000000E+00  0.00000000000E+00  0.42135925656E+02  0.42135925656E+02  0.00000000000E+00 0.  1.
          1   -1    0    0  501    0  0.00000000000E+00 -0.00000000000E+00 -0.68095261427E+03  0.68095261427E+03  0.00000000000E+00 0. -1.
         25    2    1    2    0    0 -0.36857313613E+02 -0.50345770791E+02 -0.58740271168E+03  0.60380836683E+03  0.12509772167E+03 0.  0.
         23    2    1    2    0    0  0.36857313613E+02  0.50345770791E+02 -0.51413976935E+02  0.11928017309E+03  0.87699512344E+02 0.  0.
          5    1    3    3  502    0 -0.43277640676E+02 -0.89677617297E+02 -0.41071826173E+03  0.42263695075E+03  0.41800000000E+01 0. -1.
         -5    1    3    3    0  502  0.64203270637E+01  0.39331846506E+02 -0.17668444995E+03  0.18117141608E+03  0.41800000000E+01 0. -1.
        -11    1    4    4    0    0  0.38348795050E+02  0.66373821613E+02 -0.63183486744E+02  0.99339152777E+02  0.00000000000E+00 0. -1.
         11    1    4    4    0    0 -0.14914814378E+01 -0.16028050822E+02  0.11769509809E+02  0.19941020315E+02  0.00000000000E+00 0.  1.
</event>
<event>
 8    1  0.3654190E-009  0.1238256E+03  0.7561462E-02  0.1236916E+00
          2   -1    0    0  501    0  0.00000000000E+00  0.00000000000E+00  0.35858714801E+03  0.35858714801E+03  0.00000000000E+00 0. -1.
         -2   -1    0    0    0  501 -0.00000000000E+00 -0.00000000000E+00 -0.59610829400E+02  0.59610829400E+02  0.00000000000E+00 0.  1.
         25    2    1    2    0    0  0.64866841841E+02  0.39593262041E+02  0.25086261121E+03  0.29043888095E+03  0.12508940921E+03 0.  0.
         23    2    1    2    0    0 -0.64866841841E+02 -0.39593262041E+02  0.48113707394E+02  0.12775909645E+03  0.90731054869E+02 0.  0.
          5    1    3    3  502    0 -0.11986834163E+02 -0.29711232769E+02  0.11587762852E+03  0.12029770878E+03  0.41800000000E+01 0. -1.
         -5    1    3    3    0  502  0.76853676004E+02  0.69304494811E+02  0.13498498269E+03  0.17014117217E+03  0.41800000000E+01 0. -1.
        -11    1    4    4    0    0  0.18706861698E+02 -0.16801287803E+02 -0.56956893360E+01  0.25781210667E+02  0.00000000000E+00 0.  1.
         11    1    4    4    0    0 -0.83573703539E+02 -0.22791974238E+02  0.53809396730E+02  0.10197788579E+03  0.00000000000E+00 0. -1.
</event>
<event>
 8    1  0.3654190E-009  0.1308295E+03  0.7561462E-02  0.1226230E+00
         -3   -1    0    0    0  501 -0.00000000000E+00  0.00000000000E+00  0.43983271711E+02  0.43983271711E+02  0.00000000000E+00 0.  1.
          3   -1    0    0  501    0  0.00000000000E+00 -0.00000000000E+00 -0.50095542982E+03  0.50095542982E+03  0.00000000000E+00 0. -1.
         25    2    1    2    0    0 -0.92993121223E+02  0.10906495519E+02 -0.32146356228E+03  0.35742511995E+03  0.12508885745E+03 0.  0.
         23    2    1    2    0    0  0.92993121223E+02 -0.10906495519E+02 -0.13550859583E+03  0.18751358159E+03  0.89621936462E+02 0.  0.
          5    1    3    3  502    0 -0.29799515293E+02 -0.55651107033E+02 -0.15241643286E+03  0.16502514424E+03  0.41800000000E+01 0.  1.
         -5    1    3    3    0  502 -0.63193605930E+02  0.66557602552E+02 -0.16904712942E+03  0.19239997571E+03  0.41800000000E+01 0.  1.
        -11    1    4    4    0    0  0.48455117984E+02 -0.31142409932E+02 -0.12477781124E+03  0.13743089293E+03  0.00000000000E+00 0. -1.
         11    1    4    4    0    0  0.44538003239E+02  0.20235914413E+02 -0.10730784595E+02  0.50082688652E+02  0.00000000000E+00 0.  1.
</event>
<event>
 8    1  0.3654190E-009  0.1284874E+03  0.7561462E-02  0.1229718E+00
         -2   -1    0    0    0  501 -0.00000000000E+00  0.00000000000E+00  0.81455809950E+02  0.81455809950E+02  0.00000000000E+00 0.  1.
          2   -1    0    0  501    0  0.00000000000E+00 -0.00000000000E+00 -0.29464263590E+03  0.29464263590E+03  0.00000000000E+00 0. -1.
         25    2    1    2    0    0 -0.46802465047E+02 -0.79751303180E+02 -0.48541529496E+02  0.16295603769E+03  0.12509056335E+03 0.  0.
         23    2    1    2    0    0  0.46802465047E+02  0.79751303180E+02 -0.16464529646E+03  0.21314240816E+03  0.98847718330E+02 0.  0.
          5    1    3    3  502    0 -0.65270912790E+02 -0.10517717371E+03 -0.38376879655E+02  0.12966413235E+03  0.41800000000E+01 0.  1.
         -5    1    3    3    0  502  0.18468447742E+02  0.25425870535E+02 -0.10164649841E+02  0.33291905335E+02  0.41800000000E+01 0.  1.
        -11    1    4    4    0    0  0.43089838061E+02  0.32376552799E+02 -0.14727783862E+02  0.55873812585E+02  0.00000000000E+00 0.  1.
         11    1    4    4    0    0  0.37126269864E+01  0.47374750380E+02 -0.14991751259E+03  0.15726859558E+03  0.00000000000E+00 0. -1.
</event>
<event>
 8    1  0.3654190E-009  0.1630882E+03  0.7561462E-02  0.1185254E+00
         -1   -1    0    0    0  501 -0.00000000000E+00  0.00000000000E+00  0.53225446320E+02  0.53225446320E+02  0.00000000000E+00 0.  1.
          1   -1    0    0  501    0  0.00000000000E+00 -0.00000000000E+00 -0.54322588369E+03  0.54322588369E+03  0.00000000000E+00 0. -1.
         25    2    1    2    0    0  0.12358294578E+03  0.11464165111E+02 -0.33274645167E+03  0.37652628562E+03  0.12509065149E+03 0.  0.
         23    2    1    2    0    0 -0.12358294578E+03 -0.11464165111E+02 -0.15725398570E+03  0.21992504439E+03  0.90741597745E+02 0.  0.
          5    1    3    3  502    0  0.28425312068E+02  0.61224700059E+02 -0.10835788740E+03  0.12773161874E+03  0.41800000000E+01 0.  1.
         -5    1    3    3    0  502  0.95157633717E+02 -0.49760534947E+02 -0.22438856427E+03  0.24879466688E+03  0.41800000000E+01 0.  1.
        -11    1    4    4    0    0 -0.47256172611E+02  0.37561642373E+02 -0.43387494598E+02  0.74340416430E+02  0.00000000000E+00 0.  1.
         11    1    4    4    0    0 -0.76326773174E+02 -0.49025807484E+02 -0.11386649110E+03  0.14558462796E+03  0.00000000000E+00 0. -1.
</event>
<event>
 8    1  0.3654190E-009  0.1185588E+03  0.7561462E-02  0.1245494E+00
          2   -1    0    0  501    0  0.00000000000E+00  0.00000000000E+00  0.13398596018E+04  0.13398596018E+04  0.00000000000E+00 0. -1.
         -2   -1    0    0    0  501 -0.00000000000E+00 -0.00000000000E+00 -0.15052705483E+02  0.15052705483E+02  0.00000000000E+00 0.  1.
         25    2    1    2    0    0  0.21128848133E+02 -0.87058267704E+02  0.82750096732E+03  0.84168350700E+03  0.12509078635E+03 0.  0.
         23    2    1    2    0    0 -0.21128848133E+02  0.87058267704E+02  0.49730592898E+03  0.51322880027E+03  0.89805591311E+02 0.  0.
          5    1    3    3  502    0 -0.17416839477E+02  0.95092595732E+00  0.14638829984E+02  0.23152069041E+02  0.41800000000E+01 0.  1.
         -5    1    3    3    0  502  0.38545687610E+02 -0.88009193662E+02  0.81286213734E+03  0.81853143796E+03  0.41800000000E+01 0.  1.
        -11    1    4    4    0    0 -0.53751702402E+02  0.47472900120E+02  0.22563013867E+03  0.23675278506E+03  0.00000000000E+00 0.  1.
         11    1    4    4    0    0  0.32622854269E+02  0.39585367584E+02  0.27167579031E+03  0.27647601521E+03  0.00000000000E+00 0. -1.
</event>
<event>
 8    1  0.3654190E-009  0.2334192E+03  0.7561462E-02  0.1124256E+00
          1   -1    0    0  501    0  0.00000000000E+00  0.00000000000E+00  0.33079726063E+03  0.33079726063E+03  0.00000000000E+00 0. -1.
         -1   -1    0    0    0  501 -0.00000000000E+00 -0.00000000000E+00 -0.18801049677E+03  0.18801049677E+03  0.00000000000E+00 0.  1.
         25    2    1    2    0    0 -0.20526389746E+02  0.22385398426E+03  0.56482530417E+02  0.26338105544E+03  0.12508942872E+03 0.  0.
         23    2    1    2    0    0  0.20526389746E+02 -0.22385398426E+03  0.86304233446E+02  0.25542670196E+03  0.85219953165E+02 0.  0.
          5    1    3    3  502    0 -0.17629022186E+02  0.21940042357E+03  0.14246814937E+02  0.22060773427E+03  0.41800000000E+01 0. -1.
         -5    1    3    3    0  502 -0.28973675596E+01  0.44535606949E+01  0.42235715480E+02  0.42773321168E+02  0.41800000000E+01 0. -1.
        -11    1    4    4    0    0 -0.23661560189E+02 -0.16309754191E+03  0.66651933927E+02  0.17777277042E+03  0.00000000000E+00 0.  1.
         11    1    4    4    0    0  0.44187949935E+02 -0.60756442353E+02  0.19652299519E+02  0.77653931537E+02  0.00000000000E+00 0. -1.
</event>
<event>
 8    1  0.3654190E-009  0.1821540E+03  0.7561462E-02  0.1165735E+00
         -2   -1    0    0    0  501 -0.00000000000E+00  0.00000000000E+00  0.13607077248E+03  0.13607077248E+03  0.00000000000E+00 0.  1.
          2   -1    0    0  501    0  0.00000000000E+00 -0.00000000000E+00 -0.40606640725E+03  0.40606640725E+03  0.00000000000E+00 0. -1.
         25    2    1    2    0    0  0.12629897343E+03 -0.91633631920E+02 -0.29966948491E+03  0.36027372473E+03  0.12508878191E+03 0.  0.
         23    2    1    2    0    0 -0.12629897343E+03  0.91633631920E+02  0.29673850144E+02  0.18186345500E+03  0.88575536652E+02 0.  0.
          5    1    3    3  502    0  0.14948502638E+03 -0.93357995872E+02 -0.26732509196E+03  0.32022127615E+03  0.41800000000E+01 0.  1.
         -5    1    3    3    0  502 -0.23186052953E+02  0.17243639524E+01 -0.32344392945E+02  0.40052448584E+02  0.41800000000E+01 0.  1.
        -11    1    4    4    0    0 -0.18814788272E+01  0.21475435135E+02  0.32500622367E+02  0.39000317064E+02  0.00000000000E+00 0.  1.
         11    1    4    4    0    0 -0.12441749460E+03  0.70158196785E+02 -0.28267722236E+01  0.14286313793E+03  0.00000000000E+00 0. -1.
</event>
<event>
 8    1  0.3654190E-009  0.8256557E+02  0.7561462E-02  0.1321924E+00
          1   -1    0    0  501    0  0.00000000000E+00  0.00000000000E+00  0.76544689131E+02  0.76544689131E+02  0.00000000000E+00 0. -1.
         -1   -1    0    0    0  501 -0.00000000000E+00 -0.00000000000E+00 -0.15990580852E+03  0.15990580852E+03  0.00000000000E+00 0.  1.
         25    2    1    2    0    0 -0.58987580266E+01  0.97093008137E+01 -0.69061146053E+02  0.14335073011E+03  0.12510365327E+03 0.  0.
         23    2    1    2    0    0  0.58987580266E+01 -0.97093008137E+01 -0.14299973334E+02  0.93099767538E+02  0.91290807915E+02 0.  0.
          5    1    3    3  502    0 -0.50660873963E+02 -0.29054472581E+02 -0.96030170280E+01  0.59332763830E+02  0.41800000000E+01 0. -1.
         -5    1    3    3    0  502  0.44762115937E+02  0.38763773395E+02 -0.59458129025E+02  0.84017966282E+02  0.41800000000E+01 0. -1.
        -11    1    4    4    0    0  0.15953516176E+00 -0.28025093687E+02 -0.47267796962E+02  0.54951578296E+02  0.00000000000E+00 0.  1.
         11    1    4    4    0    0  0.57392228649E+01  0.18315792873E+02  0.32967823628E+02  0.38148189242E+02  0.00000000000E+00 0. -1.
</event>
<event>
 8    1  0.3654190E-009  0.6218507E+02  0.7561462E-02  0.1388884E+00
         -2   -1    0    0    0  501 -0.00000000000E+00  0.00000000000E+00  0.54617752249E+02  0.54617752249E+02  0.00000000000E+00 0.  1.
          2   -1    0    0  501    0  0.00000000000E+00 -0.00000000000E+00 -0.22119496233E+03  0.22119496233E+03  0.00000000000E+00 0. -1.
         25    2    1    2    0    0  0.24851004383E+02  0.15697560048E+01 -0.63468546865E+02  0.14246334665E+03  0.12509001617E+03 0.  0.
         23    2    1    2    0    0 -0.24851004383E+02 -0.15697560048E+01 -0.10310866322E+03  0.13334936793E+03  0.80812257387E+02 0.  0.
          5    1    3    3  502    0  0.44105753531E+02 -0.13059504451E+02 -0.93136987621E+02  0.10396075709E+03  0.41800000000E+01 0. -1.
         -5    1    3    3    0  502 -0.19254749148E+02  0.14629260456E+02  0.29668440757E+02  0.38502589564E+02  0.41800000000E+01 0. -1.
        -11    1    4    4    0    0  0.52877459665E+01 -0.18384329452E+02  0.50773060849E+01  0.19791989892E+02  0.00000000000E+00 0.  1.
         11    1    4    4    0    0 -0.30138750350E+02  0.16814573447E+02 -0.10818596931E+03  0.11355737804E+03  0.00000000000E+00 0. -1.
</event>
<event>
 8    1  0.3654190E-009  0.9830685E+02  0.7561462E-02  0.1283897E+00
         -2   -1    0    0    0  501 -0.00000000000E+00  0.00000000000E+00  0.80088610353E+01  0.80088610353E+01  0.00000000000E+00 0.  1.
          2   -1    0    0  501    0  0.00000000000E+00 -0.00000000000E+00 -0.20542529396E+04  0.20542529396E+04  0.00000000000E+00 0. -1.
         25    2    1    2    0    0  0.15052683724E+02 -0.15440104819E+02 -0.16396807649E+04  0.16445864659E+04  0.12508658220E+03 0.  0.
         23    2    1    2    0    0 -0.15052683724E+02  0.15440104819E+02 -0.40656331366E+03  0.41767533469E+03  0.93241498650E+02 0.  0.
          5    1    3    3  502    0  0.34378039671E+02  0.34681629888E+02 -0.12755142187E+04  0.12764555063E+04  0.41800000000E+01 0.  1.
         -5    1    3    3    0  502 -0.19325355947E+02 -0.50121734707E+02 -0.36416654618E+03  0.36813095962E+03  0.41800000000E+01 0.  1.
        -11    1    4    4    0    0  0.10778079944E+02  0.49677261224E+02 -0.26193353044E+03  0.26682048583E+03  0.00000000000E+00 0. -1.
         11    1    4    4    0    0 -0.25830763668E+02 -0.34237156405E+02 -0.14462978323E+03  0.15085484887E+03  0.00000000000E+00 0.  1.
</event>
<event>
 8    1  0.3654190E-009  0.1560750E+03  0.7561462E-02  0.1193201E+00
          1   -1    0    0  501    0  0.00000000000E+00  0.00000000000E+00  0.64215242549E+03  0.64215242549E+03  0.00000000000E+00 0. -1.
         -1   -1    0    0    0  501 -0.00000000000E+00 -0.00000000000E+00 -0.55690259051E+02  0.55690259051E+02  0.00000000000E+00 0.  1.
         25    2    1    2    0    0 -0.13865709307E+03  0.12632580730E+02  0.18376899633E+03  0.26231010480E+03  0.12510066152E+03 0.  0.
         23    2    1    2    0    0  0.13865709307E+03 -0.12632580730E+02  0.40269317011E+03  0.43553257974E+03  0.90230079303E+02 0.  0.
          5    1    3    3  502    0 -0.41597723789E+02  0.24532682437E+02  0.15179114342E+03  0.15934317291E+03  0.41800000000E+01 0.  1.
         -5    1    3    3    0  502 -0.97059369281E+02 -0.11900101707E+02  0.31977852912E+02  0.10296693189E+03  0.41800000000E+01 0.  1.
        -11    1    4    4    0    0  0.14736895097E+02  0.31080014463E+02  0.77230096238E+02  0.84543664110E+02  0.00000000000E+00 0.  1.
         11    1    4    4    0    0  0.12392019797E+03 -0.43712595193E+02  0.32546307387E+03  0.35098891563E+03  0.00000000000E+00 0. -1.
</event>
<event>
 8    1  0.3654190E-009  0.2198432E+03  0.7561462E-02  0.1134000E+00
         -1   -1    0    0    0  501 -0.00000000000E+00  0.00000000000E+00  0.33197337270E+02  0.33197337270E+02  0.00000000000E+00 0.  1.
          1   -1    0    0  501    0  0.00000000000E+00 -0.00000000000E+00 -0.16833451431E+04  0.16833451431E+04  0.00000000000E+00 0. -1.
         25    2    1    2    0    0  0.17275041074E+03  0.95337387872E+02 -0.11091936812E+04  0.11335300137E+04  0.12509095753E+03 0.  0.
         23    2    1    2    0    0 -0.17275041074E+03 -0.95337387872E+02 -0.54095412462E+03  0.58301246663E+03  0.91324965774E+02 0.  0.
          5    1    3    3  502    0  0.23120882067E+02  0.79489858621E+02 -0.41711673584E+03  0.42527292005E+03  0.41800000000E+01 0. -1.
         -5    1    3    3    0  502  0.14962952868E+03  0.15847529251E+02 -0.69207694535E+03  0.70825709366E+03  0.41800000000E+01 0. -1.
        -11    1    4    4    0    0 -0.32824294226E+02 -0.48796339498E+02 -0.24998662404E+03  0.25681088224E+03  0.00000000000E+00 0. -1.
         11    1    4    4    0    0 -0.13992611652E+03 -0.46541048374E+02 -0.29096750058E+03  0.32620158439E+03  0.00000000000E+00 0.  1.
</event>
<event>
 8    1  0.3654190E-009  0.1185713E+03  0.7561462E-02  0.1245473E+00
         -1   -1    0    0    0  501 -0.00000000000E+00  0.00000000000E+00  0.79299098090E+02  0.79299098090E+02  0.00000000000E+00 0.  1.
          1   -1    0    0  501    0  0.00000000000E+00 -0.00000000000E+00 -0.19669920234E+03  0.19669920234E+03  0.00000000000E+00 0. -1.
         25    2    1    2    0    0 -0.58389470057E+02 -0.20804747331E+02 -0.50866765642E+02  0.14857864496E+03  0.12508404441E+03 0.  0.
         23    2    1    2    0    0  0.58389470057E+02  0.20804747331E+02 -0.66533338604E+02  0.12741965546E+03  0.89257580785E+02 0.  0.
          5    1    3    3  502    0  0.15923176273E+02 -0.53653932021E+02 -0.33593039372E+02  0.65408383699E+02  0.41800000000E+01 0.  1.
         -5    1    3    3    0  502 -0.74312646330E+02  0.32849184690E+02 -0.17273726270E+02  0.83170261263E+02  0.41800000000E+01 0.  1.
        -11    1    4    4    0    0 -0.17181963431E+02 -0.77866430089E+01  0.49888850642E+01  0.19512576736E+02  0.00000000000E+00 0.  1.
         11    1    4    4    0    0  0.75571433488E+02  0.28591390340E+02 -0.71522223669E+02  0.10790707873E+03  0.00000000000E+00 0. -1.
</event>
<event>
 8    1  0.3654190E-009  0.8527347E+02  0.7561462E-02  0.1314719E+00
         -1   -1    0    0    0  501 -0.00000000000E+00  0.00000000000E+00  0.67126859551E+03  0.67126859551E+03  0.00000000000E+00 0.  1.
          1   -1    0    0  501    0  0.00000000000E+00 -0.00000000000E+00 -0.22646359527E+02  0.22646359527E+02  0.00000000000E+00 0. -1.
         25    2    1    2    0    0 -0.52442617105E+02  0.12348375805E+02  0.33585472595E+03  0.36242001181E+03  0.12508859877E+03 0.  0.
         23    2    1    2    0    0  0.52442617105E+02 -0.12348375805E+02  0.31276751004E+03  0.33149494323E+03  0.95721844837E+02 0.  0.
          5    1    3    3  502    0 -0.62890303612E+02  0.40384063462E+01  0.34153234952E+03  0.34732307321E+03  0.41800000000E+01 0. -1.
         -5    1    3    3    0  502  0.10447686507E+02  0.83099694591E+01 -0.56776235698E+01  0.15096938602E+02  0.41800000000E+01 0. -1.
        -11    1    4    4    0    0  0.20949008495E+02  0.32458791107E+02  0.22313385307E+03  0.22645341786E+03  0.00000000000E+00 0.  1.
         11    1    4    4    0    0  0.31493608610E+02 -0.44807166912E+02  0.89633656972E+02  0.10504152537E+03  0.00000000000E+00 0. -1.
</event>
<event>
 8    1  0.3654190E-009  0.9237689E+02  0.7561462E-02  0.1297196E+00
          2   -1    0    0  501    0  0.00000000000E+00  0.00000000000E+00  0.10094698970E+03  0.10094698970E+03  0.00000000000E+00 0. -1.
         -2   -1    0    0    0  501 -0.00000000000E+00 -0.00000000000E+00 -0.12323344013E+03  0.12323344013E+03  0.00000000000E+00 0.  1.
         25    2    1    2    0    0 -0.12600053379E+02  0.24088568458E+02 -0.96661405831E+01  0.12837626923E+03  0.12509201315E+03 0.  0.
         23    2    1    2    0    0  0.12600053379E+02 -0.24088568458E+02 -0.12620309845E+02  0.95804160599E+02  0.90995299285E+02 0.  0.
          5    1    3    3  502    0 -0.50120547402E+02 -0.15246741786E+02  0.30402626200E+02  0.60715109214E+02  0.41800000000E+01 0.  1.
         -5    1    3    3    0  502  0.37520494023E+02  0.39335310244E+02 -0.40068766783E+02  0.67661160020E+02  0.41800000000E+01 0.  1.
        -11    1    4    4    0    0 -0.24112570561E+02  0.11351134000E+02 -0.31621051980E+02  0.41354023147E+02  0.00000000000E+00 0.  1.
         11    1    4    4    0    0  0.36712623940E+02 -0.35439702458E+02  0.19000742136E+02  0.54450137452E+02  0.00000000000E+00 0. -1.
</event>
<event>
 8    1  0.3654190E-009  0.1378353E+03  0.7561462E-02  0.1216272E+00
         -2   -1    0    0    0  501 -0.00000000000E+00  0.00000000000E+00  0.36238468660E+03  0.36238468660E+03  0.00000000000E+00 0.  1.
          2   -1    0    0  501    0  0.00000000000E+00 -0.00000000000E+00 -0.54367887534E+02  0.54367887534E+02  0.00000000000E+00 0. -1.
         25    2    1    2    0    0  0.32284548411E+02 -0.84964519520E+02  0.18486360409E+03  0.24101109262E+03  0.12510209034E+03 0.  0.
         23    2    1    2    0    0 -0.32284548411E+02  0.84964519520E+02  0.12315319498E+03  0.17574148151E+03  0.86354485965E+02 0.  0.
          5    1    3    3  502    0  0.22309741380E+02  0.29608306508E+02  0.64299701927E+02  0.74339090946E+02  0.41800000000E+01 0.  1.
         -5    1    3    3    0  502  0.99748070310E+01 -0.11457282603E+03  0.12056390216E+03  0.16667200168E+03  0.41800000000E+01 0.  1.
        -11    1    4    4    0    0 -0.30779144369E+02 -0.67858548025E+01  0.18463104121E+02  0.36527931330E+02  0.00000000000E+00 0. -1.
         11    1    4    4    0    0 -0.15054040422E+01  0.91750374323E+02  0.10469009086E+03  0.13921355018E+03  0.00000000000E+00 0.  1.
</event>
<event>
 8    1  0.3654190E-009  0.1792830E+03  0.7561462E-02  0.1168499E+00
         -1   -1    0    0    0  501 -0.00000000000E+00  0.00000000000E+00  0.15225989663E+03  0.15225989663E+03  0.00000000000E+00 0.  1.
          1   -1    0    0  501    0  0.00000000000E+00 -0.00000000000E+00 -0.25471049393E+03  0.25471049393E+03  0.00000000000E+00 0. -1.
         25    2    1    2    0    0 -0.10803495721E+03  0.10274091094E+03 -0.12384126170E+03  0.23067402729E+03  0.12508637817E+03 0.  0.
         23    2    1    2    0    0  0.10803495721E+03 -0.10274091094E+03  0.21390664397E+02  0.17629636327E+03  0.91627509067E+02 0.  0.
          5    1    3    3  502    0 -0.37534378452E+02  0.10971273383E+03 -0.10677421641E+03  0.15768297061E+03  0.41800000000E+01 0.  1.
         -5    1    3    3    0  502 -0.70500578760E+02 -0.69718228876E+01 -0.17067045289E+02  0.72991056677E+02  0.41800000000E+01 0.  1.
        -11    1    4    4    0    0  0.11585387803E+03 -0.64628378334E+02  0.30970084223E+02  0.13622809716E+03  0.00000000000E+00 0.  1.
         11    1    4    4    0    0 -0.78189208149E+01 -0.38112532611E+02 -0.95794198259E+01  0.40068266108E+02  0.00000000000E+00 0. -1.
</event>
<event>
 8    1  0.3654190E-009  0.1350808E+03  0.7561462E-02  0.1220106E+00
         -1   -1    0    0    0  501 -0.00000000000E+00  0.00000000000E+00  0.34178153673E+03  0.34178153673E+03  0.00000000000E+00 0. -1.
          1   -1    0    0  501    0  0.00000000000E+00 -0.00000000000E+00 -0.79294279868E+02  0.79294279868E+02  0.00000000000E+00 0.  1.
         25    2    1    2    0    0 -0.48743487660E+02  0.10816289081E+03  0.97419843896E+02  0.19802424154E+03  0.12509130951E+03 0.  0.
         23    2    1    2    0    0  0.48743487660E+02 -0.10816289081E+03  0.16506741296E+03  0.22305157506E+03  0.91812939052E+02 0.  0.
          5    1    3    3  502    0 -0.74021134502E+02  0.74382545198E+02  0.16007603360E+02  0.10623373828E+03  0.41800000000E+01 0. -1.
         -5    1    3    3    0  502  0.25277646842E+02  0.33780345607E+02  0.81412240535E+02  0.91790503257E+02  0.41800000000E+01 0. -1.
        -11    1    4    4    0    0  0.32693036105E+01 -0.43881980664E+02  0.12927438671E+03  0.13655835248E+03  0.00000000000E+00 0. -1.
         11    1    4    4    0    0  0.45474184049E+02 -0.64280910141E+02  0.35793026252E+02  0.86493222577E+02  0.00000000000E+00 0.  1.
</event>
<event>
 8    1  0.3654190E-009  0.1659530E+03  0.7561462E-02  0.1182135E+00
          2   -1    0    0  501    0  0.00000000000E+00  0.00000000000E+00  0.13455979603E+04  0.13455979603E+04  0.00000000000E+00 0. -1.
         -2   -1    0    0    0  501 -0.00000000000E+00 -0.00000000000E+00 -0.31338648852E+02  0.31338648852E+02  0.00000000000E+00 0.  1.
         25    2    1    2    0    0  0.15219994120E+02 -0.14225505996E+03  0.10237178855E+04  0.10412074716E+04  0.12508612898E+03 0.  0.
         23    2    1    2    0    0 -0.15219994120E+02  0.14225505996E+03  0.29054142599E+03  0.33572913753E+03  0.88496233038E+02 0.  0.
          5    1    3    3  502    0  0.67363084522E+02 -0.10344643280E+03  0.72771733106E+03  0.73812528472E+03  0.41800000000E+01 0.  1.
         -5    1    3    3    0  502 -0.52143090402E+02 -0.38808627158E+02  0.29600055440E+03  0.30308218692E+03  0.41800000000E+01 0.  1.
        -11    1    4    4    0    0 -0.34789282758E+01  0.66907513367E+02  0.22633142227E+03  0.23603946914E+03  0.00000000000E+00 0.  1.
         11    1    4    4    0    0 -0.11741065845E+02  0.75347546589E+02  0.64210003723E+02  0.99689668383E+02  0.00000000000E+00 0. -1.
</event>
<event>
 8    1  0.3654190E-009  0.1619296E+03  0.7561462E-02  0.1186535E+00
         -1   -1    0    0    0  501 -0.00000000000E+00  0.00000000000E+00  0.30502714919E+03  0.30502714919E+03  0.00000000000E+00 0.  1.
          1   -1    0    0  501    0  0.00000000000E+00 -0.00000000000E+00 -0.14770617758E+03  0.14770617758E+03  0.00000000000E+00 0. -1.
         25    2    1    2    0    0 -0.75997513883E+02 -0.12628096739E+03  0.19415575374E+03  0.27398429441E+03  0.12509369301E+03 0.  0.
         23    2    1    2    0    0  0.75997513883E+02  0.12628096739E+03 -0.36834782130E+02  0.17874903235E+03  0.94190819893E+02 0.  0.
          5    1    3    3  502    0 -0.15557044210E+01 -0.12408311063E+02 -0.17761815574E+02  0.22121050884E+02  0.41800000000E+01 0. -1.
         -5    1    3    3    0  502 -0.74441809462E+02 -0.11387265632E+03  0.21191756932E+03  0.25186324353E+03  0.41800000000E+01 0. -1.
        -11    1    4    4    0    0  0.88403296787E+02  0.59316574424E+02 -0.27956619421E+02  0.11006893955E+03  0.00000000000E+00 0.  1.
         11    1    4    4    0    0 -0.12405782904E+02  0.66964392964E+02 -0.88781627095E+01  0.68680092804E+02  0.00000000000E+00 0. -1.
</event>
<event>
 8    1  0.3654190E-009  0.9922139E+02  0.7561462E-02  0.1281942E+00
         -2   -1    0    0    0  501 -0.00000000000E+00  0.00000000000E+00  0.74716117371E+02  0.74716117371E+02  0.00000000000E+00 0. -1.
          2   -1    0    0  501    0  0.00000000000E+00 -0.00000000000E+00 -0.30283437827E+03  0.30283437827E+03  0.00000000000E+00 0.  1.
         25    2    1    2    0    0  0.17116178311E+02 -0.54703621619E+02 -0.22751566682E+03  0.26588212259E+03  0.12507787449E+03 0.  0.
         23    2    1    2    0    0 -0.17116178311E+02  0.54703621619E+02 -0.60259408345E+00  0.11166837305E+03  0.95833254368E+02 0.  0.
          5    1    3    3  502    0 -0.43566440892E+02 -0.45804009068E+02 -0.17107263483E+03  0.18242631610E+03  0.41800000000E+01 0.  1.
         -5    1    3    3    0  502  0.60682619202E+02 -0.88996125508E+01 -0.56443031989E+02  0.83455806490E+02  0.41800000000E+01 0.  1.
        -11    1    4    4    0    0 -0.16508197662E+02 -0.22489008014E+01 -0.39383941367E+02  0.42762986126E+02  0.00000000000E+00 0.  1.
         11    1    4    4    0    0 -0.60798064832E+00  0.56952522420E+02  0.38781347283E+02  0.68905386927E+02  0.00000000000E+00 0. -1.
</event>
<event>
 8    1  0.3654190E-009  0.2884601E+03  0.7561462E-02  0.1091156E+00
          2   -1    0    0  501    0  0.00000000000E+00  0.00000000000E+00  0.61344198029E+03  0.61344198029E+03  0.00000000000E+00 0. -1.
         -2   -1    0    0    0  501 -0.00000000000E+00 -0.00000000000E+00 -0.18224221065E+03  0.18224221065E+03  0.00000000000E+00 0.  1.
         25    2    1    2    0    0  0.62411552928E+01  0.28281508506E+03  0.38653842118E+03  0.49505816952E+03  0.12508923133E+03 0.  0.
         23    2    1    2    0    0 -0.62411552928E+01 -0.28281508506E+03  0.44661348461E+02  0.30062602142E+03  0.91422340542E+02 0.  0.
          5    1    3    3  502    0 -0.28442147179E+02  0.20497544837E+03  0.19068929885E+03  0.28143164582E+03  0.41800000000E+01 0. -1.
         -5    1    3    3    0  502  0.34683302472E+02  0.77839636696E+02  0.19584912233E+03  0.21362652370E+03  0.41800000000E+01 0. -1.
        -11    1    4    4    0    0  0.10355025665E+02 -0.19339972187E+03 -0.11022336368E+02  0.19399013087E+03  0.00000000000E+00 0.  1.
         11    1    4    4    0    0 -0.16596180958E+02 -0.89415363193E+02  0.55683684830E+02  0.10663589055E+03  0.00000000000E+00 0. -1.
</event>
<event>
 8    1  0.3654190E-009  0.9647802E+02  0.7561462E-02  0.1287881E+00
          1   -1    0    0  501    0  0.00000000000E+00  0.00000000000E+00  0.68245230608E+03  0.68245230608E+03  0.00000000000E+00 0. -1.
         -1   -1    0    0    0  501 -0.00000000000E+00 -0.00000000000E+00 -0.19084849687E+02  0.19084849687E+02  0.00000000000E+00 0.  1.
         25    2    1    2    0    0 -0.35572007094E+02  0.18922876167E+02  0.38011046654E+03  0.40218762272E+03  0.12508986435E+03 0.  0.
         23    2    1    2    0    0  0.35572007094E+02 -0.18922876167E+02  0.28325698985E+03  0.29934953305E+03  0.88046451972E+02 0.  0.
          5    1    3    3  502    0 -0.29582311866E+02 -0.32528534175E+02  0.31867371694E+03  0.32171979886E+03  0.41800000000E+01 0. -1.
         -5    1    3    3    0  502 -0.59896952285E+01  0.51451410342E+02  0.61436749604E+02  0.80467823861E+02  0.41800000000E+01 0. -1.
        -11    1    4    4    0    0  0.64047976811E+02 -0.28234435028E+01  0.18908030998E+03  0.19965339664E+03  0.00000000000E+00 0.  1.
         11    1    4    4    0    0 -0.28475969717E+02 -0.16099432664E+02  0.94176679874E+02  0.99696136412E+02  0.00000000000E+00 0. -1.
</event>
<event>
 8    1  0.3654190E-009  0.1846232E+03  0.7561462E-02  0.1163402E+00
          2   -1    0    0  501    0  0.00000000000E+00  0.00000000000E+00  0.20579032934E+04  0.20579032934E+04  0.00000000000E+00 0. -1.
         -2   -1    0    0    0  501 -0.00000000000E+00 -0.00000000000E+00 -0.71948633808E+02  0.71948633808E+02  0.00000000000E+00 0.  1.
         25    2    1    2    0    0 -0.14357536150E+03  0.55987178863E+02  0.19327190509E+04  0.19428842162E+04  0.12509076418E+03 0.  0.
         23    2    1    2    0    0  0.14357536150E+03 -0.55987178863E+02  0.53235608719E+02  0.18696771102E+03  0.91512000859E+02 0.  0.
          5    1    3    3  502    0 -0.91027046193E+02  0.95931227954E+02  0.12712842261E+04  0.12781509221E+04  0.41800000000E+01 0.  1.
         -5    1    3    3    0  502 -0.52548315308E+02 -0.39944049091E+02  0.66143482474E+03  0.66473329409E+03  0.41800000000E+01 0.  1.
        -11    1    4    4    0    0  0.32496686541E+02 -0.49903567646E+02 -0.78300454932E+01  0.60064218236E+02  0.00000000000E+00 0.  1.
         11    1    4    4    0    0  0.11107867496E+03 -0.60836112172E+01  0.61065654213E+02  0.12690349278E+03  0.00000000000E+00 0. -1.
</event>
<event>
 8    1  0.3654190E-009  0.1079173E+03  0.7561462E-02  0.1264476E+00
         -2   -1    0    0    0  501 -0.00000000000E+00  0.00000000000E+00  0.20015956622E+03  0.20015956622E+03  0.00000000000E+00 0. -1.
          2   -1    0    0  501    0  0.00000000000E+00 -0.00000000000E+00 -0.12494908756E+03  0.12494908756E+03  0.00000000000E+00 0.  1.
         25    2    1    2    0    0 -0.18967139140E+02 -0.44217782453E+02  0.14737336474E+03  0.19920059090E+03  0.12508797756E+03 0.  0.
         23    2    1    2    0    0  0.18967139140E+02  0.44217782453E+02 -0.72162886073E+02  0.12590806288E+03  0.91270989471E+02 0.  0.
          5    1    3    3  502    0 -0.33407250857E+02 -0.76168300078E+02  0.53692164809E+02  0.99085696791E+02  0.41800000000E+01 0. -1.
         -5    1    3    3    0  502  0.14440111717E+02  0.31950517625E+02  0.93681199930E+02  0.10011489411E+03  0.41800000000E+01 0. -1.
        -11    1    4    4    0    0  0.33124569401E+02  0.64502076419E+02 -0.33184462415E+02  0.79743109459E+02  0.00000000000E+00 0. -1.
         11    1    4    4    0    0 -0.14157430261E+02 -0.20284293966E+02 -0.38978423658E+02  0.46164953419E+02  0.00000000000E+00 0.  1.
</event>
<event>
 8    1  0.3654190E-009  0.1100330E+03  0.7561462E-02  0.1260509E+00
          3   -1    0    0  501    0  0.00000000000E+00  0.00000000000E+00  0.82658299437E+02  0.82658299437E+02  0.00000000000E+00 0. -1.
         -3   -1    0    0    0  501 -0.00000000000E+00 -0.00000000000E+00 -0.20563817417E+03  0.20563817417E+03  0.00000000000E+00 0.  1.
         25    2    1    2    0    0  0.34858830576E+02 -0.14615796128E+02 -0.81586143053E+00  0.13068071536E+03  0.12509206278E+03 0.  0.
         23    2    1    2    0    0 -0.34858830576E+02  0.14615796128E+02 -0.12216401330E+03  0.15761575825E+03  0.92140770216E+02 0.  0.
          5    1    3    3  502    0  0.19715091839E+02 -0.66220298727E+02  0.21237667084E+02  0.72403892940E+02  0.41800000000E+01 0.  1.
         -5    1    3    3    0  502  0.15143738737E+02  0.51604502599E+02 -0.22053528515E+02  0.58276822420E+02  0.41800000000E+01 0.  1.
        -11    1    4    4    0    0 -0.65311143958E+02  0.11132050563E+02 -0.99314031337E+02  0.11938486041E+03  0.00000000000E+00 0.  1.
         11    1    4    4    0    0  0.30452313383E+02  0.34837455645E+01 -0.22849981966E+02  0.38230897836E+02  0.00000000000E+00 0. -1.
</event>
<event>
 8    1  0.3654190E-009  0.8632248E+02  0.7561462E-02  0.1312010E+00
         -1   -1    0    0    0  501 -0.00000000000E+00  0.00000000000E+00  0.21645755185E+03  0.21645755185E+03  0.00000000000E+00 0.  1.
          1   -1    0    0  501    0  0.00000000000E+00 -0.00000000000E+00 -0.14137743985E+03  0.14137743985E+03  0.00000000000E+00 0. -1.
         25    2    1    2    0    0 -0.45309849727E+01 -0.62550830906E+02  0.16477439751E+03  0.21617542677E+03  0.12509227311E+03 0.  0.
         23    2    1    2    0    0  0.45309849727E+01  0.62550830906E+02 -0.89694285514E+02  0.14165956493E+03  0.89940153487E+02 0.  0.
          5    1    3    3  502    0  0.30584009445E+01 -0.67235004196E+02  0.18323605527E+03  0.19525066954E+03  0.41800000000E+01 0.  1.
         -5    1    3    3    0  502 -0.75893859173E+01  0.46841732901E+01 -0.18461657756E+02  0.20924757230E+02  0.41800000000E+01 0.  1.
        -11    1    4    4    0    0 -0.25286424653E+02 -0.84800448938E+00 -0.60837697091E+02  0.65888904762E+02  0.00000000000E+00 0. -1.
         11    1    4    4    0    0  0.29817409626E+02  0.63398835395E+02 -0.28856588423E+02  0.75770660164E+02  0.00000000000E+00 0.  1.
</event>
<event>
 8    1  0.3654190E-009  0.9401017E+02  0.7561462E-02  0.1293421E+00
          1   -1    0    0  501    0  0.00000000000E+00  0.00000000000E+00  0.26690868311E+02  0.26690868311E+02  0.00000000000E+00 0. -1.
         -1   -1    0    0    0  501 -0.00000000000E+00 -0.00000000000E+00 -0.41500534610E+03  0.41500534610E+03  0.00000000000E+00 0.  1.
         25    2    1    2    0    0  0.87716570400E+01  0.12259673255E+02 -0.26830647815E+03  0.29641769417E+03  0.12509133322E+03 0.  0.
         23    2    1    2    0    0 -0.87716570400E+01 -0.12259673255E+02 -0.12000799964E+03  0.14527852023E+03  0.80477865957E+02 0.  0.
          5    1    3    3  502    0  0.52913742130E+01 -0.47745879165E+02 -0.19818258183E+03  0.20396439826E+03  0.41800000000E+01 0. -1.
         -5    1    3    3    0  502  0.34802828270E+01  0.60005552420E+02 -0.70123896321E+02  0.92453295912E+02  0.41800000000E+01 0. -1.
        -11    1    4    4    0    0 -0.57357591962E+01  0.33349409970E+02 -0.34533537998E+02  0.48349222595E+02  0.00000000000E+00 0.  1.
         11    1    4    4    0    0 -0.30358978438E+01 -0.45609083225E+02 -0.85474461639E+02  0.96929297639E+02  0.00000000000E+00 0. -1.
</event>
<event>
 8    1  0.3654190E-009  0.9344787E+02  0.7561462E-02  0.1294711E+00
         -2   -1    0    0    0  501 -0.00000000000E+00  0.00000000000E+00  0.10936830587E+04  0.10936830587E+04  0.00000000000E+00 0.  1.
          2   -1    0    0  501    0  0.00000000000E+00 -0.00000000000E+00 -0.14661783229E+02  0.14661783229E+02  0.00000000000E+00 0. -1.
         25    2    1    2    0    0 -0.54118550134E+02 -0.36156473329E+02  0.60564835645E+03  0.62184680612E+03  0.12508961018E+03 0.  0.
         23    2    1    2    0    0  0.54118550134E+02  0.36156473329E+02  0.47337291901E+03  0.48649803580E+03  0.91445668863E+02 0.  0.
          5    1    3    3  502    0 -0.31173882848E+02  0.71649217107E+00  0.55109625189E+03  0.55199354669E+03  0.41800000000E+01 0. -1.
         -5    1    3    3    0  502 -0.22944667286E+02 -0.36872965500E+02  0.54552104559E+02  0.69853259434E+02  0.41800000000E+01 0. -1.
        -11    1    4    4    0    0 -0.12369067366E+02  0.43208910021E+02  0.21169813030E+03  0.21641650146E+03  0.00000000000E+00 0.  1.
         11    1    4    4    0    0  0.66487617500E+02 -0.70524366924E+01  0.26167478871E+03  0.27008153434E+03  0.00000000000E+00 0. -1.
</event>
<event>
 8    1  0.3654190E-009  0.1358334E+03  0.7561462E-02  0.1219048E+00
          1   -1    0    0  501    0  0.00000000000E+00  0.00000000000E+00  0.59695187411E+03  0.59695187411E+03  0.00000000000E+00 0. -1.
         -1   -1    0    0    0  501 -0.00000000000E+00 -0.00000000000E+00 -0.34737946693E+02  0.34737946693E+02  0.00000000000E+00 0.  1.
         25    2    1    2    0    0 -0.77631638514E+01  0.94311573655E+02  0.30686087051E+03  0.34462493262E+03  0.12509120950E+03 0.  0.
         23    2    1    2    0    0  0.77631638514E+01 -0.94311573655E+02  0.25535305690E+03  0.28706488818E+03  0.90808186400E+02 0.  0.
          5    1    3    3  502    0  0.55321127655E+02  0.69378171397E+02  0.17850129072E+03  0.19938390361E+03  0.41800000000E+01 0. -1.
         -5    1    3    3    0  502 -0.63084291506E+02  0.24933402258E+02  0.12835957979E+03  0.14524102901E+03  0.41800000000E+01 0. -1.
        -11    1    4    4    0    0  0.26854808960E+02 -0.10370217713E+02  0.16519308234E+02  0.33190506538E+02  0.00000000000E+00 0.  1.
         11    1    4    4    0    0 -0.19091645109E+02 -0.83941355942E+02  0.23883374867E+03  0.25387438164E+03  0.00000000000E+00 0. -1.
</event>
<event>
 8    1  0.3654190E-009  0.1136480E+03  0.7561462E-02  0.1253960E+00
          2   -1    0    0  501    0  0.00000000000E+00  0.00000000000E+00  0.14296621878E+03  0.14296621878E+03  0.00000000000E+00 0. -1.
         -2   -1    0    0    0  501 -0.00000000000E+00 -0.00000000000E+00 -0.11541196953E+03  0.11541196953E+03  0.00000000000E+00 0.  1.
         25    2    1    2    0    0  0.12787999908E+01  0.69026689453E+02  0.10936028071E+02  0.14329601498E+03  0.12509129471E+03 0.  0.
         23    2    1    2    0    0 -0.12787999908E+01 -0.69026689453E+02  0.16618221172E+02  0.11508217333E+03  0.90561703588E+02 0.  0.
          5    1    3    3  502    0  0.38363949768E+02 -0.67982937492E+01 -0.30039628175E+02  0.49374701018E+02  0.41800000000E+01 0. -1.
         -5    1    3    3    0  502 -0.37085149777E+02  0.75824983202E+02  0.40975656247E+02  0.93921313962E+02  0.41800000000E+01 0. -1.
        -11    1    4    4    0    0 -0.38530107061E+02 -0.25011303254E+02 -0.16230385299E+02  0.48719193831E+02  0.00000000000E+00 0.  1.
         11    1    4    4    0    0  0.37251307070E+02 -0.44015386199E+02  0.32848606471E+02  0.66362979497E+02  0.00000000000E+00 0. -1.
</event>
<event>
 8    1  0.3654190E-009  0.1697564E+03  0.7561462E-02  0.1178102E+00
          2   -1    0    0  501    0  0.00000000000E+00  0.00000000000E+00  0.48795468471E+03  0.48795468471E+03  0.00000000000E+00 0. -1.
         -2   -1    0    0    0  501 -0.00000000000E+00 -0.00000000000E+00 -0.11670982957E+03  0.11670982957E+03  0.00000000000E+00 0.  1.
         25    2    1    2    0    0  0.30458768036E+02 -0.13695519635E+03 -0.11189734242E+02  0.18830037536E+03  0.12508940344E+03 0.  0.
         23    2    1    2    0    0 -0.30458768036E+02  0.13695519635E+03  0.38243458938E+03  0.41636413891E+03  0.86130242420E+02 0.  0.
          5    1    3    3  502    0 -0.39902145710E+02 -0.26756150384E+02 -0.29013445363E+02  0.56278994549E+02  0.41800000000E+01 0.  1.
         -5    1    3    3    0  502  0.70360913746E+02 -0.11019904596E+03  0.17823711121E+02  0.13202138082E+03  0.41800000000E+01 0.  1.
        -11    1    4    4    0    0  0.66553457405E+01  0.11910820882E+03  0.32055908100E+03  0.34203681592E+03  0.00000000000E+00 0. -1.
         11    1    4    4    0    0 -0.37114113776E+02  0.17846987529E+02  0.61875508385E+02  0.74327322992E+02  0.00000000000E+00 0.  1.
</event>
<event>
 8    1  0.3654190E-009  0.2290179E+03  0.7561462E-02  0.1127333E+00
          2   -1    0    0  501    0  0.00000000000E+00  0.00000000000E+00  0.15485837133E+04  0.15485837133E+04  0.00000000000E+00 0.  1.
         -2   -1    0    0    0  501 -0.00000000000E+00 -0.00000000000E+00 -0.41759187527E+02  0.41759187527E+02  0.00000000000E+00 0. -1.
         25    2    1    2    0    0 -0.20139155617E+03  0.65428245657E+02  0.49431801859E+03  0.55211829078E+03  0.12507953183E+03 0.  0.
         23    2    1    2    0    0  0.20139155617E+03 -0.65428245657E+02  0.10125065072E+04  0.10382246100E+04  0.88890379614E+02 0.  0.
          5    1    3    3  502    0 -0.15363813735E+03 -0.46358517378E+00  0.23936708398E+03  0.28446259060E+03  0.41800000000E+01 0. -1.
         -5    1    3    3    0  502 -0.47753418827E+02  0.65891830830E+02  0.25495093461E+03  0.26765570018E+03  0.41800000000E+01 0. -1.
        -11    1    4    4    0    0  0.90825296737E+02  0.63296351185E+01  0.54242363000E+03  0.55001153914E+03  0.00000000000E+00 0.  1.
         11    1    4    4    0    0  0.11056625944E+03 -0.71757880775E+02  0.47008287718E+03  0.48821307090E+03  0.00000000000E+00 0. -1.
</event>
<event>
 8    1  0.3654190E-009  0.1018788E+03  0.7561462E-02  0.1276394E+00
          1   -1    0    0  501    0  0.00000000000E+00  0.00000000000E+00  0.24573724775E+02  0.24573724775E+02  0.00000000000E+00 0. -1.
         -1   -1    0    0    0  501 -0.00000000000E+00 -0.00000000000E+00 -0.76915534599E+03  0.76915534599E+03  0.00000000000E+00 0.  1.
         25    2    1    2    0    0  0.80574182882E+02 -0.11528246030E+02 -0.46660292804E+03  0.48988866536E+03  0.12509001794E+03 0.  0.
         23    2    1    2    0    0 -0.80574182882E+02  0.11528246030E+02 -0.27797869318E+03  0.30384040541E+03  0.91770031567E+02 0.  0.
          5    1    3    3  502    0  0.42113557076E+01 -0.52818463977E+01  0.67086381020E+01  0.10397674906E+02  0.41800000000E+01 0. -1.
         -5    1    3    3    0  502  0.76362827174E+02 -0.62463996323E+01 -0.47331156614E+03  0.47949099045E+03  0.41800000000E+01 0. -1.
        -11    1    4    4    0    0 -0.94198226872E+02 -0.88021242083E+01 -0.24604372420E+03  0.26360633064E+03  0.00000000000E+00 0.  1.
         11    1    4    4    0    0  0.13624043990E+02  0.20330370238E+02 -0.31934968983E+02  0.40234074770E+02  0.00000000000E+00 0. -1.
</event>
<event>
 8    1  0.3654190E-009  0.1059471E+03  0.7561462E-02  0.1268265E+00
          2   -1    0    0  501    0  0.00000000000E+00  0.00000000000E+00  0.82989624622E+03  0.82989624622E+03  0.00000000000E+00 0. -1.
         -2   -1    0    0    0  501 -0.00000000000E+00 -0.00000000000E+00 -0.14338241579E+02  0.14338241579E+02  0.00000000000E+00 0.  1.
         25    2    1    2    0    0  0.65210262810E+01  0.68895821902E+01  0.41967324653E+03  0.43802115857E+03  0.12508761479E+03 0.  0.
         23    2    1    2    0    0 -0.65210262810E+01 -0.68895821902E+01  0.39588475811E+03  0.40621332923E+03  0.90523682059E+02 0.  0.
          5    1    3    3  502    0 -0.30166141429E+02  0.55935299518E+02  0.23040323576E+03  0.23904367230E+03  0.41800000000E+01 0. -1.
         -5    1    3    3    0  502  0.36687167710E+02 -0.49045717328E+02  0.18927001077E+03  0.19897748627E+03  0.41800000000E+01 0. -1.
        -11    1    4    4    0    0  0.23625393998E+02 -0.37197840705E+02  0.26169157952E+03  0.26537581161E+03  0.00000000000E+00 0. -1.
         11    1    4    4    0    0 -0.30146420279E+02  0.30308258515E+02  0.13419317859E+03  0.14083751762E+03  0.00000000000E+00 0.  1.
</event>
<event>
 8    1  0.3654190E-009  0.8366401E+02  0.7561462E-02  0.1318964E+00
          2   -1    0    0  501    0  0.00000000000E+00  0.00000000000E+00  0.75716129546E+02  0.75716129546E+02  0.00000000000E+00 0. -1.
         -2   -1    0    0    0  501 -0.00000000000E+00 -0.00000000000E+00 -0.23295847686E+03  0.23295847686E+03  0.00000000000E+00 0.  1.
         25    2    1    2    0    0 -0.45579359725E+02 -0.95168775795E+01 -0.16384054298E+03  0.21132628321E+03  0.12508807081E+03 0.  0.
         23    2    1    2    0    0  0.45579359725E+02  0.95168775795E+01  0.65981956694E+01  0.97348323191E+02  0.85235619610E+02 0.  0.
          5    1    3    3  502    0  0.11072247748E+02 -0.10762948132E+02  0.16058990384E+02  0.22667141302E+02  0.41800000000E+01 0. -1.
         -5    1    3    3    0  502 -0.56651607472E+02  0.12460705523E+01 -0.17989953337E+03  0.18865914191E+03  0.41800000000E+01 0. -1.
        -11    1    4    4    0    0  0.63081190553E+02 -0.14565793560E+02  0.14916975485E+02  0.66437302031E+02  0.00000000000E+00 0. -1.
         11    1    4    4    0    0 -0.17501830828E+02  0.24082671139E+02 -0.83187798158E+01  0.30911021160E+02  0.00000000000E+00 0.  1.
</event>
<event>
 8    1  0.3654190E-009  0.2022688E+03  0.7561462E-02  0.1147839E+00
          1   -1    0    0  501    0  0.00000000000E+00  0.00000000000E+00  0.84636609299E+03  0.84636609299E+03  0.00000000000E+00 0. -1.
         -1   -1    0    0    0  501 -0.00000000000E+00 -0.00000000000E+00 -0.96156673081E+02  0.96156673081E+02  0.00000000000E+00 0.  1.
         25    2    1    2    0    0  0.15380077922E+03 -0.95207642173E+02  0.67304669807E+02  0.22998983451E+03  0.12508489351E+03 0.  0.
         23    2    1    2    0    0 -0.15380077922E+03  0.95207642173E+02  0.68290475010E+03  0.71253293156E+03  0.92871448980E+02 0.  0.
          5    1    3    3  502    0  0.69976903233E+02 -0.10919660618E+03  0.16284596667E+02  0.13077968602E+03  0.41800000000E+01 0.  1.
         -5    1    3    3    0  502  0.83823875983E+02  0.13988964010E+02  0.51020073140E+02  0.99210148483E+02  0.41800000000E+01 0.  1.
        -11    1    4    4    0    0 -0.54200124483E+02  0.35221626284E+01  0.96796989515E+02  0.11099421743E+03  0.00000000000E+00 0.  1.
         11    1    4    4    0    0 -0.99600654732E+02  0.91685479545E+02  0.58610776058E+03  0.60153871413E+03  0.00000000000E+00 0. -1.
</event>
<event>
 8    1  0.3654190E-009  0.8743072E+02  0.7561462E-02  0.1309196E+00
         -2   -1    0    0    0  501 -0.00000000000E+00  0.00000000000E+00  0.51080327374E+02  0.51080327374E+02  0.00000000000E+00 0.  1.
          2   -1    0    0  501    0  0.00000000000E+00 -0.00000000000E+00 -0.41882620958E+03  0.41882620958E+03  0.00000000000E+00 0. -1.
         25    2    1    2    0    0  0.69866933569E+02  0.10535057399E+02 -0.93269961133E+02  0.17128471168E+03  0.12508713349E+03 0.  0.
         23    2    1    2    0    0 -0.69866933569E+02 -0.10535057399E+02 -0.27447592107E+03  0.29862182527E+03  0.94050983193E+02 0.  0.
          5    1    3    3  502    0  0.26001255572E+02 -0.20405146844E+02  0.24790173153E+02  0.41526622714E+02  0.41800000000E+01 0.  1.
         -5    1    3    3    0  502  0.43865677997E+02  0.30940204243E+02 -0.11806013429E+03  0.12975808897E+03  0.41800000000E+01 0.  1.
        -11    1    4    4    0    0 -0.53236930053E+02 -0.30787898514E+02 -0.26285808456E+03  0.26995636321E+03  0.00000000000E+00 0. -1.
         11    1    4    4    0    0 -0.16630003516E+02  0.20252841115E+02 -0.11617836509E+02  0.28665462064E+02  0.00000000000E+00 0.  1.
</event>
<event>
 8    1  0.3654190E-009  0.1004355E+03  0.7561462E-02  0.1279383E+00
         -2   -1    0    0    0  501 -0.00000000000E+00  0.00000000000E+00  0.86867545996E+02  0.86867545996E+02  0.00000000000E+00 0.  1.
          2   -1    0    0  501    0  0.00000000000E+00 -0.00000000000E+00 -0.18734885380E+03  0.18734885380E+03  0.00000000000E+00 0. -1.
         25    2    1    2    0    0  0.59591385102E+02 -0.86295397647E+01 -0.22870230733E+02  0.14070049537E+03  0.12509188547E+03 0.  0.
         23    2    1    2    0    0 -0.59591385102E+02  0.86295397647E+01 -0.77611077066E+02  0.13351590442E+03  0.90429062333E+02 0.  0.
          5    1    3    3  502    0 -0.17874111885E+02 -0.16718460279E+02 -0.51853189402E+02  0.57491011828E+02  0.41800000000E+01 0.  1.
         -5    1    3    3    0  502  0.77465496987E+02  0.80889205145E+01  0.28982958669E+02  0.83209483545E+02  0.41800000000E+01 0.  1.
        -11    1    4    4    0    0 -0.50598665582E+02 -0.29701400220E+02 -0.73328451615E+02  0.93911979800E+02  0.00000000000E+00 0. -1.
         11    1    4    4    0    0 -0.89927195200E+01  0.38330939984E+02 -0.42826254512E+01  0.39603924619E+02  0.00000000000E+00 0.  1.
</event>
<event>
 8    1  0.3654190E-009  0.1767926E+03  0.7561462E-02  0.1170944E+00
          1   -1    0    0  501    0  0.00000000000E+00  0.00000000000E+00  0.24172287593E+03  0.24172287593E+03  0.00000000000E+00 0. -1.
         -1   -1    0    0    0  501 -0.00000000000E+00 -0.00000000000E+00 -0.27139087350E+03  0.27139087350E+03  0.00000000000E+00 0.  1.
         25    2    1    2    0    0  0.17528341247E+03 -0.20723431791E+02  0.13616539426E+03  0.25562081506E+03  0.12508897308E+03 0.  0.
         23    2    1    2    0    0 -0.17528341247E+03  0.20723431791E+02 -0.16583339184E+03  0.25749293437E+03  0.87453771162E+02 0.  0.
          5    1    3    3  502    0  0.43232507473E+02 -0.63538871603E+01  0.11233228888E+03  0.12060446555E+03  0.41800000000E+01 0.  1.
         -5    1    3    3    0  502  0.13205090500E+03 -0.14369544631E+02  0.23833105377E+02  0.13501634951E+03  0.41800000000E+01 0.  1.
        -11    1    4    4    0    0 -0.15718600569E+03  0.15455467986E+02 -0.95262980777E+02  0.18444876628E+03  0.00000000000E+00 0. -1.
         11    1    4    4    0    0 -0.18097406778E+02  0.52679638051E+01 -0.70570411061E+02  0.73044168091E+02  0.00000000000E+00 0.  1.
</event>
<event>
 8    1  0.3654190E-009  0.1472793E+03  0.7561462E-02  0.1203857E+00
          3   -1    0    0  501    0  0.00000000000E+00  0.00000000000E+00  0.96977269648E+02  0.96977269648E+02  0.00000000000E+00 0. -1.
         -3   -1    0    0    0  501 -0.00000000000E+00 -0.00000000000E+00 -0.25480505567E+03  0.25480505567E+03  0.00000000000E+00 0.  1.
         25    2    1    2    0    0 -0.23253880960E+02  0.10267732192E+03 -0.13248374924E+03  0.21043286524E+03  0.12508665614E+03 0.  0.
         23    2    1    2    0    0  0.23253880960E+02 -0.10267732192E+03 -0.25344036782E+02  0.14134946008E+03  0.90851385508E+02 0.  0.
          5    1    3    3  502    0  0.48821197175E+02  0.37945064130E+02 -0.76543164615E+02  0.98486880521E+02  0.41800000000E+01 0. -1.
         -5    1    3    3    0  502 -0.72075078135E+02  0.64732257787E+02 -0.55940584627E+02  0.11194598472E+03  0.41800000000E+01 0. -1.
        -11    1    4    4    0    0  0.26632168546E+02  0.56604471816E+01 -0.18146843113E+02  0.32720345028E+02  0.00000000000E+00 0. -1.
         11    1    4    4    0    0 -0.33782875860E+01 -0.10833776910E+03 -0.71971936693E+01  0.10862911505E+03  0.00000000000E+00 0.  1.
</event>
<event>
 8    1  0.3654190E-009  0.5302754E+02  0.7561462E-02  0.1429664E+00
          2   -1    0    0  501    0  0.00000000000E+00  0.00000000000E+00  0.17242044247E+03  0.17242044247E+03  0.00000000000E+00 0. -1.
         -2   -1    0    0    0  501 -0.00000000000E+00 -0.00000000000E+00 -0.84096003074E+02  0.84096003074E+02  0.00000000000E+00 0.  1.
         25    2    1    2    0    0  0.17084824690E+02 -0.45478417374E+02  0.70122624250E+02  0.15141152470E+03  0.12509232470E+03 0.  0.
         23    2    1    2    0    0 -0.17084824690E+02  0.45478417374E+02  0.18201815148E+02  0.10510492085E+03  0.91408755765E+02 0.  0.
          5    1    3    3  502    0 -0.61075771710E+01 -0.23280463984E+02 -0.34286167822E+02  0.42098648507E+02  0.41800000000E+01 0.  1.
         -5    1    3    3    0  502  0.23192401861E+02 -0.22197953390E+02  0.10440879207E+03  0.10931287619E+03  0.41800000000E+01 0.  1.
        -11    1    4    4    0    0 -0.15763435924E+02  0.31627083355E+02 -0.35225282694E+02  0.49895679719E+02  0.00000000000E+00 0.  1.
         11    1    4    4    0    0 -0.13213887661E+01  0.13851334018E+02  0.53427097842E+02  0.55209241130E+02  0.00000000000E+00 0. -1.
</event>
<event>
 8    1  0.3654190E-009  0.9941910E+02  0.7561462E-02  0.1281522E+00
         -1   -1    0    0    0  501 -0.00000000000E+00  0.00000000000E+00  0.63342790176E+02  0.63342790176E+02  0.00000000000E+00 0.  1.
          1   -1    0    0  501    0  0.00000000000E+00 -0.00000000000E+00 -0.18828216349E+03  0.18828216349E+03  0.00000000000E+00 0. -1.
         25    2    1    2    0    0  0.45758345922E+01 -0.10541898356E+02 -0.53048270307E+02  0.13636054033E+03  0.12509199852E+03 0.  0.
         23    2    1    2    0    0 -0.45758345922E+01  0.10541898356E+02 -0.71891103002E+02  0.11526441333E+03  0.89361537626E+02 0.  0.
          5    1    3    3  502    0 -0.17000185576E+02 -0.63845281248E+02 -0.16954840299E+02  0.68338607367E+02  0.41800000000E+01 0.  1.
         -5    1    3    3    0  502  0.21576020169E+02  0.53303382892E+02 -0.36093430008E+02  0.68021932961E+02  0.41800000000E+01 0.  1.
        -11    1    4    4    0    0  0.34170025579E+02 -0.20713363990E+01 -0.65653813930E+02  0.74042584815E+02  0.00000000000E+00 0. -1.
         11    1    4    4    0    0 -0.38745860171E+02  0.12613234755E+02 -0.62372890723E+01  0.41221828518E+02  0.00000000000E+00 0.  1.
</event>
<event>
 8    1  0.3654190E-009  0.7515123E+02  0.7561462E-02  0.1343403E+00
          1   -1    0    0  501    0  0.00000000000E+00  0.00000000000E+00  0.16100540179E+03  0.16100540179E+03  0.00000000000E+00 0. -1.
         -1   -1    0    0    0  501 -0.00000000000E+00 -0.00000000000E+00 -0.14982431254E+03  0.14982431254E+03  0.00000000000E+00 0.  1.
         25    2    1    2    0    0 -0.70145484316E+01 -0.60729732340E+02 -0.86126289628E+02  0.16372184337E+03  0.12509916048E+03 0.  0.
         23    2    1    2    0    0  0.70145484316E+01  0.60729732340E+02  0.97307378882E+02  0.14710787096E+03  0.91840597953E+02 0.  0.
          5    1    3    3  502    0  0.35132115003E+01 -0.16821512364E+02  0.32347501051E+02  0.36866504547E+02  0.41800000000E+01 0. -1.
         -5    1    3    3    0  502 -0.10527759932E+02 -0.43908219976E+02 -0.11847379068E+03  0.12685533883E+03  0.41800000000E+01 0. -1.
        -11    1    4    4    0    0  0.84477331987E+01 -0.11918540031E+02 -0.98632840262E+01  0.17626688982E+02  0.00000000000E+00 0.  1.
         11    1    4    4    0    0 -0.14331847672E+01  0.72648272372E+02  0.10717066291E+03  0.12948118197E+03  0.00000000000E+00 0. -1.
</event>
<event>
 8    1  0.3654190E-009  0.1464592E+03  0.7561462E-02  0.1204893E+00
          2   -1    0    0  501    0  0.00000000000E+00  0.00000000000E+00  0.12829109137E+04  0.12829109137E+04  0.00000000000E+00 0.  1.
         -2   -1    0    0    0  501 -0.00000000000E+00 -0.00000000000E+00 -0.25400697584E+02  0.25400697584E+02  0.00000000000E+00 0. -1.
         25    2    1    2    0    0 -0.79212369084E+02  0.80149854191E+02  0.10179093498E+04  0.10317409942E+04  0.12510569992E+03 0.  0.
         23    2    1    2    0    0  0.79212369084E+02 -0.80149854191E+02  0.23960086637E+03  0.27657061714E+03  0.79900766944E+02 0.  0.
          5    1    3    3  502    0 -0.82694422232E+02  0.10320417523E+03  0.66486918811E+03  0.67790705775E+03  0.41800000000E+01 0.  1.
         -5    1    3    3    0  502  0.34820531487E+01 -0.23054321041E+02  0.35304016167E+03  0.35383393643E+03  0.41800000000E+01 0.  1.
        -11    1    4    4    0    0 -0.40227835610E+01 -0.47241836547E+02  0.66132228839E+02  0.81372265540E+02  0.00000000000E+00 0.  1.
         11    1    4    4    0    0  0.83235152645E+02 -0.32908017644E+02  0.17346863753E+03  0.19519835160E+03  0.00000000000E+00 0. -1.
</event>
<event>
 8    1  0.3654190E-009  0.1208066E+03  0.7561462E-02  0.1241772E+00
         -4   -1    0    0    0  501 -0.00000000000E+00  0.00000000000E+00  0.30233168629E+03  0.30233168629E+03  0.00000000000E+00 0. -1.
          4   -1    0    0  501    0  0.00000000000E+00 -0.00000000000E+00 -0.57370214338E+02  0.57370214338E+02  0.00000000000E+00 0.  1.
         25    2    1    2    0    0 -0.23002031558E+02 -0.57789628007E+02  0.82512462381E+02  0.16225167136E+03  0.12509421989E+03 0.  0.
         23    2    1    2    0    0  0.23002031558E+02  0.57789628007E+02  0.16244900958E+03  0.19745022928E+03  0.93424717114E+02 0.  0.
          5    1    3    3  502    0  0.48031722064E+02 -0.28320821572E+02  0.10663029407E+02  0.56923526376E+02  0.41800000000E+01 0.  1.
         -5    1    3    3    0  502 -0.71033753623E+02 -0.29468806435E+02  0.71849432974E+02  0.10532814498E+03  0.41800000000E+01 0.  1.
        -11    1    4    4    0    0 -0.27781052497E+02  0.50142622103E+02  0.60787471956E+02  0.83553492901E+02  0.00000000000E+00 0.  1.
         11    1    4    4    0    0  0.50783084056E+02  0.76470059042E+01  0.10166153762E+03  0.11389673637E+03  0.00000000000E+00 0. -1.
</event>
<event>
 8    1  0.3654190E-009  0.1148282E+03  0.7561462E-02  0.1251881E+00
         -2   -1    0    0    0  501 -0.00000000000E+00  0.00000000000E+00  0.61337000239E+02  0.61337000239E+02  0.00000000000E+00 0. -1.
          2   -1    0    0  501    0  0.00000000000E+00 -0.00000000000E+00 -0.36960303887E+03  0.36960303887E+03  0.00000000000E+00 0.  1.
         25    2    1    2    0    0 -0.76169095861E+02  0.58961015442E+02 -0.22691830588E+03  0.27643766774E+03  0.12509090332E+03 0.  0.
         23    2    1    2    0    0  0.76169095861E+02 -0.58961015442E+02 -0.81347732752E+02  0.15450237137E+03  0.89305076173E+02 0.  0.
          5    1    3    3  502    0 -0.36496578585E+02  0.10984683811E+01  0.21655375854E+01  0.36815334227E+02  0.41800000000E+01 0.  1.
         -5    1    3    3    0  502 -0.39672517276E+02  0.57862547061E+02 -0.22908384346E+03  0.23962233351E+03  0.41800000000E+01 0.  1.
        -11    1    4    4    0    0  0.67188975896E+02 -0.44047564435E+01 -0.16580230988E+02  0.69344534182E+02  0.00000000000E+00 0. -1.
         11    1    4    4    0    0  0.89801199644E+01 -0.54556258999E+02 -0.64767501764E+02  0.85157837192E+02  0.00000000000E+00 0.  1.
</event>
<event>
 8    1  0.3654190E-009  0.9959077E+02  0.7561462E-02  0.1281159E+00
         -1   -1    0    0    0  501 -0.00000000000E+00  0.00000000000E+00  0.32655252340E+02  0.32655252340E+02  0.00000000000E+00 0.  1.
          1   -1    0    0  501    0  0.00000000000E+00 -0.00000000000E+00 -0.42246084740E+03  0.42246084740E+03  0.00000000000E+00 0. -1.
         25    2    1    2    0    0 -0.29730033103E+02  0.30075990070E+02 -0.17960773498E+03  0.22292104911E+03  0.12508563316E+03 0.  0.
         23    2    1    2    0    0  0.29730033103E+02 -0.30075990070E+02 -0.21019786008E+03  0.23219505063E+03  0.89123291616E+02 0.  0.
          5    1    3    3  502    0 -0.14766020706E+02 -0.48513113359E+02 -0.56413117993E+02  0.75970190318E+02  0.41800000000E+01 0. -1.
         -5    1    3    3    0  502 -0.14964012396E+02  0.78589103429E+02 -0.12319461699E+03  0.14695085879E+03  0.41800000000E+01 0. -1.
        -11    1    4    4    0    0  0.14877876708E+01  0.14957926963E+02  0.35476760567E+00  0.15035922028E+02  0.00000000000E+00 0.  1.
         11    1    4    4    0    0  0.28242245432E+02 -0.45033917033E+02 -0.21055262769E+03  0.21715912860E+03  0.00000000000E+00 0. -1.
</event>
<event>
 8    1  0.3654190E-009  0.1313798E+03  0.7561462E-02  0.1225423E+00
          2   -1    0    0  501    0  0.00000000000E+00  0.00000000000E+00  0.15234667581E+03  0.15234667581E+03  0.00000000000E+00 0. -1.
         -2   -1    0    0    0  501 -0.00000000000E+00 -0.00000000000E+00 -0.14906570260E+03  0.14906570260E+03  0.00000000000E+00 0.  1.
         25    2    1    2    0    0  0.19597987709E+02 -0.78247087630E+02  0.63224930779E+02  0.16171530610E+03  0.12509100892E+03 0.  0.
         23    2    1    2    0    0 -0.19597987709E+02  0.78247087630E+02 -0.59943957578E+02  0.13969707230E+03  0.97032500305E+02 0.  0.
          5    1    3    3  502    0  0.67866862830E+01 -0.11208462511E+03  0.45867398684E+02  0.12136850069E+03  0.41800000000E+01 0. -1.
         -5    1    3    3    0  502  0.12811301426E+02  0.33837537481E+02  0.17357532096E+02  0.40346805418E+02  0.41800000000E+01 0. -1.
        -11    1    4    4    0    0  0.28273026089E+02  0.52463095267E+02 -0.61045187156E+02  0.85312690991E+02  0.00000000000E+00 0. -1.
         11    1    4    4    0    0 -0.47871013798E+02  0.25783992363E+02  0.11012295780E+01  0.54384381313E+02  0.00000000000E+00 0.  1.
</event>
<event>
 8    1  0.3654190E-009  0.1211366E+03  0.7561462E-02  0.1241234E+00
          1   -1    0    0  501    0  0.00000000000E+00  0.00000000000E+00  0.32365724206E+03  0.32365724206E+03  0.00000000000E+00 0. -1.
         -1   -1    0    0    0  501 -0.00000000000E+00 -0.00000000000E+00 -0.52544137411E+02  0.52544137411E+02  0.00000000000E+00 0.  1.
         25    2    1    2    0    0 -0.69767329516E+02 -0.85047611971E+01  0.12476598264E+03  0.19014199680E+03  0.12509043645E+03 0.  0.
         23    2    1    2    0    0  0.69767329516E+02  0.85047611971E+01  0.14634712201E+03  0.18605938267E+03  0.90888957134E+02 0.  0.
          5    1    3    3  502    0 -0.77563401575E+02  0.34589765465E+02  0.38569997768E+02  0.93368357952E+02  0.41800000000E+01 0.  1.
         -5    1    3    3    0  502  0.77960720580E+01 -0.43094526662E+02  0.86195984869E+02  0.96773638845E+02  0.41800000000E+01 0.  1.
        -11    1    4    4    0    0  0.26269817330E+02  0.47857492567E+02  0.54954533182E+02  0.77462530391E+02  0.00000000000E+00 0. -1.
         11    1    4    4    0    0  0.43497512186E+02 -0.39352731370E+02  0.91392588827E+02  0.10859685228E+03  0.00000000000E+00 0.  1.
</event>
<event>
 8    1  0.3654190E-009  0.2003500E+03  0.7561462E-02  0.1149444E+00
         -2   -1    0    0    0  501 -0.00000000000E+00  0.00000000000E+00  0.91055972453E+02  0.91055972453E+02  0.00000000000E+00 0.  1.
          2   -1    0    0  501    0  0.00000000000E+00 -0.00000000000E+00 -0.47119367927E+03  0.47119367927E+03  0.00000000000E+00 0. -1.
         25    2    1    2    0    0  0.16012036633E+03 -0.66570656816E+02 -0.23578623304E+03  0.31829686138E+03  0.12509020830E+03 0.  0.
         23    2    1    2    0    0 -0.16012036633E+03  0.66570656816E+02 -0.14435147377E+03  0.24395279034E+03  0.92765467015E+02 0.  0.
          5    1    3    3  502    0  0.57087362527E+02 -0.83931674022E+02 -0.15851223635E+03  0.18827398741E+03  0.41800000000E+01 0. -1.
         -5    1    3    3    0  502  0.10303300380E+03  0.17361017207E+02 -0.77273996697E+02  0.13002287397E+03  0.41800000000E+01 0. -1.
        -11    1    4    4    0    0 -0.56173326019E+02  0.70955483584E+02 -0.49430624615E+02  0.10311891125E+03  0.00000000000E+00 0. -1.
         11    1    4    4    0    0 -0.10394704031E+03 -0.43848267685E+01 -0.94920849157E+02  0.14083387909E+03  0.00000000000E+00 0.  1.
</event>
<event>
 8    1  0.3654190E-009  0.1092708E+03  0.7561462E-02  0.1261926E+00
         -2   -1    0    0    0  501 -0.00000000000E+00  0.00000000000E+00  0.98351370935E+01  0.98351370935E+01  0.00000000000E+00 0.  1.
          2   -1    0    0  501    0  0.00000000000E+00 -0.00000000000E+00 -0.14001129225E+04  0.14001129225E+04  0.00000000000E+00 0. -1.
         25    2    1    2    0    0 -0.27724459477E+02  0.23522340878E+01 -0.99081181226E+03  0.99906476414E+03  0.12509267359E+03 0.  0.
         23    2    1    2    0    0  0.27724459477E+02 -0.23522340878E+01 -0.39946597320E+03  0.41088329550E+03  0.92075187313E+02 0.  0.
          5    1    3    3  502    0  0.34327579979E+02 -0.39158112507E+02 -0.47436736878E+03  0.47723538583E+03  0.41800000000E+01 0.  1.
         -5    1    3    3    0  502 -0.62052039456E+02  0.41510346595E+02 -0.51644444348E+03  0.52182937832E+03  0.41800000000E+01 0.  1.
        -11    1    4    4    0    0  0.15221359815E+02  0.42405810704E+02 -0.26010321895E+03  0.26397656541E+03  0.00000000000E+00 0. -1.
         11    1    4    4    0    0  0.12503099662E+02 -0.44758044791E+02 -0.13936275425E+03  0.14690673009E+03  0.00000000000E+00 0.  1.
</event>
<event>
 8    1  0.3654190E-009  0.6357190E+02  0.7561462E-02  0.1383425E+00
          1   -1    0    0  501    0  0.00000000000E+00  0.00000000000E+00  0.20562540087E+03  0.20562540087E+03  0.00000000000E+00 0. -1.
         -1   -1    0    0    0  501 -0.00000000000E+00 -0.00000000000E+00 -0.75879132522E+02  0.75879132522E+02  0.00000000000E+00 0.  1.
         25    2    1    2    0    0 -0.15198577605E+02 -0.26991066745E+02  0.12933367597E+02  0.12951575276E+03  0.12509014257E+03 0.  0.
         23    2    1    2    0    0  0.15198577605E+02  0.26991066745E+02  0.11681290075E+03  0.15198878064E+03  0.92172779129E+02 0.  0.
          5    1    3    3  502    0  0.84703604099E+01 -0.23951391413E+02 -0.53190138913E+02  0.59093818913E+02  0.41800000000E+01 0. -1.
         -5    1    3    3    0  502 -0.23668938015E+02 -0.30396753320E+01  0.66123506511E+02  0.70421933843E+02  0.41800000000E+01 0. -1.
        -11    1    4    4    0    0 -0.21458930742E+02 -0.11223289768E+02  0.53703738201E+00  0.24222641288E+02  0.00000000000E+00 0.  1.
         11    1    4    4    0    0  0.36657508347E+02  0.38214356512E+02  0.11627586337E+03  0.12776613935E+03  0.00000000000E+00 0. -1.
</event>
<event>
 8    1  0.3654190E-009  0.1496790E+03  0.7561462E-02  0.1200868E+00
          1   -1    0    0  501    0  0.00000000000E+00  0.00000000000E+00  0.66568114775E+02  0.66568114775E+02  0.00000000000E+00 0. -1.
         -1   -1    0    0    0  501 -0.00000000000E+00 -0.00000000000E+00 -0.51082678745E+03  0.51082678745E+03  0.00000000000E+00 0.  1.
         25    2    1    2    0    0  0.14377828915E+03  0.34677786221E+02 -0.26186276830E+03  0.32572105869E+03  0.12508938149E+03 0.  0.
         23    2    1    2    0    0 -0.14377828915E+03 -0.34677786221E+02 -0.18239590438E+03  0.25167384354E+03  0.90535696264E+02 0.  0.
          5    1    3    3  502    0  0.13629257371E+02 -0.16220401436E+01  0.13034154756E+02  0.19384252911E+02  0.41800000000E+01 0. -1.
         -5    1    3    3    0  502  0.13014903178E+03  0.36299826364E+02 -0.27489692305E+03  0.30633680577E+03  0.41800000000E+01 0. -1.
        -11    1    4    4    0    0 -0.11069727727E+03 -0.16023147392E+02 -0.67445515529E+02  0.13061212046E+03  0.00000000000E+00 0.  1.
         11    1    4    4    0    0 -0.33081011886E+02 -0.18654638829E+02 -0.11495038885E+03  0.12106172307E+03  0.00000000000E+00 0. -1.
</event>
<event>
 8    1  0.3654190E-009  0.1488352E+03  0.7561462E-02  0.1201912E+00
         -2   -1    0    0    0  501 -0.00000000000E+00  0.00000000000E+00  0.37268626492E+02  0.37268626492E+02  0.00000000000E+00 0.  1.
          2   -1    0    0  501    0  0.00000000000E+00 -0.00000000000E+00 -0.63428092537E+03  0.63428092537E+03  0.00000000000E+00 0. -1.
         25    2    1    2    0    0  0.57998362374E+02 -0.93188215452E+02 -0.31984632249E+03  0.36055059805E+03  0.12508880927E+03 0.  0.
         23    2    1    2    0    0 -0.57998362374E+02  0.93188215452E+02 -0.27716597639E+03  0.31099895381E+03  0.88608787769E+02 0.  0.
          5    1    3    3  502    0  0.60713738111E+02 -0.11824953499E+03 -0.21643298906E+03  0.25402720656E+03  0.41800000000E+01 0.  1.
         -5    1    3    3    0  502 -0.27153757371E+01  0.25061319537E+02 -0.10341333343E+03  0.10652339149E+03  0.41800000000E+01 0.  1.
        -11    1    4    4    0    0  0.21780035964E+02  0.31425327677E+02 -0.10088677352E+03  0.10788912020E+03  0.00000000000E+00 0.  1.
         11    1    4    4    0    0 -0.79778398338E+02  0.61762887775E+02 -0.17627920287E+03  0.20310983362E+03  0.00000000000E+00 0. -1.
</event>
<event>
 8    1  0.3654190E-009  0.5364834E+02  0.7561462E-02  0.1426601E+00
         -1   -1    0    0    0  501 -0.00000000000E+00  0.00000000000E+00  0.82245400261E+02  0.82245400261E+02  0.00000000000E+00 0.  1.
          1   -1    0    0  501    0  0.00000000000E+00 -0.00000000000E+00 -0.27861758654E+03  0.27861758654E+03  0.00000000000E+00 0. -1.
         25    2    1    2    0    0 -0.58119598151E+01  0.13754654010E+02  0.18997636447E+02  0.12740506728E+03  0.12509265204E+03 0.  0.
         23    2    1    2    0    0  0.58119598151E+01 -0.13754654010E+02 -0.21536982273E+03  0.23345791952E+03  0.88856458752E+02 0.  0.
          5    1    3    3  502    0 -0.71481277474E+01  0.91221265127E+01  0.72492017203E+02  0.73531448242E+02  0.41800000000E+01 0.  1.
         -5    1    3    3    0  502  0.13361679323E+01  0.46325274975E+01 -0.53494380756E+02  0.53873619038E+02  0.41800000000E+01 0.  1.
        -11    1    4    4    0    0 -0.13873124025E+02 -0.47524080265E+02 -0.14104471042E+03  0.14948114300E+03  0.00000000000E+00 0.  1.
         11    1    4    4    0    0  0.19685083840E+02  0.33769426255E+02 -0.74325112311E+02  0.83976776524E+02  0.00000000000E+00 0. -1.
</event>
<event>
 8    1  0.3654190E-009  0.7889849E+02  0.7561462E-02  0.1332207E+00
         -1   -1    0    0    0  501 -0.00000000000E+00  0.00000000000E+00  0.35009386291E+02  0.35009386291E+02  0.00000000000E+00 0.  1.
          1   -1    0    0  501    0  0.00000000000E+00 -0.00000000000E+00 -0.40085467361E+03  0.40085467361E+03  0.00000000000E+00 0. -1.
         25    2    1    2    0    0  0.24084026901E+02 -0.40218774533E+02 -0.21901409302E+03  0.25653797363E+03  0.12508784432E+03 0.  0.
         23    2    1    2    0    0 -0.24084026901E+02  0.40218774533E+02 -0.14683119430E+03  0.17932608627E+03  0.91656180481E+02 0.  0.
          5    1    3    3  502    0  0.52043827498E+02 -0.50740778308E+02 -0.21388891869E+03  0.22594054196E+03  0.41800000000E+01 0. -1.
         -5    1    3    3    0  502 -0.27959800597E+02  0.10522003775E+02 -0.51251743286E+01  0.30597431669E+02  0.41800000000E+01 0. -1.
        -11    1    4    4    0    0 -0.48650477368E+01  0.34404829410E+02 -0.15410218970E+03  0.15797102851E+03  0.00000000000E+00 0. -1.
         11    1    4    4    0    0 -0.19218979165E+02  0.58139451234E+01  0.72709954004E+01  0.21355057765E+02  0.00000000000E+00 0.  1.
</event>
<event>
 8    1  0.3654190E-009  0.1087106E+03  0.7561462E-02  0.1262976E+00
         -4   -1    0    0    0  501 -0.00000000000E+00  0.00000000000E+00  0.24807899568E+03  0.24807899568E+03  0.00000000000E+00 0.  1.
          4   -1    0    0  501    0  0.00000000000E+00 -0.00000000000E+00 -0.52523780696E+02  0.52523780696E+02  0.00000000000E+00 0. -1.
         25    2    1    2    0    0 -0.22022525545E+02  0.23251605800E+02  0.90972675590E+02  0.15795355360E+03  0.12509064149E+03 0.  0.
         23    2    1    2    0    0  0.22022525545E+02 -0.23251605800E+02  0.10458253940E+03  0.14264922278E+03  0.91573273440E+02 0.  0.
          5    1    3    3  502    0  0.19544473048E+02 -0.40371325601E+02  0.61723854474E+02  0.76414245849E+02  0.41800000000E+01 0. -1.
         -5    1    3    3    0  502 -0.41566998592E+02  0.63622931402E+02  0.29248821117E+02  0.81539307753E+02  0.41800000000E+01 0. -1.
        -11    1    4    4    0    0 -0.69840799768E+01  0.32592574968E+02  0.28025724233E+02  0.43548760429E+02  0.00000000000E+00 0.  1.
         11    1    4    4    0    0  0.29006605521E+02 -0.55844180768E+02  0.76556815164E+02  0.99100462348E+02  0.00000000000E+00 0. -1.
</event>
<event>
 8    1  0.3654190E-009  0.9909147E+02  0.7561462E-02  0.1282218E+00
          2   -1    0    0  501    0  0.00000000000E+00  0.00000000000E+00  0.36944706451E+02  0.36944706451E+02  0.00000000000E+00 0.  1.
         -2   -1    0    0    0  501 -0.00000000000E+00 -0.00000000000E+00 -0.35446533316E+03  0.35446533316E+03  0.00000000000E+00 0. -1.
         25    2    1    2    0    0 -0.27994896756E+02  0.74320552988E+01 -0.14799128488E+03  0.19592908969E+03  0.12509131902E+03 0.  0.
         23    2    1    2    0    0  0.27994896756E+02 -0.74320552988E+01 -0.16952934183E+03  0.19548094992E+03  0.92917459890E+02 0.  0.
          5    1    3    3  502    0 -0.61433180454E+02 -0.16261155226E+02 -0.28941905272E+02  0.69954035700E+02  0.41800000000E+01 0. -1.
         -5    1    3    3    0  502  0.33438283698E+02  0.23693210525E+02 -0.11904937961E+03  0.12597505399E+03  0.41800000000E+01 0. -1.
        -11    1    4    4    0    0 -0.31720596125E+02 -0.10756099589E+02 -0.89576162474E+02  0.95633565135E+02  0.00000000000E+00 0. -1.
         11    1    4    4    0    0  0.59715492881E+02  0.33240442897E+01 -0.79953179354E+02  0.99847384789E+02  0.00000000000E+00 0.  1.
</event>
<event>
 8    1  0.3654190E-009  0.2149714E+03  0.7561462E-02  0.1137689E+00
          1   -1    0    0  501    0  0.00000000000E+00  0.00000000000E+00  0.55126884596E+02  0.55126884596E+02  0.00000000000E+00 0. -1.
         -1   -1    0    0    0  501 -0.00000000000E+00 -0.00000000000E+00 -0.93380595793E+03  0.93380595793E+03  0.00000000000E+00 0.  1.
         25    2    1    2    0    0  0.61179031107E+02 -0.18388089383E+03 -0.54986121235E+03  0.59628083956E+03  0.12509368416E+03 0.  0.
         23    2    1    2    0    0 -0.61179031107E+02  0.18388089383E+03 -0.32881786099E+03  0.39265200297E+03  0.92191934395E+02 0.  0.
          5    1    3    3  502    0  0.58577988781E+02 -0.26328498975E+02 -0.24199826037E+03  0.25041006579E+03  0.41800000000E+01 0. -1.
         -5    1    3    3    0  502  0.26010423260E+01 -0.15755239486E+03 -0.30786295198E+03  0.34587077377E+03  0.41800000000E+01 0. -1.
        -11    1    4    4    0    0 -0.28154939552E+02  0.83825254339E+01 -0.88496867345E+02  0.93245176196E+02  0.00000000000E+00 0.  1.
         11    1    4    4    0    0 -0.33024091555E+02  0.17549836840E+03 -0.24032099365E+03  0.29940682678E+03  0.00000000000E+00 0. -1.
</event>
<event>
 8    1  0.3654190E-009  0.2326249E+03  0.7561462E-02  0.1124806E+00
         -2   -1    0    0    0  501 -0.00000000000E+00  0.00000000000E+00  0.33725212762E+03  0.33725212762E+03  0.00000000000E+00 0.  1.
          2   -1    0    0  501    0  0.00000000000E+00 -0.00000000000E+00 -0.22225231106E+03  0.22225231106E+03  0.00000000000E+00 0. -1.
         25    2    1    2    0    0  0.19740895167E+03  0.88056433732E+02  0.18687696775E+03  0.31192113422E+03  0.12509022014E+03 0.  0.
         23    2    1    2    0    0 -0.19740895167E+03 -0.88056433732E+02 -0.71877151187E+02  0.24758330446E+03  0.96989370871E+02 0.  0.
          5    1    3    3  502    0 -0.10573678047E+02 -0.77655283162E+01 -0.33750871836E+01  0.14176378627E+02  0.41800000000E+01 0.  1.
         -5    1    3    3    0  502  0.20798262972E+03  0.95821962048E+02  0.19025205493E+03  0.29774475559E+03  0.41800000000E+01 0.  1.
        -11    1    4    4    0    0 -0.15274237427E+03 -0.42270111253E+02 -0.88465657296E+02  0.18150252815E+03  0.00000000000E+00 0.  1.
         11    1    4    4    0    0 -0.44666577400E+02 -0.45786322479E+02  0.16588506108E+02  0.66080776310E+02  0.00000000000E+00 0. -1.
</event>
<event>
 8    1  0.3654190E-009  0.9043498E+02  0.7561462E-02  0.1301802E+00
         -1   -1    0    0    0  501 -0.00000000000E+00  0.00000000000E+00  0.37431653404E+02  0.37431653404E+02  0.00000000000E+00 0.  1.
          1   -1    0    0  501    0  0.00000000000E+00 -0.00000000000E+00 -0.46510997424E+03  0.46510997424E+03  0.00000000000E+00 0. -1.
         25    2    1    2    0    0  0.43604547419E+02 -0.22465389431E+02 -0.34401845264E+03  0.36932577255E+03  0.12508709061E+03 0.  0.
         23    2    1    2    0    0 -0.43604547419E+02  0.22465389431E+02 -0.83659868194E+02  0.13321585509E+03  0.91331485389E+02 0.  0.
          5    1    3    3  502    0  0.61795785857E+02 -0.46078606475E+02 -0.11606291724E+03  0.13939164352E+03  0.41800000000E+01 0. -1.
         -5    1    3    3    0  502 -0.18191238438E+02  0.23613217045E+02 -0.22795553540E+03  0.22993412903E+03  0.41800000000E+01 0. -1.
        -11    1    4    4    0    0 -0.49854938204E+02  0.34075455448E+02 -0.13565978757E+02  0.61892546457E+02  0.00000000000E+00 0.  1.
         11    1    4    4    0    0  0.62503907849E+01 -0.11610066018E+02 -0.70093889437E+02  0.71323308633E+02  0.00000000000E+00 0. -1.
</event>
<event>
 8    1  0.3654190E-009  0.3735871E+03  0.7561462E-02  0.1053330E+00
         -1   -1    0    0    0  501 -0.00000000000E+00  0.00000000000E+00  0.14304702790E+03  0.14304702790E+03  0.00000000000E+00 0.  1.
          1   -1    0    0  501    0  0.00000000000E+00 -0.00000000000E+00 -0.13356942353E+04  0.13356942353E+04  0.00000000000E+00 0. -1.
         25    2    1    2    0    0  0.28123574653E+03 -0.23629343701E+03 -0.24664645128E+03  0.45979373011E+03  0.12509064240E+03 0.  0.
         23    2    1    2    0    0 -0.28123574653E+03  0.23629343701E+03 -0.94600075617E+03  0.10189475331E+04  0.91697934012E+02 0.  0.
          5    1    3    3  502    0  0.28230183283E+03 -0.20680223551E+03 -0.24957538919E+03  0.42984513109E+03  0.41800000000E+01 0.  1.
         -5    1    3    3    0  502 -0.10660863034E+01 -0.29491201501E+02  0.29289379052E+01  0.29948599020E+02  0.41800000000E+01 0.  1.
        -11    1    4    4    0    0 -0.15024740425E+03  0.12144025017E+03 -0.61885436024E+03  0.64830759369E+03  0.00000000000E+00 0.  1.
         11    1    4    4    0    0 -0.13098834228E+03  0.11485318685E+03 -0.32714639593E+03  0.37063993944E+03  0.00000000000E+00 0. -1.
</event>
<event>
 8    1  0.3654190E-009  0.1610476E+03  0.7561462E-02  0.1187519E+00
          2   -1    0    0  501    0  0.00000000000E+00  0.00000000000E+00  0.28183812034E+03  0.28183812034E+03  0.00000000000E+00 0. -1.
         -2   -1    0    0    0  501 -0.00000000000E+00 -0.00000000000E+00 -0.15929421617E+03  0.15929421617E+03  0.00000000000E+00 0.  1.
         25    2    1    2    0    0  0.14110597071E+03 -0.44083050707E+02 -0.45633997665E+02  0.19896984449E+03  0.12510926003E+03 0.  0.
         23    2    1    2    0    0 -0.14110597071E+03  0.44083050707E+02  0.16817790183E+03  0.24216249201E+03  0.92220689343E+02 0.  0.
          5    1    3    3  502    0 -0.12313001104E+02 -0.14282296743E+01 -0.37223165019E+02  0.39454863455E+02  0.41800000000E+01 0. -1.
         -5    1    3    3    0  502  0.15341897182E+03 -0.42654821033E+02 -0.84108326464E+01  0.15951498104E+03  0.41800000000E+01 0. -1.
        -11    1    4    4    0    0 -0.73315054378E+02  0.10485633499E+02  0.21496782933E+02  0.77117814964E+02  0.00000000000E+00 0.  1.
         11    1    4    4    0    0 -0.67790916334E+02  0.33597417208E+02  0.14668111890E+03  0.16504467705E+03  0.00000000000E+00 0. -1.
</event>
<event>
 8    1  0.3654190E-009  0.1066876E+03  0.7561462E-02  0.1266830E+00
         -2   -1    0    0    0  501 -0.00000000000E+00  0.00000000000E+00  0.61540332665E+02  0.61540332665E+02  0.00000000000E+00 0.  1.
          2   -1    0    0  501    0  0.00000000000E+00 -0.00000000000E+00 -0.73058866840E+03  0.73058866840E+03  0.00000000000E+00 0. -1.
         25    2    1    2    0    0 -0.65266817128E+02  0.26165677059E+02 -0.66144155251E+03  0.67683128048E+03  0.12510497503E+03 0.  0.
         23    2    1    2    0    0  0.65266817128E+02 -0.26165677059E+02 -0.76067832239E+01  0.11529772058E+03  0.91056582113E+02 0.  0.
          5    1    3    3  502    0 -0.73027868864E+02  0.39464951023E+02 -0.65393937248E+03  0.65920006620E+03  0.41800000000E+01 0.  1.
         -5    1    3    3    0  502  0.77610517358E+01 -0.13299273965E+02 -0.75021800272E+01  0.17631214286E+02  0.41800000000E+01 0.  1.
        -11    1    4    4    0    0  0.35966720842E+02 -0.59747555975E+02 -0.11005997163E+02  0.70601044090E+02  0.00000000000E+00 0. -1.
         11    1    4    4    0    0  0.29300096285E+02  0.33581878916E+02  0.33992139388E+01  0.44696676490E+02  0.00000000000E+00 0.  1.
</event>
<event>
 8    1  0.3654190E-009  0.1390169E+03  0.7561462E-02  0.1214658E+00
          1   -1    0    0  501    0  0.00000000000E+00  0.00000000000E+00  0.26025701919E+04  0.26025701919E+04  0.00000000000E+00 0. -1.
         -1   -1    0    0    0  501 -0.00000000000E+00 -0.00000000000E+00 -0.16790998568E+02  0.16790998568E+02  0.00000000000E+00 0.  1.
         25    2    1    2    0    0 -0.50997305908E+02  0.85881577156E+02  0.22771147970E+04  0.22827341974E+04  0.12508895475E+03 0.  0.
         23    2    1    2    0    0  0.50997305908E+02 -0.85881577156E+02  0.30866439632E+03  0.33662699309E+03  0.89820111426E+02 0.  0.
          5    1    3    3  502    0 -0.39014021782E+02 -0.19943504330E+02  0.10759559375E+04  0.10768558348E+04  0.41800000000E+01 0. -1.
         -5    1    3    3    0  502 -0.11983284126E+02  0.10582508149E+03  0.12011588596E+04  0.12058783625E+04  0.41800000000E+01 0. -1.
        -11    1    4    4    0    0  0.63111011253E+02 -0.29316317687E+02  0.11410930124E+03  0.13365395188E+03  0.00000000000E+00 0.  1.
         11    1    4    4    0    0 -0.12113705345E+02 -0.56565259469E+02  0.19455509508E+03  0.20297304121E+03  0.00000000000E+00 0. -1.
</event>
<event>
 8    1  0.3654190E-009  0.1073153E+03  0.7561462E-02  0.1265624E+00
          4   -1    0    0  501    0  0.00000000000E+00  0.00000000000E+00  0.78255814424E+03  0.78255814424E+03  0.00000000000E+00 0. -1.
         -4   -1    0    0    0  501 -0.00000000000E+00 -0.00000000000E+00 -0.15930401341E+02  0.15930401341E+02  0.00000000000E+00 0.  1.
         25    2    1    2    0    0  0.16341438871E+02  0.17387256563E+02  0.37871633131E+03  0.39955385072E+03  0.12509140942E+03 0.  0.
         23    2    1    2    0    0 -0.16341438871E+02 -0.17387256563E+02  0.38791141158E+03  0.39893469485E+03  0.90023709139E+02 0.  0.
          5    1    3    3  502    0  0.68760831385E+02 -0.66302173438E+01  0.19194713844E+03  0.20404212327E+03  0.41800000000E+01 0.  1.
         -5    1    3    3    0  502 -0.52419392514E+02  0.24017473907E+02  0.18676919288E+03  0.19551172745E+03  0.41800000000E+01 0.  1.
        -11    1    4    4    0    0  0.20703129655E+01  0.33465915428E+02  0.87711484253E+02  0.93901853875E+02  0.00000000000E+00 0.  1.
         11    1    4    4    0    0 -0.18411751837E+02 -0.50853171992E+02  0.30019992733E+03  0.30503284098E+03  0.00000000000E+00 0. -1.
</event>
<event>
 8    1  0.3654190E-009  0.1322660E+03  0.7561462E-02  0.1224132E+00
         -1   -1    0    0    0  501 -0.00000000000E+00  0.00000000000E+00  0.57204333433E+02  0.57204333433E+02  0.00000000000E+00 0.  1.
          1   -1    0    0  501    0  0.00000000000E+00 -0.00000000000E+00 -0.42490007992E+03  0.42490007992E+03  0.00000000000E+00 0. -1.
         25    2    1    2    0    0  0.20098505194E+02 -0.97975053897E+02 -0.27623078473E+03  0.31930371580E+03  0.12509338670E+03 0.  0.
         23    2    1    2    0    0 -0.20098505194E+02  0.97975053897E+02 -0.91464961765E+02  0.16280069756E+03  0.90195159502E+02 0.  0.
          5    1    3    3  502    0 -0.38899381092E+02 -0.19594801589E+02 -0.26971307482E+02  0.51400796939E+02  0.41800000000E+01 0.  1.
         -5    1    3    3    0  502  0.58997886286E+02 -0.78380252308E+02 -0.24925947724E+03  0.26790291886E+03  0.41800000000E+01 0.  1.
        -11    1    4    4    0    0 -0.45332040216E+02  0.78732501260E+02 -0.33711694545E+02  0.96903451817E+02  0.00000000000E+00 0.  1.
         11    1    4    4    0    0  0.25233535022E+02  0.19242552636E+02 -0.57753267220E+02  0.65897245741E+02  0.00000000000E+00 0. -1.
</event>
<event>
 8    1  0.3654190E-009  0.8388308E+02  0.7561462E-02  0.1318380E+00
         -1   -1    0    0    0  501 -0.00000000000E+00  0.00000000000E+00  0.22559984213E+03  0.22559984213E+03  0.00000000000E+00 0.  1.
          1   -1    0    0  501    0  0.00000000000E+00 -0.00000000000E+00 -0.71974937001E+02  0.71974937001E+02  0.00000000000E+00 0. -1.
         25    2    1    2    0    0 -0.32816766620E+01 -0.37021122709E+02  0.14997941663E+03  0.19880493202E+03  0.12509293606E+03 0.  0.
         23    2    1    2    0    0  0.32816766620E+01  0.37021122709E+02  0.36454885001E+01  0.98769847117E+02  0.91437739390E+02 0.  0.
          5    1    3    3  502    0 -0.49096310131E+02 -0.44262874202E+02  0.13416081236E+03  0.14962033844E+03  0.41800000000E+01 0. -1.
         -5    1    3    3    0  502  0.45814633469E+02  0.72417514926E+01  0.15818604272E+02  0.49184593580E+02  0.41800000000E+01 0. -1.
        -11    1    4    4    0    0 -0.16172168907E+02  0.30356555686E+02 -0.38651045739E+02  0.51739374339E+02  0.00000000000E+00 0. -1.
         11    1    4    4    0    0  0.19453845569E+02  0.66645670231E+01  0.42296534240E+02  0.47030472778E+02  0.00000000000E+00 0.  1.
</event>
<event>
 8    1  0.3654190E-009  0.8816809E+02  0.7561462E-02  0.1307350E+00
          2   -1    0    0  501    0  0.00000000000E+00  0.00000000000E+00  0.62644361455E+02  0.62644361455E+02  0.00000000000E+00 0. -1.
         -2   -1    0    0    0  501 -0.00000000000E+00 -0.00000000000E+00 -0.21934631177E+03  0.21934631177E+03  0.00000000000E+00 0.  1.
         25    2    1    2    0    0  0.43739008672E+02  0.45576944664E+01 -0.79401437039E+02  0.15455028993E+03  0.12508928993E+03 0.  0.
         23    2    1    2    0    0 -0.43739008672E+02 -0.45576944664E+01 -0.77300513280E+02  0.12744038330E+03  0.91278740586E+02 0.  0.
          5    1    3    3  502    0 -0.36866393311E+02 -0.24829936093E+02 -0.40411759403E+02  0.60218264506E+02  0.41800000000E+01 0. -1.
         -5    1    3    3    0  502  0.80605401983E+02  0.29387630559E+02 -0.38989677637E+02  0.94332025426E+02  0.41800000000E+01 0. -1.
        -11    1    4    4    0    0 -0.84103871041E+01 -0.61671510705E+01  0.20740987129E+02  0.23215445519E+02  0.00000000000E+00 0. -1.
         11    1    4    4    0    0 -0.35328621568E+02  0.16094566041E+01 -0.98041500409E+02  0.10422493778E+03  0.00000000000E+00 0.  1.
</event>
<event>
 8    1  0.3654190E-009  0.1354447E+03  0.7561462E-02  0.1219593E+00
         -2   -1    0    0    0  501 -0.00000000000E+00  0.00000000000E+00  0.23852964482E+02  0.23852964482E+02  0.00000000000E+00 0.  1.
          2   -1    0    0  501    0  0.00000000000E+00 -0.00000000000E+00 -0.80040797319E+03  0.80040797319E+03  0.00000000000E+00 0. -1.
         25    2    1    2    0    0 -0.72238266542E+02  0.39498328989E+02 -0.43194017573E+03  0.45716661740E+03  0.12510202043E+03 0.  0.
         23    2    1    2    0    0  0.72238266542E+02 -0.39498328989E+02 -0.34461483298E+03  0.36709432027E+03  0.96022766662E+02 0.  0.
          5    1    3    3  502    0 -0.33020148580E+01 -0.39299141122E+02 -0.17980283461E+03  0.18412457068E+03  0.41800000000E+01 0.  1.
         -5    1    3    3    0  502 -0.68936251684E+02  0.78797470111E+02 -0.25213734112E+03  0.27304204672E+03  0.41800000000E+01 0.  1.
        -11    1    4    4    0    0  0.28664629986E+01 -0.55241397553E+02 -0.15505506682E+03  0.16462655423E+03  0.00000000000E+00 0. -1.
         11    1    4    4    0    0  0.69371803543E+02  0.15743068564E+02 -0.18955976616E+03  0.20246776603E+03  0.00000000000E+00 0.  1.
</event>
<event>
 8    1  0.3654190E-009  0.1065324E+03  0.7561462E-02  0.1267129E+00
          2   -1    0    0  501    0  0.00000000000E+00  0.00000000000E+00  0.60319372591E+03  0.60319372591E+03  0.00000000000E+00 0. -1.
         -2   -1    0    0    0  501 -0.00000000000E+00 -0.00000000000E+00 -0.27944551624E+02  0.27944551624E+02  0.00000000000E+00 0.  1.
         25    2    1    2    0    0  0.34177804372E+02 -0.20506064846E+02  0.47709536594E+03  0.49482899298E+03  0.12508846104E+03 0.  0.
         23    2    1    2    0    0 -0.34177804372E+02  0.20506064846E+02  0.98153808344E+02  0.13630928455E+03  0.85775462432E+02 0.  0.
          5    1    3    3  502    0  0.24570342583E+02 -0.71201637375E+02  0.22002038620E+03  0.23259367499E+03  0.41800000000E+01 0.  1.
         -5    1    3    3    0  502  0.96074617888E+01  0.50695572529E+02  0.25707497974E+03  0.26223531799E+03  0.41800000000E+01 0.  1.
        -11    1    4    4    0    0 -0.13046468102E+02 -0.29127342293E+02  0.10898543348E+02  0.33725222699E+02  0.00000000000E+00 0.  1.
         11    1    4    4    0    0 -0.21131336269E+02  0.49633407139E+02  0.87255264996E+02  0.10258406185E+03  0.00000000000E+00 0. -1.
</event>
<event>
 8    1  0.3654190E-009  0.2277651E+03  0.7561462E-02  0.1128223E+00
          2   -1    0    0  501    0  0.00000000000E+00  0.00000000000E+00  0.52824981221E+03  0.52824981221E+03  0.00000000000E+00 0. -1.
         -2   -1    0    0    0  501 -0.00000000000E+00 -0.00000000000E+00 -0.14133728699E+03  0.14133728699E+03  0.00000000000E+00 0.  1.
         25    2    1    2    0    0  0.17342138500E+03 -0.12675672247E+03  0.39700622235E+02  0.25172931803E+03  0.12509702908E+03 0.  0.
         23    2    1    2    0    0 -0.17342138500E+03  0.12675672247E+03  0.34721190298E+03  0.41785778116E+03  0.88920055319E+02 0.  0.
          5    1    3    3  502    0  0.22239920065E+02 -0.53261929170E+02  0.58795557789E+02  0.82497497896E+02  0.41800000000E+01 0.  1.
         -5    1    3    3    0  502  0.15118146494E+03 -0.73494793301E+02 -0.19094935554E+02  0.16923182014E+03  0.41800000000E+01 0.  1.
        -11    1    4    4    0    0 -0.46264129398E+02  0.83019785777E+02  0.11170390789E+03  0.14666430219E+03  0.00000000000E+00 0.  1.
         11    1    4    4    0    0 -0.12715725560E+03  0.43736936694E+02  0.23550799509E+03  0.27119347897E+03  0.00000000000E+00 0. -1.
</event>
<event>
 8    1  0.3654190E-009  0.9080459E+02  0.7561462E-02  0.1300915E+00
         -1   -1    0    0    0  501 -0.00000000000E+00  0.00000000000E+00  0.39151014047E+03  0.39151014047E+03  0.00000000000E+00 0.  1.
          1   -1    0    0  501    0  0.00000000000E+00 -0.00000000000E+00 -0.36156600190E+02  0.36156600190E+02  0.00000000000E+00 0. -1.
         25    2    1    2    0    0  0.46658166129E+02  0.12009226154E+02  0.21458440454E+03  0.25300763531E+03  0.12508073741E+03 0.  0.
         23    2    1    2    0    0 -0.46658166129E+02 -0.12009226154E+02  0.14076913574E+03  0.17465910535E+03  0.91480312235E+02 0.  0.
          5    1    3    3  502    0 -0.41398037743E+02  0.12876394566E+01  0.43266654949E+02  0.60041080727E+02  0.41800000000E+01 0. -1.
         -5    1    3    3    0  502  0.88056203871E+02  0.10721586698E+02  0.17131774959E+03  0.19296655458E+03  0.41800000000E+01 0. -1.
        -11    1    4    4    0    0 -0.30598734959E+02  0.83748345505E+00  0.14929173360E+03  0.15239752518E+03  0.00000000000E+00 0.  1.
         11    1    4    4    0    0 -0.16059431170E+02 -0.12846709609E+02 -0.85225978651E+01  0.22261580170E+02  0.00000000000E+00 0. -1.
</event>
<event>
 8    1  0.3654190E-009  0.9424843E+02  0.7561462E-02  0.1292878E+00
          2   -1    0    0  501    0  0.00000000000E+00  0.00000000000E+00  0.21677797704E+03  0.21677797704E+03  0.00000000000E+00 0.  1.
         -2   -1    0    0    0  501 -0.00000000000E+00 -0.00000000000E+00 -0.10557090757E+03  0.10557090757E+03  0.00000000000E+00 0. -1.
         25    2    1    2    0    0 -0.37706003213E+02  0.44757927666E+02  0.15535916503E+03  0.20786701101E+03  0.12508880581E+03 0.  0.
         23    2    1    2    0    0  0.37706003213E+02 -0.44757927666E+02 -0.44152095566E+02  0.11448187360E+03  0.87929955493E+02 0.  0.
          5    1    3    3  502    0 -0.24117498299E+02 -0.99372179610E+01  0.14862504675E+03  0.15095455921E+03  0.41800000000E+01 0. -1.
         -5    1    3    3    0  502 -0.13588504915E+02  0.54695145627E+02  0.67341182867E+01  0.56912451801E+02  0.41800000000E+01 0. -1.
        -11    1    4    4    0    0 -0.15456702031E+02 -0.49821047013E+02 -0.23719042959E+02  0.57303048453E+02  0.00000000000E+00 0.  1.
         11    1    4    4    0    0  0.53162705244E+02  0.50631193475E+01 -0.20433052607E+02  0.57178825147E+02  0.00000000000E+00 0. -1.
</event>
<event>
 8    1  0.3654190E-009  0.7568425E+02  0.7561462E-02  0.1341765E+00
         -2   -1    0    0    0  501 -0.00000000000E+00  0.00000000000E+00  0.51338147148E+02  0.51338147148E+02  0.00000000000E+00 0.  1.
          2   -1    0    0  501    0  0.00000000000E+00 -0.00000000000E+00 -0.42709572136E+03  0.42709572136E+03  0.00000000000E+00 0. -1.
         25    2    1    2    0    0  0.38924014255E+02  0.38800645170E+02 -0.33733449175E+03  0.36395418335E+03  0.12509004478E+03 0.  0.
         23    2    1    2    0    0 -0.38924014255E+02 -0.38800645170E+02 -0.38423082468E+02  0.11447968516E+03  0.92783059322E+02 0.  0.
          5    1    3    3  502    0  0.10180702103E+02 -0.59590836038E+01 -0.29649960983E+03  0.29676362378E+03  0.41800000000E+01 0.  1.
         -5    1    3    3    0  502  0.28743312152E+02  0.44759728774E+02 -0.40834881919E+02  0.67190559566E+02  0.41800000000E+01 0.  1.
        -11    1    4    4    0    0 -0.47888276707E+02 -0.51258213213E+02  0.30948141054E+01  0.70215876710E+02  0.00000000000E+00 0.  1.
         11    1    4    4    0    0  0.89642624516E+01  0.12457568043E+02 -0.41517896573E+02  0.44263808452E+02  0.00000000000E+00 0. -1.
</event>
<event>
 8    1  0.3654190E-009  0.9864644E+02  0.7561462E-02  0.1283168E+00
         -2   -1    0    0    0  501 -0.00000000000E+00  0.00000000000E+00  0.86578951227E+03  0.86578951227E+03  0.00000000000E+00 0.  1.
          2   -1    0    0  501    0  0.00000000000E+00 -0.00000000000E+00 -0.13595384396E+02  0.13595384396E+02  0.00000000000E+00 0. -1.
         25    2    1    2    0    0  0.14015710013E+02 -0.18664657594E+02  0.58186717598E+03  0.59561982868E+03  0.12509500498E+03 0.  0.
         23    2    1    2    0    0 -0.14015710013E+02  0.18664657594E+02  0.27032695189E+03  0.28376506798E+03  0.83073120290E+02 0.  0.
          5    1    3    3  502    0 -0.42734826397E+02 -0.33065467526E+02  0.41914907269E+03  0.42263815264E+03  0.41800000000E+01 0. -1.
         -5    1    3    3    0  502  0.56750536409E+02  0.14400809932E+02  0.16271810328E+03  0.17298167604E+03  0.41800000000E+01 0. -1.
        -11    1    4    4    0    0 -0.40224409693E+02  0.35166224424E+02  0.19808569013E+03  0.20516482913E+03  0.00000000000E+00 0.  1.
         11    1    4    4    0    0  0.26208699680E+02 -0.16501566831E+02  0.72241261764E+02  0.78600238854E+02  0.00000000000E+00 0. -1.
</event>
<event>
 8    1  0.3654190E-009  0.1837385E+03  0.7561462E-02  0.1164233E+00
         -1   -1    0    0    0  501 -0.00000000000E+00  0.00000000000E+00  0.44685910965E+03  0.44685910965E+03  0.00000000000E+00 0.  1.
          1   -1    0    0  501    0  0.00000000000E+00 -0.00000000000E+00 -0.11628730384E+03  0.11628730384E+03  0.00000000000E+00 0. -1.
         25    2    1    2    0    0 -0.11298415628E+03  0.13462661156E+03  0.28993087638E+03  0.36138294417E+03  0.12509186684E+03 0.  0.
         23    2    1    2    0    0  0.11298415628E+03 -0.13462661156E+03  0.40640929430E+02  0.20176346932E+03  0.90371833530E+02 0.  0.
          5    1    3    3  502    0 -0.79284189787E+02  0.74531353479E+02  0.66645003442E+02  0.12767119599E+03  0.41800000000E+01 0.  1.
         -5    1    3    3    0  502 -0.33699966491E+02  0.60095258084E+02  0.22328587294E+03  0.23371174818E+03  0.41800000000E+01 0.  1.
        -11    1    4    4    0    0  0.38538047587E+02 -0.10054590763E+03  0.51160292243E+02  0.11921424477E+03  0.00000000000E+00 0.  1.
         11    1    4    4    0    0  0.74446108692E+02 -0.34080703930E+02 -0.10519362813E+02  0.82549224549E+02  0.00000000000E+00 0. -1.
</event>
<event>
 8    1  0.3654190E-009  0.1021142E+03  0.7561462E-02  0.1275912E+00
         -2   -1    0    0    0  501 -0.00000000000E+00  0.00000000000E+00  0.44790079790E+03  0.44790079790E+03  0.00000000000E+00 0.  1.
          2   -1    0    0  501    0  0.00000000000E+00 -0.00000000000E+00 -0.27808117091E+02  0.27808117091E+02  0.00000000000E+00 0. -1.
         25    2    1    2    0    0  0.10661529866E+01 -0.25003047408E+02  0.24267864906E+03  0.27416490399E+03  0.12508868377E+03 0.  0.
         23    2    1    2    0    0 -0.10661529866E+01  0.25003047408E+02  0.17741403175E+03  0.20154401100E+03  0.92292798464E+02 0.  0.
          5    1    3    3  502    0  0.11921109952E+01  0.44406561302E+02  0.16014063848E+03  0.16624036907E+03  0.41800000000E+01 0. -1.
         -5    1    3    3    0  502 -0.12595800861E+00 -0.69409608710E+02  0.82538010574E+02  0.10792453491E+03  0.41800000000E+01 0. -1.
        -11    1    4    4    0    0  0.34957029739E+02  0.38134313505E+02  0.13390983719E+03  0.14355509148E+03  0.00000000000E+00 0.  1.
         11    1    4    4    0    0 -0.36023182725E+02 -0.13131266098E+02  0.43504194564E+02  0.57988919525E+02  0.00000000000E+00 0. -1.
</event>
<event>
 8    1  0.3654190E-009  0.1521104E+03  0.7561462E-02  0.1197904E+00
          1   -1    0    0  501    0  0.00000000000E+00  0.00000000000E+00  0.22915852934E+03  0.22915852934E+03  0.00000000000E+00 0. -1.
         -1   -1    0    0    0  501 -0.00000000000E+00 -0.00000000000E+00 -0.11831031867E+03  0.11831031867E+03  0.00000000000E+00 0.  1.
         25    2    1    2    0    0  0.12176438491E+03  0.19167390283E+02  0.59217152997E+02  0.18533699609E+03  0.12509666914E+03 0.  0.
         23    2    1    2    0    0 -0.12176438491E+03 -0.19167390283E+02  0.51631057672E+02  0.16213185192E+03  0.91798785449E+02 0.  0.
          5    1    3    3  502    0 -0.19810455242E+02  0.19579413861E+02  0.29168936778E+02  0.40547587558E+02  0.41800000000E+01 0.  1.
         -5    1    3    3    0  502  0.14157484015E+03 -0.41202357758E+00  0.30048216219E+02  0.14478940854E+03  0.41800000000E+01 0.  1.
        -11    1    4    4    0    0 -0.87652670607E+02 -0.37906837380E+02  0.70671413137E+02  0.11880390406E+03  0.00000000000E+00 0. -1.
         11    1    4    4    0    0 -0.34111714299E+02  0.18739447097E+02 -0.19040355466E+02  0.43327947865E+02  0.00000000000E+00 0.  1.
</event>
<event>
 8    1  0.3654190E-009  0.1202579E+03  0.7561462E-02  0.1242672E+00
         -2   -1    0    0    0  501 -0.00000000000E+00  0.00000000000E+00  0.35060432829E+03  0.35060432829E+03  0.00000000000E+00 0.  1.
          2   -1    0    0  501    0  0.00000000000E+00 -0.00000000000E+00 -0.42116087818E+02  0.42116087818E+02  0.00000000000E+00 0. -1.
         25    2    1    2    0    0 -0.39619777078E+02 -0.33289744713E+02  0.15221329775E+03  0.20370275136E+03  0.12509192244E+03 0.  0.
         23    2    1    2    0    0  0.39619777078E+02  0.33289744713E+02  0.15627494272E+03  0.18901766475E+03  0.92886414656E+02 0.  0.
          5    1    3    3  502    0 -0.75745054839E+02 -0.53636218919E+02  0.11494731366E+03  0.14779889929E+03  0.41800000000E+01 0. -1.
         -5    1    3    3    0  502  0.36125277761E+02  0.20346474206E+02  0.37265984093E+02  0.55903852070E+02  0.41800000000E+01 0. -1.
        -11    1    4    4    0    0 -0.10193958140E+02  0.51802140603E+02  0.85978706698E+02  0.10089458142E+03  0.00000000000E+00 0.  1.
         11    1    4    4    0    0  0.49813735218E+02 -0.18512395890E+02  0.70296236024E+02  0.88123083338E+02  0.00000000000E+00 0. -1.
</event>
<event>
 8    1  0.3654190E-009  0.1501163E+03  0.7561462E-02  0.1200330E+00
          1   -1    0    0  501    0  0.00000000000E+00  0.00000000000E+00  0.98968573548E+03  0.98968573548E+03  0.00000000000E+00 0.  1.
         -1   -1    0    0    0  501 -0.00000000000E+00 -0.00000000000E+00 -0.32484569546E+02  0.32484569546E+02  0.00000000000E+00 0. -1.
         25    2    1    2    0    0  0.41245297022E+01 -0.13569581630E+03  0.38146004669E+03  0.42377798561E+03  0.12508256298E+03 0.  0.
         23    2    1    2    0    0 -0.41245297022E+01  0.13569581630E+03  0.57574111925E+03  0.59839231942E+03  0.90361303893E+02 0.  0.
          5    1    3    3  502    0  0.59786549063E+01 -0.16997708624E+02  0.23259182961E+03  0.23332616230E+03  0.41800000000E+01 0. -1.
         -5    1    3    3    0  502 -0.18541252041E+01 -0.11869810767E+03  0.14886821708E+03  0.19045182331E+03  0.41800000000E+01 0. -1.
        -11    1    4    4    0    0  0.26742150035E+02  0.12850270827E+03  0.47300085393E+03  0.49087462395E+03  0.00000000000E+00 0.  1.
         11    1    4    4    0    0 -0.30866679737E+02  0.71931080278E+01  0.10274026531E+03  0.10751769546E+03  0.00000000000E+00 0. -1.
</event>
<event>
 8    1  0.3654190E-009  0.1267924E+03  0.7561462E-02  0.1232294E+00
         -3   -1    0    0    0  501 -0.00000000000E+00  0.00000000000E+00  0.39653520031E+02  0.39653520031E+02  0.00000000000E+00 0.  1.
          3   -1    0    0  501    0  0.00000000000E+00 -0.00000000000E+00 -0.49463170707E+03  0.49463170707E+03  0.00000000000E+00 0. -1.
         25    2    1    2    0    0  0.65723683461E+02  0.26101425315E+02 -0.14710731968E+03  0.20564022338E+03  0.12508577457E+03 0.  0.
         23    2    1    2    0    0 -0.65723683461E+02 -0.26101425315E+02 -0.30787086736E+03  0.32864500372E+03  0.90676240152E+02 0.  0.
          5    1    3    3  502    0  0.28047600624E+02 -0.50661940351E+02 -0.57745100958E+02  0.81885708066E+02  0.41800000000E+01 0.  1.
         -5    1    3    3    0  502  0.37676082837E+02  0.76763365666E+02 -0.89362218720E+02  0.12375451532E+03  0.41800000000E+01 0.  1.
        -11    1    4    4    0    0  0.99497116544E+00 -0.41441959123E+02 -0.72438155598E+02  0.83460843094E+02  0.00000000000E+00 0. -1.
         11    1    4    4    0    0 -0.66718654626E+02  0.15340533808E+02 -0.23543271176E+03  0.24518416062E+03  0.00000000000E+00 0.  1.
</event>
<event>
 8    1  0.3654190E-009  0.1261167E+03  0.7561462E-02  0.1233334E+00
          2   -1    0    0  501    0  0.00000000000E+00  0.00000000000E+00  0.33793838288E+03  0.33793838288E+03  0.00000000000E+00 0.  1.
         -2   -1    0    0    0  501 -0.00000000000E+00 -0.00000000000E+00 -0.81670013694E+02  0.81670013694E+02  0.00000000000E+00 0. -1.
         25    2    1    2    0    0 -0.31030608659E+02 -0.11750720237E+03  0.10836093942E+03  0.20533087755E+03  0.12509130585E+03 0.  0.
         23    2    1    2    0    0  0.31030608659E+02  0.11750720237E+03  0.14790742977E+03  0.21427751903E+03  0.96267367774E+02 0.  0.
          5    1    3    3  502    0 -0.32845692247E+02 -0.42506738338E+02 -0.19271298071E+02  0.57223401093E+02  0.41800000000E+01 0. -1.
         -5    1    3    3    0  502  0.18150835879E+01 -0.75000464036E+02  0.12763223749E+03  0.14810747645E+03  0.41800000000E+01 0. -1.
        -11    1    4    4    0    0  0.27093665185E+02  0.63182277407E+02  0.14412231126E+03  0.15967876338E+03  0.00000000000E+00 0.  1.
         11    1    4    4    0    0  0.39369434736E+01  0.54324924967E+02  0.37851185086E+01  0.54598755651E+02  0.00000000000E+00 0. -1.
</event>
<event>
 8    1  0.3654190E-009  0.1535756E+03  0.7561462E-02  0.1196147E+00
         -1   -1    0    0    0  501 -0.00000000000E+00  0.00000000000E+00  0.36513234826E+02  0.36513234826E+02  0.00000000000E+00 0.  1.
          1   -1    0    0  501    0  0.00000000000E+00 -0.00000000000E+00 -0.77274038890E+03  0.77274038890E+03  0.00000000000E+00 0. -1.
         25    2    1    2    0    0 -0.18746761290E+02  0.12390673511E+03 -0.46106538305E+03  0.49389879259E+03  0.12510159796E+03 0.  0.
         23    2    1    2    0    0  0.18746761290E+02 -0.12390673511E+03 -0.27516177103E+03  0.31535483114E+03  0.89612215807E+02 0.  0.
          5    1    3    3  502    0  0.37698933540E+02  0.50252502501E+02 -0.80697127630E+02  0.10235244211E+03  0.41800000000E+01 0.  1.
         -5    1    3    3    0  502 -0.56445694830E+02  0.73654232613E+02 -0.38036825542E+03  0.39154635048E+03  0.41800000000E+01 0.  1.
        -11    1    4    4    0    0 -0.85961001540E+01  0.10824862934E+02 -0.46852230692E+02  0.48848767806E+02  0.00000000000E+00 0. -1.
         11    1    4    4    0    0  0.27342861444E+02 -0.13473159805E+03 -0.22830954034E+03  0.26650606333E+03  0.00000000000E+00 0.  1.
</event>
<event>
 8    1  0.3654190E-009  0.1163991E+03  0.7561462E-02  0.1249158E+00
         -3   -1    0    0    0  501 -0.00000000000E+00  0.00000000000E+00  0.22886609512E+03  0.22886609512E+03  0.00000000000E+00 0.  1.
          3   -1    0    0  501    0  0.00000000000E+00 -0.00000000000E+00 -0.62991033807E+02  0.62991033807E+02  0.00000000000E+00 0. -1.
         25    2    1    2    0    0  0.13662529223E+01  0.54118535624E+02  0.10226223283E+03  0.17039932779E+03  0.12509070351E+03 0.  0.
         23    2    1    2    0    0 -0.13662529223E+01 -0.54118535624E+02  0.63612828489E+02  0.12145780114E+03  0.88174389497E+02 0.  0.
          5    1    3    3  502    0  0.62588583965E+02  0.35569659785E+02  0.51138592783E+02  0.88403391404E+02  0.41800000000E+01 0.  1.
         -5    1    3    3    0  502 -0.61222331042E+02  0.18548875840E+02  0.51123640045E+02  0.81995936391E+02  0.41800000000E+01 0.  1.
        -11    1    4    4    0    0  0.30022377126E+02  0.42355305420E+01  0.41922406637E+02  0.51737520481E+02  0.00000000000E+00 0.  1.
         11    1    4    4    0    0 -0.31388630049E+02 -0.58354066166E+02  0.21690421852E+02  0.69720280655E+02  0.00000000000E+00 0. -1.
</event>
<event>
 8    1  0.3654190E-009  0.1640793E+03  0.7561462E-02  0.1184167E+00
          1   -1    0    0  501    0  0.00000000000E+00  0.00000000000E+00  0.27290200473E+03  0.27290200473E+03  0.00000000000E+00 0. -1.
         -1   -1    0    0    0  501 -0.00000000000E+00 -0.00000000000E+00 -0.63065913410E+03  0.63065913410E+03  0.00000000000E+00 0.  1.
         25    2    1    2    0    0 -0.10613032253E+03 -0.92981685150E+02  0.22707758600E+03  0.29516103197E+03  0.12508623263E+03 0.  0.
         23    2    1    2    0    0  0.10613032253E+03  0.92981685150E+02 -0.58483471536E+03  0.60840010686E+03  0.90607983082E+02 0.  0.
          5    1    3    3  502    0  0.27074464740E+02 -0.25445460084E+02  0.62937438026E+02  0.73205816608E+02  0.41800000000E+01 0. -1.
         -5    1    3    3    0  502 -0.13320478727E+03 -0.67536225065E+02  0.16414014797E+03  0.22195521536E+03  0.41800000000E+01 0. -1.
        -11    1    4    4    0    0  0.64147685086E+02  0.61735047954E+02 -0.50602036096E+03  0.51379251391E+03  0.00000000000E+00 0.  1.
         11    1    4    4    0    0  0.41982637447E+02  0.31246637195E+02 -0.78814354406E+02  0.94607592949E+02  0.00000000000E+00 0. -1.
</event>
<event>
 8    1  0.3654190E-009  0.8066621E+02  0.7561462E-02  0.1327171E+00
          1   -1    0    0  501    0  0.00000000000E+00  0.00000000000E+00  0.60863540110E+02  0.60863540110E+02  0.00000000000E+00 0. -1.
         -1   -1    0    0    0  501 -0.00000000000E+00 -0.00000000000E+00 -0.23168026678E+03  0.23168026678E+03  0.00000000000E+00 0.  1.
         25    2    1    2    0    0  0.23949494101E+01  0.42492897622E+01 -0.15422326992E+03  0.19863645459E+03  0.12509129410E+03 0.  0.
         23    2    1    2    0    0 -0.23949494101E+01 -0.42492897622E+01 -0.16593456752E+02  0.93907352310E+02  0.92300897962E+02 0.  0.
          5    1    3    3  502    0 -0.32155332147E+02 -0.32324707254E+02 -0.11444027228E+02  0.47194175951E+02  0.41800000000E+01 0. -1.
         -5    1    3    3    0  502  0.34550281557E+02  0.36573997017E+02 -0.14277924269E+03  0.15144227863E+03  0.41800000000E+01 0. -1.
        -11    1    4    4    0    0  0.31145922474E+02  0.71640551758E+00 -0.41459513421E+02  0.51860128970E+02  0.00000000000E+00 0.  1.
         11    1    4    4    0    0 -0.33540871884E+02 -0.49656952797E+01  0.24866056669E+02  0.42047223340E+02  0.00000000000E+00 0. -1.
</event>
<event>
 8    1  0.3654190E-009  0.1511242E+03  0.7561462E-02  0.1199098E+00
          1   -1    0    0  501    0  0.00000000000E+00  0.00000000000E+00  0.40404329086E+03  0.40404329086E+03  0.00000000000E+00 0. -1.
         -1   -1    0    0    0  501 -0.00000000000E+00 -0.00000000000E+00 -0.64536838567E+02  0.64536838567E+02  0.00000000000E+00 0.  1.
         25    2    1    2    0    0  0.11764423706E+03 -0.22000957357E+02  0.17186791738E+03  0.24394671160E+03  0.12508880220E+03 0.  0.
         23    2    1    2    0    0 -0.11764423706E+03  0.22000957357E+02  0.16763853491E+03  0.22463341783E+03  0.89628596879E+02 0.  0.
          5    1    3    3  502    0  0.13633054471E+03 -0.49598262835E+01  0.10458981034E+03  0.17195091778E+03  0.41800000000E+01 0. -1.
         -5    1    3    3    0  502 -0.18686307642E+02 -0.17041131073E+02  0.67278107036E+02  0.71995793821E+02  0.41800000000E+01 0. -1.
        -11    1    4    4    0    0 -0.63180395906E+02 -0.25237929186E+02  0.12085351627E+03  0.13868773519E+03  0.00000000000E+00 0. -1.
         11    1    4    4    0    0 -0.54463841158E+02  0.47238886542E+02  0.46785018646E+02  0.85945682644E+02  0.00000000000E+00 0.  1.
</event>
<event>
 8    1  0.3654190E-009  0.1344770E+03  0.7561462E-02  0.1220960E+00
         -1   -1    0    0    0  501 -0.00000000000E+00  0.00000000000E+00  0.80350911630E+02  0.80350911630E+02  0.00000000000E+00 0.  1.
          1   -1    0    0  501    0  0.00000000000E+00 -0.00000000000E+00 -0.24878043566E+03  0.24878043566E+03  0.00000000000E+00 0. -1.
         25    2    1    2    0    0  0.80018320714E+02  0.28010497646E+02 -0.52368400035E+02  0.15992950992E+03  0.12508988445E+03 0.  0.
         23    2    1    2    0    0 -0.80018320714E+02 -0.28010497646E+02 -0.11606112399E+03  0.16920183737E+03  0.89283579897E+02 0.  0.
          5    1    3    3  502    0  0.57739887342E+02 -0.43296842770E+02 -0.74868374690E+01  0.72677619110E+02  0.41800000000E+01 0. -1.
         -5    1    3    3    0  502  0.22278433372E+02  0.71307340416E+02 -0.44881562566E+02  0.87251890806E+02  0.41800000000E+01 0. -1.
        -11    1    4    4    0    0 -0.37468507254E+02  0.31315822894E+02 -0.34812150624E+02  0.59970456314E+02  0.00000000000E+00 0.  1.
         11    1    4    4    0    0 -0.42549813460E+02 -0.59326320541E+02 -0.81248973368E+02  0.10923138106E+03  0.00000000000E+00 0. -1.
</event>
<event>
 8    1  0.3654190E-009  0.2107722E+03  0.7561462E-02  0.1140956E+00
         -2   -1    0    0    0  501 -0.00000000000E+00  0.00000000000E+00  0.70343793450E+02  0.70343793450E+02  0.00000000000E+00 0.  1.
          2   -1    0    0  501    0  0.00000000000E+00 -0.00000000000E+00 -0.78323937050E+03  0.78323937050E+03  0.00000000000E+00 0. -1.
         25    2    1    2    0    0  0.58830267081E+02 -0.17466512495E+03 -0.18829815257E+03  0.29167433245E+03  0.12509522671E+03 0.  0.
         23    2    1    2    0    0 -0.58830267081E+02  0.17466512495E+03 -0.52459742448E+03  0.56190883150E+03  0.81056591071E+02 0.  0.
          5    1    3    3  502    0  0.37391898118E+02 -0.19003915702E+03 -0.15014162717E+03  0.24509797195E+03  0.41800000000E+01 0.  1.
         -5    1    3    3    0  502  0.21438368963E+02  0.15374032070E+02 -0.38156525403E+02  0.46576360492E+02  0.41800000000E+01 0.  1.
        -11    1    4    4    0    0 -0.76027112159E+02  0.16427364867E+03 -0.46350297585E+03  0.49759517889E+03  0.00000000000E+00 0.  1.
         11    1    4    4    0    0  0.17196845078E+02  0.10391476283E+02 -0.61094448628E+02  0.64313652618E+02  0.00000000000E+00 0. -1.
</event>
<event>
 8    1  0.3654190E-009  0.1215380E+03  0.7561462E-02  0.1240581E+00
          1   -1    0    0  501    0  0.00000000000E+00  0.00000000000E+00  0.13199451394E+03  0.13199451394E+03  0.00000000000E+00 0. -1.
         -1   -1    0    0    0  501 -0.00000000000E+00 -0.00000000000E+00 -0.13694959545E+03  0.13694959545E+03  0.00000000000E+00 0.  1.
         25    2    1    2    0    0  0.72478702732E+02  0.18643452130E+02 -0.29681514157E+02  0.14876914464E+03  0.12510206017E+03 0.  0.
         23    2    1    2    0    0 -0.72478702732E+02 -0.18643452130E+02  0.24726432643E+02  0.12017496474E+03  0.90718713740E+02 0.  0.
          5    1    3    3  502    0  0.74299600371E+02  0.55330437667E+02  0.11482623544E+02  0.93440949220E+02  0.41800000000E+01 0.  1.
         -5    1    3    3    0  502 -0.18208976391E+01 -0.36686985537E+02 -0.41164137701E+02  0.55328195423E+02  0.41800000000E+01 0.  1.
        -11    1    4    4    0    0 -0.84040085195E+01  0.31126265099E+02 -0.71161350823E+01  0.33016830809E+02  0.00000000000E+00 0.  1.
         11    1    4    4    0    0 -0.64074694212E+02 -0.49769717229E+02  0.31842567726E+02  0.87158133934E+02  0.00000000000E+00 0. -1.
</event>
<event>
 8    1  0.3654190E-009  0.1988850E+03  0.7561462E-02  0.1150683E+00
         -1   -1    0    0    0  501 -0.00000000000E+00  0.00000000000E+00  0.28755849920E+03  0.28755849920E+03  0.00000000000E+00 0.  1.
          1   -1    0    0  501    0  0.00000000000E+00 -0.00000000000E+00 -0.16987134592E+03  0.16987134592E+03  0.00000000000E+00 0. -1.
         25    2    1    2    0    0 -0.17766223944E+03  0.50000408065E+02  0.64785449544E+01  0.22305413454E+03  0.12508902134E+03 0.  0.
         23    2    1    2    0    0  0.17766223944E+03 -0.50000408065E+02  0.11120860832E+03  0.23437571059E+03  0.92199278837E+02 0.  0.
          5    1    3    3  502    0 -0.12871561476E+03  0.10094873116E+02 -0.49717300911E+02  0.13841567236E+03  0.41800000000E+01 0.  1.
         -5    1    3    3    0  502 -0.48946624686E+02  0.39905534948E+02  0.56195845865E+02  0.84638462180E+02  0.41800000000E+01 0.  1.
        -11    1    4    4    0    0  0.42247671786E+02  0.26402622987E+02  0.17313866649E+02  0.52742148708E+02  0.00000000000E+00 0.  1.
         11    1    4    4    0    0  0.13541456765E+03 -0.76403031051E+02  0.93894741675E+02  0.18163356188E+03  0.00000000000E+00 0. -1.
</event>
<event>
 8    1  0.3654190E-009  0.1280246E+03  0.7561462E-02  0.1230417E+00
         -1   -1    0    0    0  501 -0.00000000000E+00  0.00000000000E+00  0.26716359722E+03  0.26716359722E+03  0.00000000000E+00 0.  1.
          1   -1    0    0  501    0  0.00000000000E+00 -0.00000000000E+00 -0.79936809732E+02  0.79936809732E+02  0.00000000000E+00 0. -1.
         25    2    1    2    0    0 -0.11490830501E+02  0.93351355176E+02  0.70455472952E+02  0.17162698069E+03  0.12508130210E+03 0.  0.
         23    2    1    2    0    0  0.11490830501E+02 -0.93351355176E+02  0.11677131453E+03  0.17547342626E+03  0.91152996253E+02 0.  0.
          5    1    3    3  502    0 -0.29869363979E+02 -0.15746031258E+02  0.47713639852E+02  0.58601879090E+02  0.41800000000E+01 0.  1.
         -5    1    3    3    0  502  0.18378533478E+02  0.10909738643E+03  0.22741833100E+02  0.11302510160E+03  0.41800000000E+01 0.  1.
        -11    1    4    4    0    0 -0.18222793303E+02 -0.73140745113E+02  0.11742030303E+03  0.13953195460E+03  0.00000000000E+00 0.  1.
         11    1    4    4    0    0  0.29713623805E+02 -0.20210610064E+02 -0.64898849529E+00  0.35941471656E+02  0.00000000000E+00 0. -1.
</event>
<event>
 8    1  0.3654190E-009  0.1712915E+03  0.7561462E-02  0.1176508E+00
          3   -1    0    0  501    0  0.00000000000E+00  0.00000000000E+00  0.25160842840E+03  0.25160842840E+03  0.00000000000E+00 0. -1.
         -3   -1    0    0    0  501 -0.00000000000E+00 -0.00000000000E+00 -0.17075657375E+03  0.17075657375E+03  0.00000000000E+00 0.  1.
         25    2    1    2    0    0 -0.57197820740E+02 -0.12868149147E+03  0.15003083727E+03  0.24080575199E+03  0.12509053167E+03 0.  0.
         23    2    1    2    0    0  0.57197820740E+02  0.12868149147E+03 -0.69178982621E+02  0.18155925015E+03  0.91364723692E+02 0.  0.
          5    1    3    3  502    0  0.52055066670E+01  0.18206859566E+02 -0.30416035841E+01  0.19629334866E+02  0.41800000000E+01 0. -1.
         -5    1    3    3    0  502 -0.62403327407E+02 -0.14688835104E+03  0.15307244086E+03  0.22117641713E+03  0.41800000000E+01 0. -1.
        -11    1    4    4    0    0 -0.21624418980E+02  0.34642029372E+02 -0.36021198529E+02  0.54453764229E+02  0.00000000000E+00 0.  1.
         11    1    4    4    0    0  0.78822239719E+02  0.94039462099E+02 -0.33157784091E+02  0.12710548592E+03  0.00000000000E+00 0. -1.
</event>
<event>
 8    1  0.3654190E-009  0.1100067E+03  0.7561462E-02  0.1260557E+00
          1   -1    0    0  501    0  0.00000000000E+00  0.00000000000E+00  0.12418785917E+03  0.12418785917E+03  0.00000000000E+00 0. -1.
         -1   -1    0    0    0  501 -0.00000000000E+00 -0.00000000000E+00 -0.13873242625E+03  0.13873242625E+03  0.00000000000E+00 0.  1.
         25    2    1    2    0    0  0.11322909281E+02  0.60905779299E+02 -0.57243875144E+02  0.15086748455E+03  0.12508562838E+03 0.  0.
         23    2    1    2    0    0 -0.11322909281E+02 -0.60905779299E+02  0.42699308068E+02  0.11205280087E+03  0.83035396348E+02 0.  0.
          5    1    3    3  502    0  0.65244813538E+02  0.14829710344E+02 -0.38820436540E+02  0.77468088241E+02  0.41800000000E+01 0.  1.
         -5    1    3    3    0  502 -0.53921904258E+02  0.46076068955E+02 -0.18423438604E+02  0.73399396313E+02  0.41800000000E+01 0.  1.
        -11    1    4    4    0    0 -0.21153592455E+02 -0.67066101352E+02  0.26673276894E+01  0.70373653175E+02  0.00000000000E+00 0.  1.
         11    1    4    4    0    0  0.98306831740E+01  0.61603220530E+01  0.40031980379E+02  0.41679147694E+02  0.00000000000E+00 0. -1.
</event>
<event>
 8    1  0.3654190E-009  0.1520160E+03  0.7561462E-02  0.1198017E+00
         -1   -1    0    0    0  501 -0.00000000000E+00  0.00000000000E+00  0.33412913188E+03  0.33412913188E+03  0.00000000000E+00 0.  1.
          1   -1    0    0  501    0  0.00000000000E+00 -0.00000000000E+00 -0.16305876480E+03  0.16305876480E+03  0.00000000000E+00 0. -1.
         25    2    1    2    0    0  0.94910322029E+02 -0.76851351433E+02  0.26594400476E+03  0.31825855919E+03  0.12509275511E+03 0.  0.
         23    2    1    2    0    0 -0.94910322029E+02  0.76851351433E+02 -0.94873637681E+02  0.17892933750E+03  0.90003340199E+02 0.  0.
          5    1    3    3  502    0  0.11146428254E+03 -0.20207118952E+02  0.19811839434E+03  0.22825640082E+03  0.41800000000E+01 0.  1.
         -5    1    3    3    0  502 -0.16553960508E+02 -0.56644232482E+02  0.67825610422E+02  0.90002158369E+02  0.41800000000E+01 0.  1.
        -11    1    4    4    0    0 -0.54950983547E+02  0.72996011570E+02 -0.19342638239E+02  0.93392536918E+02  0.00000000000E+00 0.  1.
         11    1    4    4    0    0 -0.39959338482E+02  0.38553398637E+01 -0.75530999442E+02  0.85536800584E+02  0.00000000000E+00 0. -1.
</event>
<event>
 8    1  0.3654190E-009  0.9246731E+02  0.7561462E-02  0.1296984E+00
          3   -1    0    0  501    0  0.00000000000E+00  0.00000000000E+00  0.13551243564E+03  0.13551243564E+03  0.00000000000E+00 0. -1.
         -3   -1    0    0    0  501 -0.00000000000E+00 -0.00000000000E+00 -0.15469284000E+03  0.15469284000E+03  0.00000000000E+00 0.  1.
         25    2    1    2    0    0  0.10720033638E+02  0.50750531694E+02 -0.89351973022E+02  0.16224218235E+03  0.12509282578E+03 0.  0.
         23    2    1    2    0    0 -0.10720033638E+02 -0.50750531694E+02  0.70171568662E+02  0.12796309329E+03  0.93594703950E+02 0.  0.
          5    1    3    3  502    0 -0.29074553967E+02  0.17907405193E+02  0.21032810485E+02  0.40321909255E+02  0.41800000000E+01 0.  1.
         -5    1    3    3    0  502  0.39794587604E+02  0.32843126501E+02 -0.11038478351E+03  0.12192027309E+03  0.41800000000E+01 0.  1.
        -11    1    4    4    0    0 -0.20386271680E+02  0.19287687326E+02  0.44764642130E+02  0.52834535490E+02  0.00000000000E+00 0. -1.
         11    1    4    4    0    0  0.96662380423E+01 -0.70038219020E+02  0.25406926532E+02  0.75128557800E+02  0.00000000000E+00 0.  1.
</event>
<event>
 8    1  0.3654190E-009  0.4784492E+02  0.7561462E-02  0.1457325E+00
          1   -1    0    0  501    0  0.00000000000E+00  0.00000000000E+00  0.25296952653E+03  0.25296952653E+03  0.00000000000E+00 0. -1.
         -1   -1    0    0    0  501 -0.00000000000E+00 -0.00000000000E+00 -0.84087253873E+02  0.84087253873E+02  0.00000000000E+00 0.  1.
         25    2    1    2    0    0 -0.13092376970E+02  0.19331699899E+02  0.19772398776E+03  0.23513206324E+03  0.12508871601E+03 0.  0.
         23    2    1    2    0    0  0.13092376970E+02 -0.19331699899E+02 -0.28841715102E+02  0.10192471716E+03  0.94929860859E+02 0.  0.
          5    1    3    3  502    0 -0.97841471705E+01 -0.11405127976E+02  0.20290972552E+03  0.20350831823E+03  0.41800000000E+01 0. -1.
         -5    1    3    3    0  502 -0.33082297993E+01  0.30736827876E+02 -0.51857377585E+01  0.31623745008E+02  0.41800000000E+01 0. -1.
        -11    1    4    4    0    0  0.11068285235E+02  0.12674259419E+02 -0.56885908083E+02  0.59322426857E+02  0.00000000000E+00 0.  1.
         11    1    4    4    0    0  0.20240917344E+01 -0.32005959318E+02  0.28044192980E+02  0.42602290304E+02  0.00000000000E+00 0. -1.
</event>
<event>
 8    1  0.3654190E-009  0.1440520E+03  0.7561462E-02  0.1207978E+00
         -1   -1    0    0    0  501 -0.00000000000E+00  0.00000000000E+00  0.31061744174E+02  0.31061744174E+02  0.00000000000E+00 0.  1.
          1   -1    0    0  501    0  0.00000000000E+00 -0.00000000000E+00 -0.95241925452E+03  0.95241925452E+03  0.00000000000E+00 0. -1.
         25    2    1    2    0    0  0.37163212544E+02 -0.11098387147E+03 -0.67013442542E+03  0.69168373850E+03  0.12509085453E+03 0.  0.
         23    2    1    2    0    0 -0.37163212544E+02  0.11098387147E+03 -0.25122308493E+03  0.29179726019E+03  0.91291174598E+02 0.  0.
          5    1    3    3  502    0  0.40193710742E+02 -0.12478700787E+03 -0.66196218150E+03  0.67483237463E+03  0.41800000000E+01 0.  1.
         -5    1    3    3    0  502 -0.30304981979E+01  0.13803136397E+02 -0.81722439201E+01  0.16851363874E+02  0.41800000000E+01 0.  1.
        -11    1    4    4    0    0  0.21200761965E+02  0.59174152662E+01 -0.77398065569E+02  0.80467065717E+02  0.00000000000E+00 0. -1.
         11    1    4    4    0    0 -0.58363974509E+02  0.10506645621E+03 -0.17382501936E+03  0.21133019447E+03  0.00000000000E+00 0.  1.
</event>
<event>
 8    1  0.3654190E-009  0.1021394E+03  0.7561462E-02  0.1275860E+00
          2   -1    0    0  501    0  0.00000000000E+00  0.00000000000E+00  0.14426273250E+03  0.14426273250E+03  0.00000000000E+00 0.  1.
         -2   -1    0    0    0  501 -0.00000000000E+00 -0.00000000000E+00 -0.17046503730E+03  0.17046503730E+03  0.00000000000E+00 0. -1.
         25    2    1    2    0    0 -0.86900682270E+01  0.69879812625E+02  0.74868756729E+02  0.16189792715E+03  0.12508757966E+03 0.  0.
         23    2    1    2    0    0  0.86900682270E+01 -0.69879812625E+02 -0.10107106152E+03  0.15282984264E+03  0.90459360087E+02 0.  0.
          5    1    3    3  502    0  0.11555019139E+02 -0.41699626700E+01  0.83528716086E+02  0.84530620883E+02  0.41800000000E+01 0. -1.
         -5    1    3    3    0  502 -0.20245087366E+02  0.74049775295E+02 -0.86599593568E+01  0.77367306272E+02  0.41800000000E+01 0. -1.
        -11    1    4    4    0    0  0.45688689541E+02 -0.61278339388E+02 -0.71864291816E+02  0.10491409661E+03  0.00000000000E+00 0.  1.
         11    1    4    4    0    0 -0.36998621314E+02 -0.86014732373E+01 -0.29206769706E+02  0.47915746031E+02  0.00000000000E+00 0. -1.
</event>
<event>
 8    1  0.3654190E-009  0.5728964E+02  0.7561462E-02  0.1409571E+00
          1   -1    0    0  501    0  0.00000000000E+00  0.00000000000E+00  0.24904549281E+02  0.24904549281E+02  0.00000000000E+00 0. -1.
         -1   -1    0    0    0  501 -0.00000000000E+00 -0.00000000000E+00 -0.57512542443E+03  0.57512542443E+03  0.00000000000E+00 0.  1.
         25    2    1    2    0    0 -0.24346368377E+02  0.13720920998E+02 -0.42168238201E+03  0.44073227406E+03  0.12509155355E+03 0.  0.
         23    2    1    2    0    0  0.24346368377E+02 -0.13720920998E+02 -0.12853849313E+03  0.15929769965E+03  0.89847668700E+02 0.  0.
          5    1    3    3  502    0 -0.17219421406E+02  0.16549445212E+02 -0.60251934833E+01  0.24983353796E+02  0.41800000000E+01 0.  1.
         -5    1    3    3    0  502 -0.71269469705E+01 -0.28285242137E+01 -0.41565718853E+03  0.41574892026E+03  0.41800000000E+01 0.  1.
        -11    1    4    4    0    0  0.39713730518E+02  0.20056835045E+02 -0.10817820884E+03  0.11697000424E+03  0.00000000000E+00 0.  1.
         11    1    4    4    0    0 -0.15367362141E+02 -0.33777756044E+02 -0.20360284298E+02  0.42327695416E+02  0.00000000000E+00 0. -1.
</event>
<event>
 8    1  0.3654190E-009  0.1983684E+03  0.7561462E-02  0.1151123E+00
         -2   -1    0    0    0  501 -0.00000000000E+00  0.00000000000E+00  0.30873663214E+03  0.30873663214E+03  0.00000000000E+00 0.  1.
          2   -1    0    0  501    0  0.00000000000E+00 -0.00000000000E+00 -0.18272459458E+03  0.18272459458E+03  0.00000000000E+00 0. -1.
         25    2    1    2    0    0 -0.19066143974E+03  0.34475479935E+02  0.15279961286E+03  0.27665185220E+03  0.12509269490E+03 0.  0.
         23    2    1    2    0    0  0.19066143974E+03 -0.34475479935E+02 -0.26787575297E+02  0.21480937452E+03  0.88798366373E+02 0.  0.
          5    1    3    3  502    0 -0.10837210635E+03  0.34790944562E+02  0.13346562966E+02  0.11467574461E+03  0.41800000000E+01 0.  1.
         -5    1    3    3    0  502 -0.82289333389E+02 -0.31546462684E+00  0.13945304989E+03  0.16197610760E+03  0.41800000000E+01 0.  1.
        -11    1    4    4    0    0  0.95648446689E+02  0.87757041931E+01  0.23576381115E+02  0.98901385656E+02  0.00000000000E+00 0.  1.
         11    1    4    4    0    0  0.95012993052E+02 -0.43251184128E+02 -0.50363956412E+02  0.11590798886E+03  0.00000000000E+00 0. -1.
</event>
<event>
 8    1  0.3654190E-009  0.3657754E+03  0.7561462E-02  0.1056320E+00
         -1   -1    0    0    0  501 -0.00000000000E+00  0.00000000000E+00  0.23775416146E+03  0.23775416146E+03  0.00000000000E+00 0.  1.
          1   -1    0    0  501    0  0.00000000000E+00 -0.00000000000E+00 -0.77170192289E+03  0.77170192289E+03  0.00000000000E+00 0. -1.
         25    2    1    2    0    0 -0.35460690786E+03  0.54573471625E+01 -0.52137008837E+03  0.64284580789E+03  0.12509245356E+03 0.  0.
         23    2    1    2    0    0  0.35460690786E+03 -0.54573471625E+01 -0.12577673067E+02  0.36661027646E+03  0.92027469840E+02 0.  0.
          5    1    3    3  502    0 -0.22508016859E+03  0.47233537333E+02 -0.25315577457E+03  0.34204883853E+03  0.41800000000E+01 0. -1.
         -5    1    3    3    0  502 -0.12952673927E+03 -0.41776190171E+02 -0.26821431379E+03  0.30079696936E+03  0.41800000000E+01 0. -1.
        -11    1    4    4    0    0  0.31755644459E+03 -0.32908267185E+02 -0.18285114042E+01  0.31926226367E+03  0.00000000000E+00 0. -1.
         11    1    4    4    0    0  0.37050463272E+02  0.27450920022E+02 -0.10749161663E+02  0.47348012791E+02  0.00000000000E+00 0.  1.
</event>
<event>
 8    1  0.3654190E-009  0.1116020E+03  0.7561462E-02  0.1257632E+00
         -2   -1    0    0    0  501 -0.00000000000E+00  0.00000000000E+00  0.97001857079E+01  0.97001857079E+01  0.00000000000E+00 0.  1.
          2   -1    0    0  501    0  0.00000000000E+00 -0.00000000000E+00 -0.16744907071E+04  0.16744907071E+04  0.00000000000E+00 0. -1.
         25    2    1    2    0    0 -0.79085098094E+01  0.44537865507E+02 -0.12499922944E+04  0.12570490365E+04  0.12508148625E+03 0.  0.
         23    2    1    2    0    0  0.79085098094E+01 -0.44537865507E+02 -0.41479822705E+03  0.42714185633E+03  0.91358799656E+02 0.  0.
          5    1    3    3  502    0 -0.54228813887E+02  0.51610521754E+02 -0.50086269323E+03  0.50644379756E+03  0.41800000000E+01 0.  1.
         -5    1    3    3    0  502  0.46320304078E+02 -0.70726562470E+01 -0.74912960113E+03  0.75060523894E+03  0.41800000000E+01 0.  1.
        -11    1    4    4    0    0  0.42691668662E+02  0.24014618492E+01 -0.20153623334E+03  0.20602232632E+03  0.00000000000E+00 0.  1.
         11    1    4    4    0    0 -0.34783158852E+02 -0.46939327356E+02 -0.21326199371E+03  0.22111953001E+03  0.00000000000E+00 0. -1.
</event>
<event>
 8    1  0.3654190E-009  0.9882015E+02  0.7561462E-02  0.1282797E+00
          2   -1    0    0  501    0  0.00000000000E+00  0.00000000000E+00  0.22071953867E+04  0.22071953867E+04  0.00000000000E+00 0. -1.
         -2   -1    0    0    0  501 -0.00000000000E+00 -0.00000000000E+00 -0.14874929346E+02  0.14874929346E+02  0.00000000000E+00 0.  1.
         25    2    1    2    0    0 -0.50906793973E+02 -0.74414837740E+01  0.19751195253E+04  0.19797455413E+04  0.12509353278E+03 0.  0.
         23    2    1    2    0    0  0.50906793973E+02  0.74414837740E+01  0.21720093210E+03  0.24232477474E+03  0.94330134066E+02 0.  0.
          5    1    3    3  502    0  0.12736185190E+02 -0.27065299247E+02  0.14611540339E+04  0.14614661556E+04  0.41800000000E+01 0.  1.
         -5    1    3    3    0  502 -0.63642979162E+02  0.19623815473E+02  0.51396549141E+03  0.51827938575E+03  0.41800000000E+01 0.  1.
        -11    1    4    4    0    0  0.50833624977E+02  0.42127188892E+02  0.17868932513E+03  0.19049575425E+03  0.00000000000E+00 0.  1.
         11    1    4    4    0    0  0.73168995174E-01 -0.34685705118E+02  0.38511606976E+02  0.51829020491E+02  0.00000000000E+00 0. -1.
</event>
<event>
 8    1  0.3654190E-009  0.1115184E+03  0.7561462E-02  0.1257784E+00
         -2   -1    0    0    0  501 -0.00000000000E+00  0.00000000000E+00  0.14825746840E+02  0.14825746840E+02  0.00000000000E+00 0.  1.
          2   -1    0    0  501    0  0.00000000000E+00 -0.00000000000E+00 -0.17498877281E+04  0.17498877281E+04  0.00000000000E+00 0. -1.
         25    2    1    2    0    0 -0.73731018992E+02  0.34669732493E+02 -0.14023095350E+04  0.14102333223E+04  0.12509091841E+03 0.  0.
         23    2    1    2    0    0  0.73731018992E+02 -0.34669732493E+02 -0.33275244629E+03  0.35448015266E+03  0.91069943503E+02 0.  0.
          5    1    3    3  502    0  0.86140191857E+01  0.47507990866E+02 -0.87695698134E+03  0.87829507003E+03  0.41800000000E+01 0. -1.
         -5    1    3    3    0  502 -0.82345038178E+02 -0.12838258373E+02 -0.52535255362E+03  0.53193825223E+03  0.41800000000E+01 0. -1.
        -11    1    4    4    0    0  0.62826047350E+02 -0.92945622564E+01 -0.31569134373E+03  0.32201634371E+03  0.00000000000E+00 0. -1.
         11    1    4    4    0    0  0.10904971643E+02 -0.25375170236E+02 -0.17061102558E+02  0.32463808950E+02  0.00000000000E+00 0.  1.
</event>
<event>
 8    1  0.3654190E-009  0.8904887E+02  0.7561462E-02  0.1305171E+00
          1   -1    0    0  501    0  0.00000000000E+00  0.00000000000E+00  0.22624206452E+03  0.22624206452E+03  0.00000000000E+00 0. -1.
         -1   -1    0    0    0  501 -0.00000000000E+00 -0.00000000000E+00 -0.69663162096E+02  0.69663162096E+02  0.00000000000E+00 0.  1.
         25    2    1    2    0    0 -0.61456424535E+02 -0.12464425008E+02  0.66572155813E+02  0.15496512063E+03  0.12510029047E+03 0.  0.
         23    2    1    2    0    0  0.61456424535E+02  0.12464425008E+02  0.90006746607E+02  0.14094010598E+03  0.88490931922E+02 0.  0.
          5    1    3    3  502    0 -0.80174729200E+02  0.66886088824E+01  0.88809425479E+02  0.11990542584E+03  0.41800000000E+01 0.  1.
         -5    1    3    3    0  502  0.18718304665E+02 -0.19153033890E+02 -0.22237269666E+02  0.35059694792E+02  0.41800000000E+01 0.  1.
        -11    1    4    4    0    0  0.19773802189E+02  0.19941220495E+02 -0.11964195453E+02  0.30525358322E+02  0.00000000000E+00 0.  1.
         11    1    4    4    0    0  0.41682622346E+02 -0.74767954872E+01  0.10197094206E+03  0.11041474766E+03  0.00000000000E+00 0. -1.
</event>
<event>
 8    1  0.3654190E-009  0.1118680E+03  0.7561462E-02  0.1257149E+00
         -2   -1    0    0    0  501 -0.00000000000E+00  0.00000000000E+00  0.95251891183E+02  0.95251891183E+02  0.00000000000E+00 0.  1.
          2   -1    0    0  501    0  0.00000000000E+00 -0.00000000000E+00 -0.19443343088E+03  0.19443343088E+03  0.00000000000E+00 0. -1.
         25    2    1    2    0    0 -0.10553234068E+02  0.69528102402E+02 -0.96361810702E+02  0.17285080635E+03  0.12508507074E+03 0.  0.
         23    2    1    2    0    0  0.10553234068E+02 -0.69528102402E+02 -0.28197289995E+01  0.11683451572E+03  0.93256771433E+02 0.  0.
          5    1    3    3  502    0  0.41925963161E+02  0.24959798299E+02  0.60832606075E+01  0.49348316869E+02  0.41800000000E+01 0. -1.
         -5    1    3    3    0  502 -0.52479197230E+02  0.44568304103E+02 -0.10244507131E+03  0.12350248948E+03  0.41800000000E+01 0. -1.
        -11    1    4    4    0    0 -0.31578310539E+02 -0.50493753617E+02  0.23046367946E+02  0.63858781122E+02  0.00000000000E+00 0.  1.
         11    1    4    4    0    0  0.42131544607E+02 -0.19034348785E+02 -0.25866096945E+02  0.52975734595E+02  0.00000000000E+00 0. -1.
</event>
<event>
 8    1  0.3654190E-009  0.8343243E+02  0.7561462E-02  0.1319584E+00
          1   -1    0    0  501    0  0.00000000000E+00  0.00000000000E+00  0.66592512737E+02  0.66592512737E+02  0.00000000000E+00 0. -1.
         -1   -1    0    0    0  501 -0.00000000000E+00 -0.00000000000E+00 -0.25479635502E+03  0.25479635502E+03  0.00000000000E+00 0.  1.
         25    2    1    2    0    0 -0.67068121712E+02 -0.30488054553E+02 -0.12518778516E+03  0.19169707028E+03  0.12509248890E+03 0.  0.
         23    2    1    2    0    0  0.67068121712E+02  0.30488054553E+02 -0.63016057120E+02  0.12969179748E+03  0.86146877237E+02 0.  0.
          5    1    3    3  502    0 -0.75525424919E+02 -0.24039028629E+02 -0.14821846669E+02  0.80741093907E+02  0.41800000000E+01 0. -1.
         -5    1    3    3    0  502  0.84573032063E+01 -0.64490259243E+01 -0.11036593849E+03  0.11095597637E+03  0.41800000000E+01 0. -1.
        -11    1    4    4    0    0  0.27331202875E+02  0.22804272077E+02  0.17433415241E+02  0.39635255046E+02  0.00000000000E+00 0. -1.
         11    1    4    4    0    0  0.39736918837E+02  0.76837824760E+01 -0.80449472361E+02  0.90056542433E+02  0.00000000000E+00 0.  1.
</event>
<event>
 8    1  0.3654190E-009  0.1095544E+03  0.7561462E-02  0.1261397E+00
          2   -1    0    0  501    0  0.00000000000E+00  0.00000000000E+00  0.26727922569E+02  0.26727922569E+02  0.00000000000E+00 0. -1.
         -2   -1    0    0    0  501 -0.00000000000E+00 -0.00000000000E+00 -0.65226989432E+03  0.65226989432E+03  0.00000000000E+00 0.  1.
         25    2    1    2    0    0  0.43007276863E+02  0.61212414646E+02 -0.33206458578E+03  0.36264553800E+03  0.12509321138E+03 0.  0.
         23    2    1    2    0    0 -0.43007276863E+02 -0.61212414646E+02 -0.29347738597E+03  0.31635227889E+03  0.91395857189E+02 0.  0.
          5    1    3    3  502    0 -0.18092364611E+02  0.22420681319E+02 -0.74710652554E+01  0.30055113111E+02  0.41800000000E+01 0. -1.
         -5    1    3    3    0  502  0.61099641474E+02  0.38791733327E+02 -0.32459352053E+03  0.33259042489E+03  0.41800000000E+01 0. -1.
        -11    1    4    4    0    0  0.19876832922E+02  0.10206855469E+02 -0.69344064758E+02  0.72855114458E+02  0.00000000000E+00 0.  1.
         11    1    4    4    0    0 -0.62884109785E+02 -0.71419270115E+02 -0.22413332121E+03  0.24349716443E+03  0.00000000000E+00 0. -1.
</event>
<event>
 8    1  0.3654190E-009  0.2049062E+03  0.7561462E-02  0.1145664E+00
         -2   -1    0    0    0  501 -0.00000000000E+00  0.00000000000E+00  0.48957948753E+02  0.48957948753E+02  0.00000000000E+00 0.  1.
          2   -1    0    0  501    0  0.00000000000E+00 -0.00000000000E+00 -0.90531679167E+03  0.90531679167E+03  0.00000000000E+00 0. -1.
         25    2    1    2    0    0 -0.16966299875E+03  0.48968527867E+02 -0.52400834175E+03  0.56693523814E+03  0.12508945665E+03 0.  0.
         23    2    1    2    0    0  0.16966299875E+03 -0.48968527867E+02 -0.33235050117E+03  0.38733950228E+03  0.91605592246E+02 0.  0.
          5    1    3    3  502    0 -0.14123402292E+03  0.89092431111E+02 -0.40714474496E+03  0.44007820471E+03  0.41800000000E+01 0. -1.
         -5    1    3    3    0  502 -0.28428975829E+02 -0.40123903244E+02 -0.11686359678E+03  0.12685703343E+03  0.41800000000E+01 0. -1.
        -11    1    4    4    0    0  0.70241010054E+02  0.19268000471E+02 -0.17134815261E+03  0.18618604873E+03  0.00000000000E+00 0. -1.
         11    1    4    4    0    0  0.99421988695E+02 -0.68236528338E+02 -0.16100234856E+03  0.20115345355E+03  0.00000000000E+00 0.  1.
</event>
<event>
 8    1  0.3654190E-009  0.9494919E+02  0.7561462E-02  0.1291291E+00
         -2   -1    0    0    0  501 -0.00000000000E+00  0.00000000000E+00  0.89036477222E+02  0.89036477222E+02  0.00000000000E+00 0.  1.
          2   -1    0    0  501    0  0.00000000000E+00 -0.00000000000E+00 -0.13811686462E+03  0.13811686462E+03  0.00000000000E+00 0. -1.
         25    2    1    2    0    0  0.57262385420E+01 -0.13050422613E+02 -0.87630700946E+01  0.12620263354E+03  0.12508880836E+03 0.  0.
         23    2    1    2    0    0 -0.57262385420E+01  0.13050422613E+02 -0.40317317303E+02  0.10095070830E+03  0.91446465725E+02 0.  0.
          5    1    3    3  502    0 -0.40060542533E+02 -0.51885102622E+02 -0.31802636665E+01  0.65760911027E+02  0.41800000000E+01 0. -1.
         -5    1    3    3    0  502  0.45786781075E+02  0.38834680010E+02 -0.55828064281E+01  0.60441722513E+02  0.41800000000E+01 0. -1.
        -11    1    4    4    0    0 -0.34077999875E+02  0.10004319680E+02  0.15127082724E+02  0.38603434037E+02  0.00000000000E+00 0.  1.
         11    1    4    4    0    0  0.28351761333E+02  0.30461029326E+01 -0.55444400027E+02  0.62347274263E+02  0.00000000000E+00 0. -1.
</event>
<event>
 8    1  0.3654190E-009  0.2048376E+03  0.7561462E-02  0.1145721E+00
         -2   -1    0    0    0  501 -0.00000000000E+00  0.00000000000E+00  0.59727512310E+02  0.59727512310E+02  0.00000000000E+00 0.  1.
          2   -1    0    0  501    0  0.00000000000E+00 -0.00000000000E+00 -0.88217155742E+03  0.88217155742E+03  0.00000000000E+00 0. -1.
         25    2    1    2    0    0 -0.40489267094E+01 -0.19895497138E+03 -0.35787661359E+03  0.42816152081E+03  0.12508854026E+03 0.  0.
         23    2    1    2    0    0  0.40489267094E+01  0.19895497138E+03 -0.46456743152E+03  0.51373754892E+03  0.92216572797E+02 0.  0.
          5    1    3    3  502    0  0.11251434904E+02 -0.10061736383E+03 -0.29112205943E+03  0.30825310149E+03  0.41800000000E+01 0. -1.
         -5    1    3    3    0  502 -0.15300361613E+02 -0.98337607545E+02 -0.66754554165E+02  0.11990841932E+03  0.41800000000E+01 0. -1.
        -11    1    4    4    0    0  0.32868315905E+02  0.83442408881E+02 -0.28081891303E+03  0.29479183114E+03  0.00000000000E+00 0. -1.
         11    1    4    4    0    0 -0.28819389195E+02  0.11551256249E+03 -0.18374851849E+03  0.21894571778E+03  0.00000000000E+00 0.  1.
</event>
<event>
 8    1  0.3654190E-009  0.2251914E+03  0.7561462E-02  0.1130071E+00
         -1   -1    0    0    0  501 -0.00000000000E+00  0.00000000000E+00  0.11732779494E+03  0.11732779494E+03  0.00000000000E+00 0.  1.
          1   -1    0    0  501    0  0.00000000000E+00 -0.00000000000E+00 -0.54388928204E+03  0.54388928204E+03  0.00000000000E+00 0. -1.
         25    2    1    2    0    0  0.20106136853E+03 -0.63181770922E+02 -0.10556407502E+03  0.26685005155E+03  0.12509023138E+03 0.  0.
         23    2    1    2    0    0 -0.20106136853E+03  0.63181770922E+02 -0.32099741208E+03  0.39436702543E+03  0.89824284503E+02 0.  0.
          5    1    3    3  502    0  0.27791697717E+02 -0.39338385119E+02 -0.75023717543E+02  0.89251989332E+02  0.41800000000E+01 0. -1.
         -5    1    3    3    0  502  0.17326967081E+03 -0.23843385803E+02 -0.30540357477E+02  0.17759806222E+03  0.41800000000E+01 0. -1.
        -11    1    4    4    0    0 -0.65646435267E+02 -0.19426979123E+02 -0.12187270489E+03  0.13978489968E+03  0.00000000000E+00 0. -1.
         11    1    4    4    0    0 -0.13541493326E+03  0.82608750045E+02 -0.19912470720E+03  0.25458212575E+03  0.00000000000E+00 0.  1.
</event>
<event>
 8    1  0.3654190E-009  0.2486067E+03  0.7561462E-02  0.1114189E+00
         -1   -1    0    0    0  501 -0.00000000000E+00  0.00000000000E+00  0.10363403298E+04  0.10363403298E+04  0.00000000000E+00 0.  1.
          1   -1    0    0  501    0  0.00000000000E+00 -0.00000000000E+00 -0.69612388976E+02  0.69612388976E+02  0.00000000000E+00 0. -1.
         25    2    1    2    0    0 -0.24024739535E+03  0.26235876846E+02  0.57754360145E+03  0.63844517393E+03  0.12509395003E+03 0.  0.
         23    2    1    2    0    0  0.24024739535E+03 -0.26235876846E+02  0.38918433942E+03  0.46750754489E+03  0.93229406713E+02 0.  0.
          5    1    3    3  502    0 -0.69537808698E+02  0.30106635006E+02  0.71172715534E+02  0.10404299182E+03  0.41800000000E+01 0. -1.
         -5    1    3    3    0  502 -0.17070958665E+03 -0.38707581596E+01  0.50637088591E+03  0.53440218211E+03  0.41800000000E+01 0. -1.
        -11    1    4    4    0    0  0.14027990430E+03 -0.47895567581E+02  0.16946795992E+03  0.22514845410E+03  0.00000000000E+00 0. -1.
         11    1    4    4    0    0  0.99967491047E+02  0.21659690735E+02  0.21971637949E+03  0.24235909079E+03  0.00000000000E+00 0.  1.
</event>
<event>
 8    1  0.3654190E-009  0.1325740E+03  0.7561462E-02  0.1223686E+00
          1   -1    0    0  501    0  0.00000000000E+00  0.00000000000E+00  0.20716072313E+04  0.20716072313E+04  0.00000000000E+00 0. -1.
         -1   -1    0    0    0  501 -0.00000000000E+00 -0.00000000000E+00 -0.27887232617E+02  0.27887232617E+02  0.00000000000E+00 0.  1.
         25    2    1    2    0    0  0.98424095256E+02 -0.30021947200E+02  0.18761875281E+04  0.18831665546E+04  0.12509201385E+03 0.  0.
         23    2    1    2    0    0 -0.98424095256E+02  0.30021947200E+02  0.16753247061E+03  0.21632790934E+03  0.90233119260E+02 0.  0.
          5    1    3    3  502    0  0.19936733045E+02 -0.69901048329E+02  0.95552291617E+03  0.95829282874E+03  0.41800000000E+01 0. -1.
         -5    1    3    3    0  502  0.78487362211E+02  0.39879101129E+02  0.92066461191E+03  0.92487372585E+03  0.41800000000E+01 0. -1.
        -11    1    4    4    0    0 -0.45797883250E+02  0.22550632307E+02  0.12670453464E+02  0.52597694993E+02  0.00000000000E+00 0.  1.
         11    1    4    4    0    0 -0.52626212006E+02  0.74713148924E+01  0.15486201715E+03  0.16373021435E+03  0.00000000000E+00 0. -1.
</event>
<event>
 8    1  0.3654190E-009  0.8575265E+02  0.7561462E-02  0.1313476E+00
         -2   -1    0    0    0  501 -0.00000000000E+00  0.00000000000E+00  0.29513410748E+02  0.29513410748E+02  0.00000000000E+00 0. -1.
          2   -1    0    0  501    0  0.00000000000E+00 -0.00000000000E+00 -0.40475497719E+03  0.40475497719E+03  0.00000000000E+00 0.  1.
         25    2    1    2    0    0 -0.78834561417E+01  0.13619780887E+02 -0.22990751663E+03  0.26220742384E+03  0.12509044568E+03 0.  0.
         23    2    1    2    0    0  0.78834561417E+01 -0.13619780887E+02 -0.14533404981E+03  0.17206096410E+03  0.90748785222E+02 0.  0.
          5    1    3    3  502    0  0.38092515505E+02  0.79618967486E+01 -0.20642842319E+03  0.21010615849E+03  0.41800000000E+01 0.  1.
         -5    1    3    3    0  502 -0.45975971647E+02  0.56578841383E+01 -0.23479093442E+02  0.52101265346E+02  0.41800000000E+01 0.  1.
        -11    1    4    4    0    0  0.17652342380E+02 -0.47457996780E+02 -0.11471165059E+03  0.12538990961E+03  0.00000000000E+00 0.  1.
         11    1    4    4    0    0 -0.97688862383E+01  0.33838215893E+02 -0.30622399218E+02  0.46671054488E+02  0.00000000000E+00 0. -1.
</event>
<event>
 8    1  0.3654190E-009  0.1084512E+03  0.7561462E-02  0.1263465E+00
         -1   -1    0    0    0  501 -0.00000000000E+00  0.00000000000E+00  0.44153224805E+02  0.44153224805E+02  0.00000000000E+00 0.  1.
          1   -1    0    0  501    0  0.00000000000E+00 -0.00000000000E+00 -0.42597077712E+03  0.42597077712E+03  0.00000000000E+00 0. -1.
         25    2    1    2    0    0  0.32874975251E+02 -0.26915221233E+02 -0.33347646984E+03  0.35869051941E+03  0.12508852724E+03 0.  0.
         23    2    1    2    0    0 -0.32874975251E+02  0.26915221233E+02 -0.48341082480E+02  0.11143348252E+03  0.90969047697E+02 0.  0.
          5    1    3    3  502    0  0.62262210541E+00 -0.65729366576E+02 -0.99694940036E+02  0.11948761759E+03  0.41800000000E+01 0.  1.
         -5    1    3    3    0  502  0.32252353145E+02  0.38814145343E+02 -0.23378152980E+03  0.23920290182E+03  0.41800000000E+01 0.  1.
        -11    1    4    4    0    0 -0.48085761538E+02 -0.19247629357E+02 -0.24522150035E+02  0.57306609923E+02  0.00000000000E+00 0. -1.
         11    1    4    4    0    0  0.15210786287E+02  0.46162850590E+02 -0.23818932445E+02  0.54126872595E+02  0.00000000000E+00 0.  1.
</event>
<event>
 8    1  0.3654190E-009  0.1604146E+03  0.7561462E-02  0.1188229E+00
         -1   -1    0    0    0  501 -0.00000000000E+00  0.00000000000E+00  0.61988026956E+02  0.61988026956E+02  0.00000000000E+00 0.  1.
          1   -1    0    0  501    0  0.00000000000E+00 -0.00000000000E+00 -0.46435156842E+03  0.46435156842E+03  0.00000000000E+00 0. -1.
         25    2    1    2    0    0 -0.12571404090E+03  0.31242881834E+02 -0.19754710913E+03  0.26730327148E+03  0.12508413518E+03 0.  0.
         23    2    1    2    0    0  0.12571404090E+03 -0.31242881834E+02 -0.20481643233E+03  0.25903632389E+03  0.91487203464E+02 0.  0.
          5    1    3    3  502    0 -0.82610554224E+02 -0.33469518063E+02 -0.54842160409E+02  0.10473703866E+03  0.41800000000E+01 0. -1.
         -5    1    3    3    0  502 -0.43103486681E+02  0.64712399897E+02 -0.14270494873E+03  0.16256623283E+03  0.41800000000E+01 0. -1.
        -11    1    4    4    0    0  0.62825753599E+02 -0.57891189821E+02 -0.14474811417E+03  0.16807879619E+03  0.00000000000E+00 0. -1.
         11    1    4    4    0    0  0.62888287305E+02  0.26648307987E+02 -0.60068318167E+02  0.90957527705E+02  0.00000000000E+00 0.  1.
</event>
<event>
 8    1  0.3654190E-009  0.1339399E+03  0.7561462E-02  0.1221724E+00
         -3   -1    0    0    0  501 -0.00000000000E+00  0.00000000000E+00  0.80308850029E+03  0.80308850029E+03  0.00000000000E+00 0.  1.
          3   -1    0    0  501    0  0.00000000000E+00 -0.00000000000E+00 -0.31373984115E+02  0.31373984115E+02  0.00000000000E+00 0. -1.
         25    2    1    2    0    0  0.10084690094E+03 -0.57088049178E+02  0.38102680999E+03  0.41744106158E+03  0.12508583919E+03 0.  0.
         23    2    1    2    0    0 -0.10084690094E+03  0.57088049178E+02  0.39068770618E+03  0.41702142283E+03  0.88548520879E+02 0.  0.
          5    1    3    3  502    0  0.97905325571E+02 -0.26960836014E+02  0.37191716044E+03  0.38555438797E+03  0.41800000000E+01 0. -1.
         -5    1    3    3    0  502  0.29415753716E+01 -0.30127213164E+02  0.91096495578E+01  0.31886673608E+02  0.41800000000E+01 0. -1.
        -11    1    4    4    0    0 -0.44369274540E+02  0.64956134214E+02  0.29791235205E+03  0.30812286738E+03  0.00000000000E+00 0. -1.
         11    1    4    4    0    0 -0.56477626402E+02 -0.78680850362E+01  0.92775354131E+02  0.10889855546E+03  0.00000000000E+00 0.  1.
</event>
<event>
 8    1  0.3654190E-009  0.1273426E+03  0.7561462E-02  0.1231453E+00
         -2   -1    0    0    0  501 -0.00000000000E+00  0.00000000000E+00  0.15400606009E+02  0.15400606009E+02  0.00000000000E+00 0.  1.
          2   -1    0    0  501    0  0.00000000000E+00 -0.00000000000E+00 -0.13686392127E+04  0.13686392127E+04  0.00000000000E+00 0. -1.
         25    2    1    2    0    0 -0.92345008874E+02 -0.26358066650E+02 -0.77584955622E+03  0.79171501195E+03  0.12509107850E+03 0.  0.
         23    2    1    2    0    0  0.92345008874E+02  0.26358066650E+02 -0.57738905049E+03  0.59232480678E+03  0.90819671630E+02 0.  0.
          5    1    3    3  502    0 -0.26729555074E+02 -0.47660819958E+02 -0.11643014540E+03  0.12868361990E+03  0.41800000000E+01 0.  1.
         -5    1    3    3    0  502 -0.65615453800E+02  0.21302753307E+02 -0.65941941081E+03  0.66303139204E+03  0.41800000000E+01 0.  1.
        -11    1    4    4    0    0  0.80823152556E+02  0.56423669686E+02 -0.39482453541E+03  0.40694278007E+03  0.00000000000E+00 0.  1.
         11    1    4    4    0    0  0.11521856318E+02 -0.30065603036E+02 -0.18256451509E+03  0.18538202671E+03  0.00000000000E+00 0. -1.
</event>
<event>
 8    1  0.3654190E-009  0.1170846E+03  0.7561462E-02  0.1247985E+00
         -1   -1    0    0    0  501 -0.00000000000E+00  0.00000000000E+00  0.57507884208E+03  0.57507884208E+03  0.00000000000E+00 0.  1.
          1   -1    0    0  501    0  0.00000000000E+00 -0.00000000000E+00 -0.35896111577E+02  0.35896111577E+02  0.00000000000E+00 0. -1.
         25    2    1    2    0    0 -0.84427825180E+02 -0.32596840370E+02  0.34945962066E+03  0.38204864767E+03  0.12509408877E+03 0.  0.
         23    2    1    2    0    0  0.84427825180E+02  0.32596840370E+02  0.18972310984E+03  0.22892630598E+03  0.90674050854E+02 0.  0.
          5    1    3    3  502    0 -0.10277491139E+03 -0.21330924863E+02  0.16050512355E+03  0.19182559228E+03  0.41800000000E+01 0. -1.
         -5    1    3    3    0  502  0.18347086209E+02 -0.11265915507E+02  0.18895449711E+03  0.19022305539E+03  0.41800000000E+01 0. -1.
        -11    1    4    4    0    0  0.14853567518E+02  0.34528525364E+02  0.13572835879E+03  0.14083690891E+03  0.00000000000E+00 0.  1.
         11    1    4    4    0    0  0.69574257662E+02 -0.19316849940E+01  0.53994751050E+02  0.88089397075E+02  0.00000000000E+00 0. -1.
</event>
<event>
 8    1  0.3654190E-009  0.1541147E+03  0.7561462E-02  0.1195506E+00
          1   -1    0    0  501    0  0.00000000000E+00  0.00000000000E+00  0.70863922560E+02  0.70863922560E+02  0.00000000000E+00 0. -1.
         -1   -1    0    0    0  501 -0.00000000000E+00 -0.00000000000E+00 -0.49898334775E+03  0.49898334775E+03  0.00000000000E+00 0.  1.
         25    2    1    2    0    0 -0.21598947066E+02 -0.12952548590E+03 -0.33015237125E+03  0.37668489033E+03  0.12509017688E+03 0.  0.
         23    2    1    2    0    0  0.21598947066E+02  0.12952548590E+03 -0.97967053941E+02  0.19316237998E+03  0.10232690443E+03 0.  0.
          5    1    3    3  502    0 -0.48556953746E+02 -0.38655894143E+02 -0.23191351986E+03  0.24011124298E+03  0.41800000000E+01 0. -1.
         -5    1    3    3    0  502  0.26958006680E+02 -0.90869591754E+02 -0.98238851388E+02  0.13657364735E+03  0.41800000000E+01 0. -1.
        -11    1    4    4    0    0  0.41948427355E+02  0.35525650214E+02 -0.77195631570E+02  0.94767652256E+02  0.00000000000E+00 0.  1.
         11    1    4    4    0    0 -0.20349480289E+02  0.93999835683E+02 -0.20771422371E+02  0.98394727723E+02  0.00000000000E+00 0. -1.
</event>
<event>
 8    1  0.3654190E-009  0.1566669E+03  0.7561462E-02  0.1192512E+00
         -2   -1    0    0    0  501 -0.00000000000E+00  0.00000000000E+00  0.42070708294E+02  0.42070708294E+02  0.00000000000E+00 0.  1.
          2   -1    0    0  501    0  0.00000000000E+00 -0.00000000000E+00 -0.71997746659E+03  0.71997746659E+03  0.00000000000E+00 0. -1.
         25    2    1    2    0    0  0.74275139878E+02  0.11359291418E+03 -0.35992480275E+03  0.40449058751E+03  0.12508647088E+03 0.  0.
         23    2    1    2    0    0 -0.74275139878E+02 -0.11359291418E+03 -0.31798195555E+03  0.35755758737E+03  0.91185293105E+02 0.  0.
          5    1    3    3  502    0  0.57003400630E+02  0.19872545778E+02 -0.44929939712E+02  0.75368943482E+02  0.41800000000E+01 0. -1.
         -5    1    3    3    0  502  0.17271739247E+02  0.93720368398E+02 -0.31499486304E+03  0.32912164403E+03  0.41800000000E+01 0. -1.
        -11    1    4    4    0    0 -0.87243697959E+02 -0.69714420484E+02 -0.17651934551E+03  0.20887949300E+03  0.00000000000E+00 0.  1.
         11    1    4    4    0    0  0.12968558081E+02 -0.43878493692E+02 -0.14146261003E+03  0.14867809437E+03  0.00000000000E+00 0. -1.
</event>
<event>
 8    1  0.3654190E-009  0.8762462E+02  0.7561462E-02  0.1308708E+00
         -1   -1    0    0    0  501 -0.00000000000E+00  0.00000000000E+00  0.65165503013E+02  0.65165503013E+02  0.00000000000E+00 0.  1.
          1   -1    0    0  501    0  0.00000000000E+00 -0.00000000000E+00 -0.20568860580E+03  0.20568860580E+03  0.00000000000E+00 0. -1.
         25    2    1    2    0    0  0.35880340992E+02 -0.99736096607E+01 -0.58743717254E+02  0.14312378667E+03  0.12508685877E+03 0.  0.
         23    2    1    2    0    0 -0.35880340992E+02  0.99736096607E+01 -0.81779385534E+02  0.12773032214E+03  0.90776073587E+02 0.  0.
          5    1    3    3  502    0  0.33376142916E+02 -0.37447903859E+02  0.24026489241E+02  0.55776850078E+02  0.41800000000E+01 0.  1.
         -5    1    3    3    0  502  0.25041980761E+01  0.27474294198E+02 -0.82770206495E+02  0.87346936597E+02  0.41800000000E+01 0.  1.
        -11    1    4    4    0    0  0.12479764032E+02 -0.31131886143E+02 -0.37675159794E+02  0.50441614869E+02  0.00000000000E+00 0. -1.
         11    1    4    4    0    0 -0.48360105024E+02  0.41105495803E+02 -0.44104225739E+02  0.77288707269E+02  0.00000000000E+00 0.  1.
</event>
<event>
 8    1  0.3654190E-009  0.1638741E+03  0.7561462E-02  0.1184391E+00
          1   -1    0    0  501    0  0.00000000000E+00  0.00000000000E+00  0.63160334475E+03  0.63160334475E+03  0.00000000000E+00 0. -1.
         -1   -1    0    0    0  501 -0.00000000000E+00 -0.00000000000E+00 -0.52281167430E+02  0.52281167430E+02  0.00000000000E+00 0.  1.
         25    2    1    2    0    0 -0.41339416004E+02 -0.12979293329E+03  0.40080440248E+03  0.44141458497E+03  0.12509002328E+03 0.  0.
         23    2    1    2    0    0  0.41339416004E+02  0.12979293329E+03  0.17851777484E+03  0.24246992722E+03  0.91476318371E+02 0.  0.
          5    1    3    3  502    0 -0.30407316779E+02  0.45499250170E+01  0.18736475064E+02  0.36246856818E+02  0.41800000000E+01 0.  1.
         -5    1    3    3    0  502 -0.10932099226E+02 -0.13434285831E+03  0.38206792742E+03  0.40516772815E+03  0.41800000000E+01 0.  1.
        -11    1    4    4    0    0 -0.27411241767E+02  0.45176258123E+02  0.40456246331E+02  0.66550569797E+02  0.00000000000E+00 0.  1.
         11    1    4    4    0    0  0.68750657771E+02  0.84616675167E+02  0.13806152851E+03  0.17591935742E+03  0.00000000000E+00 0. -1.
</event>
<event>
 8    1  0.3654190E-009  0.1571947E+03  0.7561462E-02  0.1191901E+00
          1   -1    0    0  501    0  0.00000000000E+00  0.00000000000E+00  0.38971875252E+03  0.38971875252E+03  0.00000000000E+00 0. -1.
         -1   -1    0    0    0  501 -0.00000000000E+00 -0.00000000000E+00 -0.90501999046E+02  0.90501999046E+02  0.00000000000E+00 0.  1.
         25    2    1    2    0    0  0.11712858166E+03  0.87488086136E+02  0.21307492772E+03  0.28709164649E+03  0.12508964307E+03 0.  0.
         23    2    1    2    0    0 -0.11712858166E+03 -0.87488086136E+02  0.86141825757E+02  0.19312910508E+03  0.92223463532E+02 0.  0.
          5    1    3    3  502    0  0.12980920979E+03  0.75398903389E+02  0.11983627243E+03  0.19212920176E+03  0.41800000000E+01 0. -1.
         -5    1    3    3    0  502 -0.12680628126E+02  0.12089182747E+02  0.93238655290E+02  0.94962444732E+02  0.41800000000E+01 0. -1.
        -11    1    4    4    0    0 -0.60905708846E+02 -0.44699012282E+02  0.95597418417E+02  0.12184569536E+03  0.00000000000E+00 0.  1.
         11    1    4    4    0    0 -0.56222872817E+02 -0.42789073854E+02 -0.94555926600E+01  0.71283409722E+02  0.00000000000E+00 0. -1.
</event>
<event>
 8    1  0.3654190E-009  0.1399184E+03  0.7561462E-02  0.1213439E+00
         -1   -1    0    0    0  501 -0.00000000000E+00  0.00000000000E+00  0.87385573951E+02  0.87385573951E+02  0.00000000000E+00 0.  1.
          1   -1    0    0  501    0  0.00000000000E+00 -0.00000000000E+00 -0.25271261633E+03  0.25271261633E+03  0.00000000000E+00 0. -1.
         25    2    1    2    0    0 -0.99975136952E+02 -0.87242219906E+01 -0.11258502528E+03  0.19594347381E+03  0.12508923596E+03 0.  0.
         23    2    1    2    0    0  0.99975136952E+02  0.87242219906E+01 -0.52742017102E+02  0.14415471647E+03  0.89037755225E+02 0.  0.
          5    1    3    3  502    0 -0.14205434075E+02  0.46996478818E+02 -0.68756990072E+02  0.84589948944E+02  0.41800000000E+01 0. -1.
         -5    1    3    3    0  502 -0.85769702877E+02 -0.55720700808E+02 -0.43828035209E+02  0.11135352487E+03  0.41800000000E+01 0. -1.
        -11    1    4    4    0    0 -0.57276652673E+01 -0.18232723704E+02  0.62907469371E+01  0.20119936881E+02  0.00000000000E+00 0.  1.
         11    1    4    4    0    0  0.10570280222E+03  0.26956945695E+02 -0.59032764039E+02  0.12403477959E+03  0.00000000000E+00 0. -1.
</event>
<event>
 8    1  0.3654190E-009  0.1291044E+03  0.7561462E-02  0.1228791E+00
          1   -1    0    0  501    0  0.00000000000E+00  0.00000000000E+00  0.78787182470E+03  0.78787182470E+03  0.00000000000E+00 0. -1.
         -1   -1    0    0    0  501 -0.00000000000E+00 -0.00000000000E+00 -0.45822223043E+02  0.45822223043E+02  0.00000000000E+00 0.  1.
         25    2    1    2    0    0 -0.87729618494E+02 -0.21537375002E+02  0.66904330510E+03  0.68660621217E+03  0.12509517177E+03 0.  0.
         23    2    1    2    0    0  0.87729618494E+02  0.21537375002E+02  0.73006296550E+02  0.14708783557E+03  0.90247257877E+02 0.  0.
          5    1    3    3  502    0 -0.44633953765E+02  0.51987255542E+02  0.32072444357E+03  0.32798857552E+03  0.41800000000E+01 0. -1.
         -5    1    3    3    0  502 -0.43095664729E+02 -0.73524630544E+02  0.34831886153E+03  0.35861763665E+03  0.41800000000E+01 0. -1.
        -11    1    4    4    0    0  0.16885427993E+02  0.28420559093E+02 -0.12934777608E+02  0.35498652502E+02  0.00000000000E+00 0.  1.
         11    1    4    4    0    0  0.70844190501E+02 -0.68831840914E+01  0.85941074158E+02  0.11158918307E+03  0.00000000000E+00 0. -1.
</event>
<event>
 8    1  0.3654190E-009  0.6518185E+02  0.7561462E-02  0.1377289E+00
          1   -1    0    0  501    0  0.00000000000E+00  0.00000000000E+00  0.36482875850E+03  0.36482875850E+03  0.00000000000E+00 0. -1.
         -1   -1    0    0    0  501 -0.00000000000E+00 -0.00000000000E+00 -0.33382487815E+02  0.33382487815E+02  0.00000000000E+00 0.  1.
         25    2    1    2    0    0 -0.73700387310E+01 -0.20503295771E+02  0.20495344936E+03  0.24109688651E+03  0.12508832748E+03 0.  0.
         23    2    1    2    0    0  0.73700387310E+01  0.20503295771E+02  0.12649282133E+03  0.15711435981E+03  0.90607867215E+02 0.  0.
          5    1    3    3  502    0 -0.14576568901E+02 -0.36042562096E+02  0.39276907069E+01  0.39299386734E+02  0.41800000000E+01 0.  1.
         -5    1    3    3    0  502  0.72065301704E+01  0.15539266324E+02  0.20102575865E+03  0.20179749977E+03  0.41800000000E+01 0.  1.
        -11    1    4    4    0    0 -0.50792746141E+01 -0.25484806215E+02  0.47974064081E+01  0.26425167676E+02  0.00000000000E+00 0.  1.
         11    1    4    4    0    0  0.12449313345E+02  0.45988101987E+02  0.12169541492E+03  0.13068919213E+03  0.00000000000E+00 0. -1.
</event>
<event>
 8    1  0.3654190E-009  0.1120151E+03  0.7561462E-02  0.1256883E+00
         -2   -1    0    0    0  501 -0.00000000000E+00  0.00000000000E+00  0.19313917027E+02  0.19313917027E+02  0.00000000000E+00 0.  1.
          2   -1    0    0  501    0  0.00000000000E+00 -0.00000000000E+00 -0.72690302202E+03  0.72690302202E+03  0.00000000000E+00 0. -1.
         25    2    1    2    0    0 -0.42362910035E+02 -0.22124595050E+02 -0.37999473823E+03  0.40289967353E+03  0.12509209406E+03 0.  0.
         23    2    1    2    0    0  0.42362910035E+02  0.22124595050E+02 -0.32759436676E+03  0.34331726551E+03  0.90909635432E+02 0.  0.
          5    1    3    3  502    0  0.27713706255E+02  0.33767153789E+02 -0.13762663034E+03  0.14445356336E+03  0.41800000000E+01 0. -1.
         -5    1    3    3    0  502 -0.70076616290E+02 -0.55891748839E+02 -0.24236810789E+03  0.25844611017E+03  0.41800000000E+01 0. -1.
        -11    1    4    4    0    0  0.35918497598E+02  0.50133612497E+02 -0.28716661343E+03  0.29371445562E+03  0.00000000000E+00 0. -1.
         11    1    4    4    0    0  0.64444124375E+01 -0.28009017446E+02 -0.40427753328E+02  0.49602809892E+02  0.00000000000E+00 0.  1.
</event>
<event>
 8    1  0.3654190E-009  0.1445562E+03  0.7561462E-02  0.1207327E+00
         -2   -1    0    0    0  501 -0.00000000000E+00  0.00000000000E+00  0.11318102530E+04  0.11318102530E+04  0.00000000000E+00 0.  1.
          2   -1    0    0  501    0  0.00000000000E+00 -0.00000000000E+00 -0.21331750922E+02  0.21331750922E+02  0.00000000000E+00 0. -1.
         25    2    1    2    0    0 -0.10933349451E+03  0.28880792806E+01  0.51496802647E+03  0.54111005450E+03  0.12508344719E+03 0.  0.
         23    2    1    2    0    0  0.10933349451E+03 -0.28880792806E+01  0.59551047561E+03  0.61203194943E+03  0.89376879218E+02 0.  0.
          5    1    3    3  502    0  0.20541528591E+02 -0.67366500767E+00  0.18928462413E+03  0.19044303493E+03  0.41800000000E+01 0.  1.
         -5    1    3    3    0  502 -0.12987502310E+03  0.35617442882E+01  0.32568340235E+03  0.35066701957E+03  0.41800000000E+01 0.  1.
        -11    1    4    4    0    0  0.16118367012E+02  0.34213790904E+02  0.11171804303E+03  0.11794620122E+03  0.00000000000E+00 0. -1.
         11    1    4    4    0    0  0.93215127501E+02 -0.37101870185E+02  0.48379243257E+03  0.49408574821E+03  0.00000000000E+00 0.  1.
</event>
<event>
 8    1  0.3654190E-009  0.1387519E+03  0.7561462E-02  0.1215018E+00
         -2   -1    0    0    0  501 -0.00000000000E+00  0.00000000000E+00  0.38721700996E+02  0.38721700996E+02  0.00000000000E+00 0. -1.
          2   -1    0    0  501    0  0.00000000000E+00 -0.00000000000E+00 -0.63322563600E+03  0.63322563600E+03  0.00000000000E+00 0.  1.
         25    2    1    2    0    0 -0.10031731983E+03  0.50935365197E+02 -0.30160414279E+03  0.34535570967E+03  0.12509009220E+03 0.  0.
         23    2    1    2    0    0  0.10031731983E+03 -0.50935365197E+02 -0.29289979221E+03  0.32659162732E+03  0.90630164262E+02 0.  0.
          5    1    3    3  502    0 -0.99581984731E+01  0.42144707776E+02 -0.17198874652E+02  0.46782644214E+02  0.41800000000E+01 0. -1.
         -5    1    3    3    0  502 -0.90359121359E+02  0.87906574207E+01 -0.28440526814E+03  0.29857306546E+03  0.41800000000E+01 0. -1.
        -11    1    4    4    0    0 -0.93257550845E+01 -0.30098224895E+02 -0.47446705807E+02  0.56956674251E+02  0.00000000000E+00 0.  1.
         11    1    4    4    0    0  0.10964307492E+03 -0.20837140301E+02 -0.24545308640E+03  0.26963495307E+03  0.00000000000E+00 0. -1.
</event>
<event>
 8    1  0.3654190E-009  0.2466884E+03  0.7561462E-02  0.1115416E+00
         -1   -1    0    0    0  501 -0.00000000000E+00  0.00000000000E+00  0.12211915674E+03  0.12211915674E+03  0.00000000000E+00 0.  1.
          1   -1    0    0  501    0  0.00000000000E+00 -0.00000000000E+00 -0.51634188567E+03  0.51634188567E+03  0.00000000000E+00 0. -1.
         25    2    1    2    0    0 -0.77191450105E+01  0.22297127319E+03 -0.25110534226E+03  0.35843867293E+03  0.12509442624E+03 0.  0.
         23    2    1    2    0    0  0.77191450105E+01 -0.22297127319E+03 -0.14311738667E+03  0.28002236948E+03  0.90300427310E+02 0.  0.
          5    1    3    3  502    0  0.24362794647E+02 -0.33125341323E+01 -0.12099098096E+02  0.27719654041E+02  0.41800000000E+01 0. -1.
         -5    1    3    3    0  502 -0.32081939658E+02  0.22628380732E+03 -0.23900624416E+03  0.33071901889E+03  0.41800000000E+01 0. -1.
        -11    1    4    4    0    0 -0.40323258774E+02 -0.10456610003E+03 -0.78527418028E+02  0.13684513092E+03  0.00000000000E+00 0.  1.
         11    1    4    4    0    0  0.48042403784E+02 -0.11840517316E+03 -0.64589968646E+02  0.14317723856E+03  0.00000000000E+00 0. -1.
</event>
<event>
 8    1  0.3654190E-009  0.1583298E+03  0.7561462E-02  0.1190595E+00
          1   -1    0    0  501    0  0.00000000000E+00  0.00000000000E+00  0.12427179797E+04  0.12427179797E+04  0.00000000000E+00 0. -1.
         -1   -1    0    0    0  501 -0.00000000000E+00 -0.00000000000E+00 -0.21694023550E+02  0.21694023550E+02  0.00000000000E+00 0.  1.
         25    2    1    2    0    0 -0.24835063730E+02 -0.11796510150E+03  0.75082729411E+03  0.77066187954E+03  0.12508221875E+03 0.  0.
         23    2    1    2    0    0  0.24835063730E+02  0.11796510150E+03  0.47019666203E+03  0.49375012369E+03  0.90397666442E+02 0.  0.
          5    1    3    3  502    0  0.32837099501E+02 -0.11001663985E+03  0.47066079941E+03  0.48448013029E+03  0.41800000000E+01 0. -1.
         -5    1    3    3    0  502 -0.57672163231E+02 -0.79484616497E+01  0.28016649470E+03  0.28618174925E+03  0.41800000000E+01 0. -1.
        -11    1    4    4    0    0  0.47011282140E+02  0.38084254611E+02  0.27678065263E+03  0.28331607926E+03  0.00000000000E+00 0. -1.
         11    1    4    4    0    0 -0.22176218410E+02  0.79880846890E+02  0.19341600940E+03  0.21043404443E+03  0.00000000000E+00 0.  1.
</event>
<event>
 8    1  0.3654190E-009  0.1379915E+03  0.7561462E-02  0.1216057E+00
          1   -1    0    0  501    0  0.00000000000E+00  0.00000000000E+00  0.57636699313E+02  0.57636699313E+02  0.00000000000E+00 0. -1.
         -1   -1    0    0    0  501 -0.00000000000E+00 -0.00000000000E+00 -0.35674458820E+03  0.35674458820E+03  0.00000000000E+00 0.  1.
         25    2    1    2    0    0  0.92637131225E+02  0.97361827049E+01 -0.16329433126E+03  0.22580718663E+03  0.12508963017E+03 0.  0.
         23    2    1    2    0    0 -0.92637131225E+02 -0.97361827049E+01 -0.13581355763E+03  0.18857410088E+03  0.91860969693E+02 0.  0.
          5    1    3    3  502    0  0.13942508417E+02 -0.52308107082E+02 -0.43523491549E+02  0.69586624606E+02  0.41800000000E+01 0. -1.
         -5    1    3    3    0  502  0.78694622808E+02  0.62044289787E+02 -0.11977083971E+03  0.15622056202E+03  0.41800000000E+01 0. -1.
        -11    1    4    4    0    0 -0.10044994393E+03  0.92334630221E+01 -0.13435321275E+03  0.16800664823E+03  0.00000000000E+00 0.  1.
         11    1    4    4    0    0  0.78128127055E+01 -0.18969645727E+02 -0.14603448822E+01  0.20567452651E+02  0.00000000000E+00 0. -1.
</event>
<event>
 8    1  0.3654190E-009  0.1248356E+03  0.7561462E-02  0.1235326E+00
          2   -1    0    0  501    0  0.00000000000E+00  0.00000000000E+00  0.32443945804E+03  0.32443945804E+03  0.00000000000E+00 0. -1.
         -2   -1    0    0    0  501 -0.00000000000E+00 -0.00000000000E+00 -0.50195946943E+02  0.50195946943E+02  0.00000000000E+00 0.  1.
         25    2    1    2    0    0 -0.60831304791E+02  0.16139180356E+02  0.18139270494E+03  0.22915311622E+03  0.12508763521E+03 0.  0.
         23    2    1    2    0    0  0.60831304791E+02 -0.16139180356E+02  0.92850806154E+02  0.14548228876E+03  0.92643960166E+02 0.  0.
          5    1    3    3  502    0 -0.34189810098E+02 -0.53888258126E+02  0.69731638724E+02  0.94619560967E+02  0.41800000000E+01 0.  1.
         -5    1    3    3    0  502 -0.26641494693E+02  0.70027438483E+02  0.11166106622E+03  0.13453355525E+03  0.41800000000E+01 0.  1.
        -11    1    4    4    0    0 -0.45328750100E+00 -0.43540840970E+02  0.25859944462E+02  0.50643331541E+02  0.00000000000E+00 0.  1.
         11    1    4    4    0    0  0.61284592292E+02  0.27401660614E+02  0.66990861692E+02  0.94838957223E+02  0.00000000000E+00 0. -1.
</event>
<event>
 8    1  0.3654190E-009  0.2164248E+03  0.7561462E-02  0.1136577E+00
          1   -1    0    0  501    0  0.00000000000E+00  0.00000000000E+00  0.82541885491E+03  0.82541885491E+03  0.00000000000E+00 0. -1.
         -1   -1    0    0    0  501 -0.00000000000E+00 -0.00000000000E+00 -0.72115485853E+02  0.72115485853E+02  0.00000000000E+00 0.  1.
         25    2    1    2    0    0 -0.12914982656E+03 -0.17046340271E+03  0.30928578440E+03  0.39628834841E+03  0.12509719934E+03 0.  0.
         23    2    1    2    0    0  0.12914982656E+03  0.17046340271E+03  0.44401758465E+03  0.50124599236E+03  0.91424723166E+02 0.  0.
          5    1    3    3  502    0 -0.73382663122E+02 -0.10782829547E+03  0.82329324424E+02  0.15429694297E+03  0.41800000000E+01 0.  1.
         -5    1    3    3    0  502 -0.55767163442E+02 -0.62635107248E+02  0.22695645998E+03  0.24199140544E+03  0.41800000000E+01 0.  1.
        -11    1    4    4    0    0  0.70522786355E+01  0.36306357193E+02  0.24982341582E+02  0.44631867511E+02  0.00000000000E+00 0.  1.
         11    1    4    4    0    0  0.12209754793E+03  0.13415704552E+03  0.41903524307E+03  0.45661412485E+03  0.00000000000E+00 0. -1.
</event>
<event>
 8    1  0.3654190E-009  0.7959224E+02  0.7561462E-02  0.1330213E+00
         -2   -1    0    0    0  501 -0.00000000000E+00  0.00000000000E+00  0.15697600798E+03  0.15697600798E+03  0.00000000000E+00 0. -1.
          2   -1    0    0  501    0  0.00000000000E+00 -0.00000000000E+00 -0.11090671800E+03  0.11090671800E+03  0.00000000000E+00 0.  1.
         25    2    1    2    0    0 -0.60642896168E+02  0.20472255708E+02  0.65004311775E+02  0.15481836195E+03  0.12508593261E+03 0.  0.
         23    2    1    2    0    0  0.60642896168E+02 -0.20472255708E+02 -0.18935021796E+02  0.11306436402E+03  0.91259746066E+02 0.  0.
          5    1    3    3  502    0 -0.30657987282E+01  0.15672575551E+02 -0.35310874291E+02  0.38978955725E+02  0.41800000000E+01 0. -1.
         -5    1    3    3    0  502 -0.57577097440E+02  0.47996801573E+01  0.10031518607E+03  0.11583940623E+03  0.41800000000E+01 0. -1.
        -11    1    4    4    0    0  0.22068040220E+02 -0.36760936207E+02 -0.46252367398E+02  0.63068584255E+02  0.00000000000E+00 0.  1.
         11    1    4    4    0    0  0.38574855948E+02  0.16288680499E+02  0.27317345602E+02  0.49995779767E+02  0.00000000000E+00 0. -1.
</event>
<event>
 8    1  0.3654190E-009  0.8125104E+02  0.7561462E-02  0.1325538E+00
          1   -1    0    0  501    0  0.00000000000E+00  0.00000000000E+00  0.97774812664E+02  0.97774812664E+02  0.00000000000E+00 0. -1.
         -1   -1    0    0    0  501 -0.00000000000E+00 -0.00000000000E+00 -0.14893180414E+03  0.14893180414E+03  0.00000000000E+00 0.  1.
         25    2    1    2    0    0 -0.46680512020E+02  0.29327851044E+02 -0.47894985955E+02  0.14484657403E+03  0.12508959701E+03 0.  0.
         23    2    1    2    0    0  0.46680512020E+02 -0.29327851044E+02 -0.32620055212E+01  0.10186004277E+03  0.85589921045E+02 0.  0.
          5    1    3    3  502    0 -0.12603951841E+01  0.12671480545E+02  0.41229066132E+02  0.43352777412E+02  0.41800000000E+01 0.  1.
         -5    1    3    3    0  502 -0.45420116836E+02  0.16656370499E+02 -0.89124052087E+02  0.10149379662E+03  0.41800000000E+01 0.  1.
        -11    1    4    4    0    0  0.67473652916E+02 -0.38644304998E+02 -0.92410597574E+01  0.78303724892E+02  0.00000000000E+00 0.  1.
         11    1    4    4    0    0 -0.20793140896E+02  0.93164539532E+01  0.59790542362E+01  0.23556317882E+02  0.00000000000E+00 0. -1.
</event>
<event>
 8    1  0.3654190E-009  0.1800551E+03  0.7561462E-02  0.1167750E+00
          2   -1    0    0  501    0  0.00000000000E+00  0.00000000000E+00  0.40100703335E+03  0.40100703335E+03  0.00000000000E+00 0. -1.
         -2   -1    0    0    0  501 -0.00000000000E+00 -0.00000000000E+00 -0.12341051402E+03  0.12341051402E+03  0.00000000000E+00 0.  1.
         25    2    1    2    0    0  0.36741807693E+02  0.15614387835E+03  0.27362440847E+03  0.34095173293E+03  0.12508755373E+03 0.  0.
         23    2    1    2    0    0 -0.36741807693E+02 -0.15614387835E+03  0.39721108651E+01  0.18346581444E+03  0.88955360865E+02 0.  0.
          5    1    3    3  502    0 -0.38263607452E+02  0.26915148642E+02  0.10844528939E+03  0.11817944861E+03  0.41800000000E+01 0.  1.
         -5    1    3    3    0  502  0.75005415145E+02  0.12922872971E+03  0.16517911908E+03  0.22277228432E+03  0.41800000000E+01 0.  1.
        -11    1    4    4    0    0 -0.28722951862E+02 -0.53623191780E+02 -0.38734407109E+02  0.72116634380E+02  0.00000000000E+00 0.  1.
         11    1    4    4    0    0 -0.80188558314E+01 -0.10252068657E+03  0.42706517974E+02  0.11134918006E+03  0.00000000000E+00 0. -1.
</event>
<event>
 8    1  0.3654190E-009  0.1272937E+03  0.7561462E-02  0.1231528E+00
          4   -1    0    0  501    0  0.00000000000E+00  0.00000000000E+00  0.50140427372E+02  0.50140427372E+02  0.00000000000E+00 0. -1.
         -4   -1    0    0    0  501 -0.00000000000E+00 -0.00000000000E+00 -0.42406662101E+03  0.42406662101E+03  0.00000000000E+00 0.  1.
         25    2    1    2    0    0 -0.67323354642E+02  0.57175623802E+02 -0.13484117854E+03  0.20403904735E+03  0.12509317876E+03 0.  0.
         23    2    1    2    0    0  0.67323354642E+02 -0.57175623802E+02 -0.23908501509E+03  0.27016800103E+03  0.89596977089E+02 0.  0.
          5    1    3    3  502    0  0.34055415273E+02  0.69548684084E+00 -0.48128365052E+02  0.59110633003E+02  0.41800000000E+01 0.  1.
         -5    1    3    3    0  502 -0.10137876991E+03  0.56480136961E+02 -0.86712813493E+02  0.14492841434E+03  0.41800000000E+01 0.  1.
        -11    1    4    4    0    0  0.14295720443E+02 -0.48309303922E+02 -0.41115870446E+02  0.65028234414E+02  0.00000000000E+00 0. -1.
         11    1    4    4    0    0  0.53027634199E+02 -0.88663198795E+01 -0.19796914464E+03  0.20513976662E+03  0.00000000000E+00 0.  1.
</event>
<event>
 8    1  0.3654190E-009  0.7014539E+02  0.7561462E-02  0.1359599E+00
         -2   -1    0    0    0  501 -0.00000000000E+00  0.00000000000E+00  0.49457072493E+02  0.49457072493E+02  0.00000000000E+00 0.  1.
          2   -1    0    0  501    0  0.00000000000E+00 -0.00000000000E+00 -0.33527347490E+03  0.33527347490E+03  0.00000000000E+00 0. -1.
         25    2    1    2    0    0 -0.35581656871E+02  0.38126532620E+02 -0.89387150611E+02  0.16235169305E+03  0.12509325620E+03 0.  0.
         23    2    1    2    0    0  0.35581656871E+02 -0.38126532620E+02 -0.19642925180E+03  0.22237885435E+03  0.90267475338E+02 0.  0.
          5    1    3    3  502    0 -0.14313033857E+02  0.16565945141E+02  0.30978940595E+02  0.38163603564E+02  0.41800000000E+01 0. -1.
         -5    1    3    3    0  502 -0.21268623014E+02  0.21560587480E+02 -0.12036609121E+03  0.12418808948E+03  0.41800000000E+01 0. -1.
        -11    1    4    4    0    0  0.55279257417E+02 -0.15459898851E+02 -0.61405810546E+02  0.84056399767E+02  0.00000000000E+00 0.  1.
         11    1    4    4    0    0 -0.19697600546E+02 -0.22666633769E+02 -0.13502344125E+03  0.13832245458E+03  0.00000000000E+00 0. -1.
</event>
<event>
 8    1  0.3654190E-009  0.1419201E+03  0.7561462E-02  0.1210768E+00
         -3   -1    0    0    0  501 -0.00000000000E+00  0.00000000000E+00  0.16491809195E+04  0.16491809195E+04  0.00000000000E+00 0.  1.
          3   -1    0    0  501    0  0.00000000000E+00 -0.00000000000E+00 -0.18281833192E+02  0.18281833192E+02  0.00000000000E+00 0. -1.
         25    2    1    2    0    0  0.12070523471E+03  0.42391087470E+02  0.11095105214E+04  0.11238451487E+04  0.12509022007E+03 0.  0.
         23    2    1    2    0    0 -0.12070523471E+03 -0.42391087470E+02  0.52138856489E+03  0.54361760398E+03  0.85482780597E+02 0.  0.
          5    1    3    3  502    0  0.27091558394E+02  0.28913227520E+02  0.77966506149E+03  0.78068239878E+03  0.41800000000E+01 0. -1.
         -5    1    3    3    0  502  0.93613676317E+02  0.13477859950E+02  0.32984545995E+03  0.34316274995E+03  0.41800000000E+01 0. -1.
        -11    1    4    4    0    0 -0.75824310225E+02 -0.64269102211E+02  0.27999677452E+03  0.29711620161E+03  0.00000000000E+00 0.  1.
         11    1    4    4    0    0 -0.44880924485E+02  0.21878014740E+02  0.24139179037E+03  0.24650140237E+03  0.00000000000E+00 0. -1.
</event>
<event>
 8    1  0.3654190E-009  0.1093114E+03  0.7561462E-02  0.1261850E+00
          1   -1    0    0  501    0  0.00000000000E+00  0.00000000000E+00  0.10383479017E+04  0.10383479017E+04  0.00000000000E+00 0. -1.
         -1   -1    0    0    0  501 -0.00000000000E+00 -0.00000000000E+00 -0.17780330988E+02  0.17780330988E+02  0.00000000000E+00 0.  1.
         25    2    1    2    0    0 -0.14490763132E+02 -0.58852585504E+02  0.75784745026E+03  0.77048885155E+03  0.12508678370E+03 0.  0.
         23    2    1    2    0    0  0.14490763132E+02  0.58852585504E+02  0.26272012044E+03  0.28563938113E+03  0.94310048941E+02 0.  0.
          5    1    3    3  502    0 -0.68536946495E+02 -0.40319824476E+02  0.50448069220E+03  0.51072619130E+03  0.41800000000E+01 0. -1.
         -5    1    3    3    0  502  0.54046183363E+02 -0.18532761028E+02  0.25336675806E+03  0.25976266024E+03  0.41800000000E+01 0. -1.
        -11    1    4    4    0    0  0.11130689483E+02 -0.86653991787E+01 -0.26097453685E+00  0.14108490316E+02  0.00000000000E+00 0.  1.
         11    1    4    4    0    0  0.33600736496E+01  0.67517984683E+02  0.26298109498E+03  0.27153089082E+03  0.00000000000E+00 0. -1.
</event>
<event>
 8    1  0.3654190E-009  0.9715798E+02  0.7561462E-02  0.1286388E+00
         -1   -1    0    0    0  501 -0.00000000000E+00  0.00000000000E+00  0.30180117096E+03  0.30180117096E+03  0.00000000000E+00 0.  1.
          1   -1    0    0  501    0  0.00000000000E+00 -0.00000000000E+00 -0.47337601534E+02  0.47337601534E+02  0.00000000000E+00 0. -1.
         25    2    1    2    0    0 -0.54053091069E+01 -0.45249426283E+02  0.11211992837E+03  0.17405708611E+03  0.12509301716E+03 0.  0.
         23    2    1    2    0    0  0.54053091069E+01  0.45249426283E+02  0.14234364105E+03  0.17508168638E+03  0.91187481661E+02 0.  0.
          5    1    3    3  502    0  0.44042870072E+02  0.13697507055E+02  0.75902003924E+02  0.88915593140E+02  0.41800000000E+01 0. -1.
         -5    1    3    3    0  502 -0.49448179179E+02 -0.58946933338E+02  0.36217924445E+02  0.85141492970E+02  0.41800000000E+01 0. -1.
        -11    1    4    4    0    0 -0.23111360020E+02  0.32080744917E+02  0.13778059377E+03  0.14334155425E+03  0.00000000000E+00 0. -1.
         11    1    4    4    0    0  0.28516669127E+02  0.13168681366E+02  0.45630472864E+01  0.31740132128E+02  0.00000000000E+00 0.  1.
</event>
<event>
 8    1  0.3654190E-009  0.9575099E+02  0.7561462E-02  0.1289494E+00
          3   -1    0    0  501    0  0.00000000000E+00  0.00000000000E+00  0.82616726927E+02  0.82616726927E+02  0.00000000000E+00 0. -1.
         -3   -1    0    0    0  501 -0.00000000000E+00 -0.00000000000E+00 -0.18809459296E+03  0.18809459296E+03  0.00000000000E+00 0.  1.
         25    2    1    2    0    0 -0.85273336952E+01  0.59113705334E+02 -0.69835191374E+02  0.15521456321E+03  0.12508981213E+03 0.  0.
         23    2    1    2    0    0  0.85273336952E+01 -0.59113705334E+02 -0.35642674660E+02  0.11549675668E+03  0.92206046272E+02 0.  0.
          5    1    3    3  502    0 -0.34760718987E+01 -0.24263656516E+02  0.20413649289E+02  0.32171378283E+02  0.41800000000E+01 0.  1.
         -5    1    3    3    0  502 -0.50512617966E+01  0.83377361850E+02 -0.90248840663E+02  0.12304318492E+03  0.41800000000E+01 0.  1.
        -11    1    4    4    0    0  0.32976417324E+02 -0.40767268124E+02 -0.57576275209E+02  0.77874525468E+02  0.00000000000E+00 0.  1.
         11    1    4    4    0    0 -0.24449083629E+02 -0.18346437210E+02  0.21933600549E+02  0.37622231215E+02  0.00000000000E+00 0. -1.
</event>
<event>
 8    1  0.3654190E-009  0.2605107E+03  0.7561462E-02  0.1106837E+00
         -2   -1    0    0    0  501 -0.00000000000E+00  0.00000000000E+00  0.31448964446E+02  0.31448964446E+02  0.00000000000E+00 0. -1.
          2   -1    0    0  501    0  0.00000000000E+00 -0.00000000000E+00 -0.30142236322E+04  0.30142236322E+04  0.00000000000E+00 0.  1.
         25    2    1    2    0    0  0.41964897731E+02  0.24290786005E+03 -0.22483521440E+04  0.22652815832E+04  0.12509199126E+03 0.  0.
         23    2    1    2    0    0 -0.41964897731E+02 -0.24290786005E+03 -0.73442252370E+03  0.78039101347E+03  0.94172233024E+02 0.  0.
          5    1    3    3  502    0  0.19995755138E+02 -0.81966349079E+01 -0.11515429374E+03  0.11723906693E+03  0.41800000000E+01 0.  1.
         -5    1    3    3    0  502  0.21969142592E+02  0.25110449496E+03 -0.21331978503E+04  0.21480425162E+04  0.41800000000E+01 0.  1.
        -11    1    4    4    0    0 -0.39597132356E+01 -0.58204832629E+02 -0.31737196643E+03  0.32268939701E+03  0.00000000000E+00 0.  1.
         11    1    4    4    0    0 -0.38005184495E+02 -0.18470302743E+03 -0.41705055727E+03  0.45770161646E+03  0.00000000000E+00 0. -1.
</event>
<event>
 8    1  0.3654190E-009  0.7486402E+02  0.7561462E-02  0.1344293E+00
         -4   -1    0    0    0  501 -0.00000000000E+00  0.00000000000E+00  0.31886320395E+03  0.31886320395E+03  0.00000000000E+00 0.  1.
          4   -1    0    0  501    0  0.00000000000E+00 -0.00000000000E+00 -0.43324265170E+02  0.43324265170E+02  0.00000000000E+00 0. -1.
         25    2    1    2    0    0  0.20771187282E+02  0.38044371385E+02  0.14378263194E+03  0.19544801940E+03  0.12509063365E+03 0.  0.
         23    2    1    2    0    0 -0.20771187282E+02 -0.38044371385E+02  0.13175630684E+03  0.16673944972E+03  0.92539198637E+02 0.  0.
          5    1    3    3  502    0  0.45140210966E+02  0.55989991446E+02  0.14800456202E+03  0.16460662371E+03  0.41800000000E+01 0. -1.
         -5    1    3    3    0  502 -0.24369023684E+02 -0.17945620061E+02 -0.42219300881E+01  0.30841395694E+02  0.41800000000E+01 0. -1.
        -11    1    4    4    0    0 -0.15695399934E+02 -0.99441209661E+01 -0.10705630683E+02  0.21443918699E+02  0.00000000000E+00 0. -1.
         11    1    4    4    0    0 -0.50757873483E+01 -0.28100250419E+02  0.14246193752E+03  0.14529553102E+03  0.00000000000E+00 0.  1.
</event>
<event>
 8    1  0.3654190E-009  0.1167348E+03  0.7561462E-02  0.1248583E+00
          4   -1    0    0  501    0  0.00000000000E+00  0.00000000000E+00  0.14003668458E+03  0.14003668458E+03  0.00000000000E+00 0. -1.
         -4   -1    0    0    0  501 -0.00000000000E+00 -0.00000000000E+00 -0.15361614505E+03  0.15361614505E+03  0.00000000000E+00 0.  1.
         25    2    1    2    0    0  0.95002320391E+02 -0.19008894277E+02  0.10147395297E+02  0.15854822827E+03  0.12509113524E+03 0.  0.
         23    2    1    2    0    0 -0.95002320391E+02  0.19008894277E+02 -0.23726855773E+02  0.13510460136E+03  0.91123601124E+02 0.  0.
          5    1    3    3  502    0  0.68624092255E+02  0.97321256379E+01  0.62297960368E+02  0.93287129730E+02  0.41800000000E+01 0. -1.
         -5    1    3    3    0  502  0.26378228136E+02 -0.28741019915E+02 -0.52150565071E+02  0.65261098539E+02  0.41800000000E+01 0. -1.
        -11    1    4    4    0    0 -0.46852881480E+02  0.49221333105E+02 -0.36072554228E+02  0.76936085838E+02  0.00000000000E+00 0.  1.
         11    1    4    4    0    0 -0.48149438911E+02 -0.30212438828E+02  0.12345698455E+02  0.58168515519E+02  0.00000000000E+00 0. -1.
</event>
<event>
 8    1  0.3654190E-009  0.8455081E+02  0.7561462E-02  0.1316611E+00
         -1   -1    0    0    0  501 -0.00000000000E+00  0.00000000000E+00  0.15085391488E+03  0.15085391488E+03  0.00000000000E+00 0.  1.
          1   -1    0    0  501    0  0.00000000000E+00 -0.00000000000E+00 -0.15814309097E+03  0.15814309097E+03  0.00000000000E+00 0. -1.
         25    2    1    2    0    0  0.49685769963E+02 -0.23517494601E+02 -0.99153484609E+02  0.16882292264E+03  0.12509203576E+03 0.  0.
         23    2    1    2    0    0 -0.49685769963E+02  0.23517494601E+02  0.91864308521E+02  0.14017408321E+03  0.90487425284E+02 0.  0.
          5    1    3    3  502    0  0.11573894765E+02 -0.28720663519E+02  0.24214149116E+02  0.39530102079E+02  0.41800000000E+01 0.  1.
         -5    1    3    3    0  502  0.38111875198E+02  0.52031689176E+01 -0.12336763373E+03  0.12929282056E+03  0.41800000000E+01 0.  1.
        -11    1    4    4    0    0  0.19389535272E+02 -0.10626540629E+02  0.44599738750E+02  0.49779655889E+02  0.00000000000E+00 0.  1.
         11    1    4    4    0    0 -0.69075305234E+02  0.34144035230E+02  0.47264569770E+02  0.90394427321E+02  0.00000000000E+00 0. -1.
</event>
<event>
 8    1  0.3654190E-009  0.9837137E+02  0.7561462E-02  0.1283758E+00
          2   -1    0    0  501    0  0.00000000000E+00  0.00000000000E+00  0.58765633050E+02  0.58765633050E+02  0.00000000000E+00 0. -1.
         -2   -1    0    0    0  501 -0.00000000000E+00 -0.00000000000E+00 -0.32711345947E+03  0.32711345947E+03  0.00000000000E+00 0.  1.
         25    2    1    2    0    0 -0.71326182106E+01 -0.84264815771E+02 -0.16985566552E+03  0.22726607564E+03  0.12508992208E+03 0.  0.
         23    2    1    2    0    0  0.71326182106E+01  0.84264815771E+02 -0.98492160898E+02  0.15861301688E+03  0.91136984514E+02 0.  0.
          5    1    3    3  502    0 -0.24806852776E+02 -0.46890043186E+02 -0.84163627960E+00  0.53218764043E+02  0.41800000000E+01 0.  1.
         -5    1    3    3    0  502  0.17674234565E+02 -0.37374772585E+02 -0.16901402924E+03  0.17404731159E+03  0.41800000000E+01 0.  1.
        -11    1    4    4    0    0 -0.12951553542E+02 -0.22637452505E+01  0.11335017757E+02  0.17359432861E+02  0.00000000000E+00 0. -1.
         11    1    4    4    0    0  0.20084171752E+02  0.86528561021E+02 -0.10982717865E+03  0.14125358402E+03  0.00000000000E+00 0.  1.
</event>
<event>
 8    1  0.3654190E-009  0.1083574E+03  0.7561462E-02  0.1263642E+00
          1   -1    0    0  501    0  0.00000000000E+00  0.00000000000E+00  0.45555677662E+03  0.45555677662E+03  0.00000000000E+00 0. -1.
         -1   -1    0    0    0  501 -0.00000000000E+00 -0.00000000000E+00 -0.30169086393E+02  0.30169086393E+02  0.00000000000E+00 0.  1.
         25    2    1    2    0    0  0.28771126205E+02  0.27016407627E+02  0.21691725874E+03  0.25349277736E+03  0.12509127487E+03 0.  0.
         23    2    1    2    0    0 -0.28771126205E+02 -0.27016407627E+02  0.20847043149E+03  0.23223308565E+03  0.94417272171E+02 0.  0.
          5    1    3    3  502    0 -0.43021119040E+02 -0.15130449432E+02  0.56651273322E+02  0.72846320102E+02  0.41800000000E+01 0.  1.
         -5    1    3    3    0  502  0.71792245245E+02  0.42146857059E+02  0.16026598542E+03  0.18064645726E+03  0.41800000000E+01 0.  1.
        -11    1    4    4    0    0  0.15996919668E+02 -0.38205939953E+02  0.40089165303E+02  0.57643182262E+02  0.00000000000E+00 0.  1.
         11    1    4    4    0    0 -0.44768045873E+02  0.11189532326E+02  0.16838126618E+03  0.17458990339E+03  0.00000000000E+00 0. -1.
</event>
<event>
 8    1  0.3654190E-009  0.1498443E+03  0.7561462E-02  0.1200664E+00
          1   -1    0    0  501    0  0.00000000000E+00  0.00000000000E+00  0.57190047173E+02  0.57190047173E+02  0.00000000000E+00 0. -1.
         -1   -1    0    0    0  501 -0.00000000000E+00 -0.00000000000E+00 -0.44002936143E+03  0.44002936143E+03  0.00000000000E+00 0.  1.
         25    2    1    2    0    0 -0.10951764669E+03  0.20250143074E+01 -0.15067599275E+03  0.22438609584E+03  0.12509056557E+03 0.  0.
         23    2    1    2    0    0  0.10951764669E+03 -0.20250143074E+01 -0.23216332150E+03  0.27283331276E+03  0.92412082994E+02 0.  0.
          5    1    3    3  502    0 -0.13595636089E+03  0.10720751599E+02 -0.11182662581E+03  0.17641352902E+03  0.41800000000E+01 0.  1.
         -5    1    3    3    0  502  0.26438714197E+02 -0.86957372919E+01 -0.38849366945E+02  0.47972566822E+02  0.41800000000E+01 0.  1.
        -11    1    4    4    0    0  0.32564476993E+02  0.36607821929E+02 -0.43787940886E+02  0.65711198096E+02  0.00000000000E+00 0. -1.
         11    1    4    4    0    0  0.76953169697E+02 -0.38632836236E+02 -0.18837538061E+03  0.20712211466E+03  0.00000000000E+00 0.  1.
</event>
<event>
 8    1  0.3654190E-009  0.1080332E+03  0.7561462E-02  0.1264256E+00
          2   -1    0    0  501    0  0.00000000000E+00  0.00000000000E+00  0.74258665227E+02  0.74258665227E+02  0.00000000000E+00 0. -1.
         -2   -1    0    0    0  501 -0.00000000000E+00 -0.00000000000E+00 -0.30804157584E+03  0.30804157584E+03  0.00000000000E+00 0.  1.
         25    2    1    2    0    0 -0.89130113957E+02 -0.10328563936E+02 -0.56750142924E+02  0.16406886577E+03  0.12508859879E+03 0.  0.
         23    2    1    2    0    0  0.89130113957E+02  0.10328563936E+02 -0.17703276769E+03  0.21823137530E+03  0.90738502742E+02 0.  0.
          5    1    3    3  502    0 -0.35368303256E+02  0.15803442726E+02 -0.88179614103E+02  0.96404265572E+02  0.41800000000E+01 0. -1.
         -5    1    3    3    0  502 -0.53761810700E+02 -0.26132006662E+02  0.31429471178E+02  0.67664600202E+02  0.41800000000E+01 0. -1.
        -11    1    4    4    0    0 -0.13257351834E+02 -0.38766057453E+01 -0.69518006145E+00  0.13829993676E+02  0.00000000000E+00 0. -1.
         11    1    4    4    0    0  0.10238746579E+03  0.14205169682E+02 -0.17633758763E+03  0.20440138162E+03  0.00000000000E+00 0.  1.
</event>
<event>
 8    1  0.3654190E-009  0.1466642E+03  0.7561462E-02  0.1204633E+00
          1   -1    0    0  501    0  0.00000000000E+00  0.00000000000E+00  0.20617053327E+04  0.20617053327E+04  0.00000000000E+00 0. -1.
         -1   -1    0    0    0  501 -0.00000000000E+00 -0.00000000000E+00 -0.11623854413E+02  0.11623854413E+02  0.00000000000E+00 0.  1.
         25    2    1    2    0    0  0.91816318255E+02  0.40861967503E+02  0.14386639133E+04  0.14475845144E+04  0.12508850555E+03 0.  0.
         23    2    1    2    0    0 -0.91816318255E+02 -0.40861967503E+02  0.61141756498E+03  0.62574467270E+03  0.87321360297E+02 0.  0.
          5    1    3    3  502    0 -0.25708289120E+02  0.33754796503E+02  0.37516445059E+03  0.37757931591E+03  0.41800000000E+01 0. -1.
         -5    1    3    3    0  502  0.11752460737E+03  0.71071710008E+01  0.10634994627E+04  0.10700051985E+04  0.41800000000E+01 0. -1.
        -11    1    4    4    0    0 -0.39402130216E+02 -0.64340616671E+02  0.32779357184E+03  0.33636419036E+03  0.00000000000E+00 0.  1.
         11    1    4    4    0    0 -0.52414188039E+02  0.23478649168E+02  0.28362399314E+03  0.28938048234E+03  0.00000000000E+00 0. -1.
</event>
<event>
 8    1  0.3654190E-009  0.5500254E+02  0.7561462E-02  0.1420087E+00
          2   -1    0    0  501    0  0.00000000000E+00  0.00000000000E+00  0.27741518233E+03  0.27741518233E+03  0.00000000000E+00 0. -1.
         -2   -1    0    0    0  501 -0.00000000000E+00 -0.00000000000E+00 -0.52320069700E+02  0.52320069700E+02  0.00000000000E+00 0.  1.
         25    2    1    2    0    0 -0.34613077942E+02  0.38203482037E+02  0.11479461789E+03  0.17743110043E+03  0.12508565025E+03 0.  0.
         23    2    1    2    0    0  0.34613077942E+02 -0.38203482037E+02  0.11030049473E+03  0.15230415160E+03  0.91502919358E+02 0.  0.
          5    1    3    3  502    0  0.25345685633E+01  0.30222451545E+01  0.12496718282E+03  0.12509926932E+03  0.41800000000E+01 0. -1.
         -5    1    3    3    0  502 -0.37147646505E+02  0.35181236883E+02 -0.10172564927E+02  0.52331831103E+02  0.41800000000E+01 0. -1.
        -11    1    4    4    0    0  0.18899496706E+02 -0.29291206474E+02  0.12452429402E+03  0.12931150588E+03  0.00000000000E+00 0. -1.
         11    1    4    4    0    0  0.15713581235E+02 -0.89122755634E+01 -0.14223799285E+02  0.22992645717E+02  0.00000000000E+00 0.  1.
</event>
<event>
 8    1  0.3654190E-009  0.1207461E+03  0.7561462E-02  0.1241871E+00
         -2   -1    0    0    0  501 -0.00000000000E+00  0.00000000000E+00  0.64762327187E+02  0.64762327187E+02  0.00000000000E+00 0.  1.
          2   -1    0    0  501    0  0.00000000000E+00 -0.00000000000E+00 -0.36917999279E+03  0.36917999279E+03  0.00000000000E+00 0. -1.
         25    2    1    2    0    0 -0.91593026920E+01 -0.64248933968E+02 -0.37692599769E+02  0.14587622931E+03  0.12508926356E+03 0.  0.
         23    2    1    2    0    0  0.91593026920E+01  0.64248933968E+02 -0.26672506583E+03  0.28806609067E+03  0.87338385080E+02 0.  0.
          5    1    3    3  502    0 -0.54922888307E+02 -0.74635595635E+02 -0.33309187473E+02  0.98559475272E+02  0.41800000000E+01 0.  1.
         -5    1    3    3    0  502  0.45763585615E+02  0.10386661667E+02 -0.43834122957E+01  0.47316754034E+02  0.41800000000E+01 0.  1.
        -11    1    4    4    0    0 -0.23947329622E+02  0.64190399629E+02 -0.12519404198E+03  0.14271450573E+03  0.00000000000E+00 0.  1.
         11    1    4    4    0    0  0.33106632314E+02  0.58534338907E-01 -0.14153102386E+03  0.14535158494E+03  0.00000000000E+00 0. -1.
</event>
<event>
 8    1  0.3654190E-009  0.9306817E+02  0.7561462E-02  0.1295587E+00
          1   -1    0    0  501    0  0.00000000000E+00  0.00000000000E+00  0.26788204765E+03  0.26788204765E+03  0.00000000000E+00 0. -1.
         -1   -1    0    0    0  501 -0.00000000000E+00 -0.00000000000E+00 -0.46206499981E+02  0.46206499981E+02  0.00000000000E+00 0.  1.
         25    2    1    2    0    0 -0.26514057595E+02 -0.12351334826E+01  0.11627269912E+03  0.17283433811E+03  0.12509135488E+03 0.  0.
         23    2    1    2    0    0  0.26514057595E+02  0.12351334826E+01  0.10540284855E+03  0.14125420952E+03  0.90213471391E+02 0.  0.
          5    1    3    3  502    0 -0.64009424496E+02 -0.31889900077E+02  0.39057147777E+02  0.81591086178E+02  0.41800000000E+01 0. -1.
         -5    1    3    3    0  502  0.37495366901E+02  0.30654766595E+02  0.77215551343E+02  0.91243251932E+02  0.41800000000E+01 0. -1.
        -11    1    4    4    0    0  0.44740101628E+02  0.97218352439E+01  0.14309024475E+02  0.47968103523E+02  0.00000000000E+00 0.  1.
         11    1    4    4    0    0 -0.18226044032E+02 -0.84867017612E+01  0.91093824076E+02  0.93286106000E+02  0.00000000000E+00 0. -1.
</event>
<event>
 8    1  0.3654190E-009  0.8557457E+02  0.7561462E-02  0.1313937E+00
          1   -1    0    0  501    0  0.00000000000E+00  0.00000000000E+00  0.11385258056E+04  0.11385258056E+04  0.00000000000E+00 0. -1.
         -1   -1    0    0    0  501 -0.00000000000E+00 -0.00000000000E+00 -0.11857562022E+02  0.11857562022E+02  0.00000000000E+00 0.  1.
         25    2    1    2    0    0  0.11856802997E+02 -0.26683401152E+02  0.79267462991E+03  0.80301667970E+03  0.12510048484E+03 0.  0.
         23    2    1    2    0    0 -0.11856802997E+02  0.26683401152E+02  0.33399361364E+03  0.34736668789E+03  0.90880659263E+02 0.  0.
          5    1    3    3  502    0  0.32933479195E+02  0.97123541858E+01  0.70332317566E+03  0.70417320717E+03  0.41800000000E+01 0.  1.
         -5    1    3    3    0  502 -0.21076676199E+02 -0.36395755337E+02  0.89351454248E+02  0.98843472533E+02  0.41800000000E+01 0.  1.
        -11    1    4    4    0    0 -0.47782924599E+02  0.32655355046E+02  0.17775628909E+03  0.18694084200E+03  0.00000000000E+00 0.  1.
         11    1    4    4    0    0  0.35926121603E+02 -0.59719538941E+01  0.15623732454E+03  0.16042584588E+03  0.00000000000E+00 0. -1.
</event>
<event>
 8    1  0.3654190E-009  0.9257901E+02  0.7561462E-02  0.1296724E+00
          3   -1    0    0  501    0  0.00000000000E+00  0.00000000000E+00  0.43928695671E+03  0.43928695671E+03  0.00000000000E+00 0. -1.
         -3   -1    0    0    0  501 -0.00000000000E+00 -0.00000000000E+00 -0.44588207263E+02  0.44588207263E+02  0.00000000000E+00 0.  1.
         25    2    1    2    0    0 -0.56794191753E+02  0.10271492497E+02  0.31893185800E+03  0.34741279735E+03  0.12508812070E+03 0.  0.
         23    2    1    2    0    0  0.56794191753E+02 -0.10271492497E+02  0.75766891441E+02  0.13646236662E+03  0.97725492526E+02 0.  0.
          5    1    3    3  502    0 -0.84657312848E+02  0.58931394216E+01  0.30313288907E+03  0.31481520063E+03  0.41800000000E+01 0. -1.
         -5    1    3    3    0  502  0.27863121095E+02  0.43783530752E+01  0.15798968935E+02  0.32597596725E+02  0.41800000000E+01 0. -1.
        -11    1    4    4    0    0  0.47328816243E+02  0.10830532758E+02 -0.83137890875E+01  0.49258871037E+02  0.00000000000E+00 0.  1.
         11    1    4    4    0    0  0.94653755095E+01 -0.21102025255E+02  0.84080680529E+02  0.87203495581E+02  0.00000000000E+00 0. -1.
</event>
<event>
 8    1  0.3654190E-009  0.8426342E+02  0.7561462E-02  0.1317370E+00
         -1   -1    0    0    0  501 -0.00000000000E+00  0.00000000000E+00  0.15815083561E+03  0.15815083561E+03  0.00000000000E+00 0.  1.
          1   -1    0    0  501    0  0.00000000000E+00 -0.00000000000E+00 -0.92707317740E+02  0.92707317740E+02  0.00000000000E+00 0. -1.
         25    2    1    2    0    0  0.22479567414E+02  0.10310473357E+02 -0.13563221023E+02  0.12823179797E+03  0.12509115170E+03 0.  0.
         23    2    1    2    0    0 -0.22479567414E+02 -0.10310473357E+02  0.79006738897E+02  0.12262635539E+03  0.90462817956E+02 0.  0.
          5    1    3    3  502    0 -0.43753997476E+02 -0.90571481067E+01  0.22561509200E+02  0.50228859477E+02  0.41800000000E+01 0. -1.
         -5    1    3    3    0  502  0.66233564890E+02  0.19367621463E+02 -0.36124730223E+02  0.78002938489E+02  0.41800000000E+01 0. -1.
        -11    1    4    4    0    0 -0.31909742911E+02  0.88902211576E+01  0.91873973907E+02  0.97663170164E+02  0.00000000000E+00 0.  1.
         11    1    4    4    0    0  0.94301754968E+01 -0.19200694514E+02 -0.12867235010E+02  0.24963185224E+02  0.00000000000E+00 0. -1.
</event>
<event>
 8    1  0.3654190E-009  0.1203251E+03  0.7561462E-02  0.1242562E+00
          1   -1    0    0  501    0  0.00000000000E+00  0.00000000000E+00  0.18088633692E+04  0.18088633692E+04  0.00000000000E+00 0. -1.
         -1   -1    0    0    0  501 -0.00000000000E+00 -0.00000000000E+00 -0.11645068480E+02  0.11645068480E+02  0.00000000000E+00 0.  1.
         25    2    1    2    0    0  0.84862108619E+02  0.36353671326E+02  0.11483554141E+04  0.11588314568E+04  0.12508805463E+03 0.  0.
         23    2    1    2    0    0 -0.84862108619E+02 -0.36353671326E+02  0.64886288668E+03  0.66167698089E+03  0.90940719259E+02 0.  0.
          5    1    3    3  502    0  0.18763429143E+02 -0.17570147877E+02  0.43645253102E+02  0.50824766482E+02  0.41800000000E+01 0. -1.
         -5    1    3    3    0  502  0.66098679475E+02  0.53923819202E+02  0.11047101610E+04  0.11080066903E+04  0.41800000000E+01 0. -1.
        -11    1    4    4    0    0 -0.79740977408E+02  0.11945187963E+02  0.37963875473E+03  0.38810680886E+03  0.00000000000E+00 0.  1.
         11    1    4    4    0    0 -0.51211312110E+01 -0.48298859289E+02  0.26922413196E+03  0.27357017203E+03  0.00000000000E+00 0. -1.
</event>
<event>
 8    1  0.3654190E-009  0.6278140E+02  0.7561462E-02  0.1386517E+00
         -1   -1    0    0    0  501 -0.00000000000E+00  0.00000000000E+00  0.46521156190E+02  0.46521156190E+02  0.00000000000E+00 0.  1.
          1   -1    0    0  501    0  0.00000000000E+00 -0.00000000000E+00 -0.28515548824E+03  0.28515548824E+03  0.00000000000E+00 0. -1.
         25    2    1    2    0    0  0.33463737235E+01  0.67540861278E+01 -0.20307645844E+03  0.23862905789E+03  0.12508782276E+03 0.  0.
         23    2    1    2    0    0 -0.33463737235E+01 -0.67540861278E+01 -0.35557873610E+02  0.93047586534E+02  0.85654393277E+02 0.  0.
          5    1    3    3  502    0 -0.85379291000E+01 -0.28601502990E+02  0.19428464067E+01  0.30202471071E+02  0.41800000000E+01 0. -1.
         -5    1    3    3    0  502  0.11884302823E+02  0.35355589118E+02 -0.20501930484E+03  0.20842658682E+03  0.41800000000E+01 0. -1.
        -11    1    4    4    0    0  0.26718615395E+02 -0.77129175099E+01  0.16925452870E+02  0.32555252418E+02  0.00000000000E+00 0.  1.
         11    1    4    4    0    0 -0.30064989119E+02  0.95883138216E+00 -0.52483326481E+02  0.60492334116E+02  0.00000000000E+00 0. -1.
</event>
<event>
 8    1  0.3654190E-009  0.1038001E+03  0.7561462E-02  0.1272502E+00
          4   -1    0    0  501    0  0.00000000000E+00  0.00000000000E+00  0.43323950949E+03  0.43323950949E+03  0.00000000000E+00 0. -1.
         -4   -1    0    0    0  501 -0.00000000000E+00 -0.00000000000E+00 -0.74887472713E+02  0.74887472713E+02  0.00000000000E+00 0.  1.
         25    2    1    2    0    0  0.10122325893E+03 -0.52563532697E+01  0.33386190838E+03  0.37065474821E+03  0.12508953234E+03 0.  0.
         23    2    1    2    0    0 -0.10122325893E+03  0.52563532697E+01  0.24490128394E+02  0.13747223400E+03  0.89582762477E+02 0.  0.
          5    1    3    3  502    0  0.71518080366E+02 -0.10368132758E+02  0.33239883068E+03  0.34018934292E+03  0.41800000000E+01 0.  1.
         -5    1    3    3    0  502  0.29705178564E+02  0.51117794879E+01  0.14630777004E+01  0.30465405289E+02  0.41800000000E+01 0.  1.
        -11    1    4    4    0    0 -0.67096116778E+02  0.16051833727E+02  0.56715213359E+02  0.89309381809E+02  0.00000000000E+00 0. -1.
         11    1    4    4    0    0 -0.34127142152E+02 -0.10795480457E+02 -0.32225084965E+02  0.48162852187E+02  0.00000000000E+00 0.  1.
</event>
<event>
 8    1  0.3654190E-009  0.7173343E+02  0.7561462E-02  0.1354296E+00
         -1   -1    0    0    0  501 -0.00000000000E+00  0.00000000000E+00  0.19749386658E+03  0.19749386658E+03  0.00000000000E+00 0.  1.
          1   -1    0    0  501    0  0.00000000000E+00 -0.00000000000E+00 -0.55648910403E+02  0.55648910403E+02  0.00000000000E+00 0. -1.
         25    2    1    2    0    0  0.10246580748E+02 -0.40205688377E+01  0.76799069802E+02  0.14719454650E+03  0.12508788913E+03 0.  0.
         23    2    1    2    0    0 -0.10246580748E+02  0.40205688377E+01  0.65045886373E+02  0.10594823048E+03  0.82902972307E+02 0.  0.
          5    1    3    3  502    0  0.14660609364E+02 -0.38363810878E+02  0.98027212849E+02  0.10636504271E+03  0.41800000000E+01 0. -1.
         -5    1    3    3    0  502 -0.44140286159E+01  0.34343242040E+02 -0.21228143047E+02  0.40829503789E+02  0.41800000000E+01 0. -1.
        -11    1    4    4    0    0  0.24423226039E+02 -0.14086582340E+02  0.60277074802E+02  0.66545108902E+02  0.00000000000E+00 0.  1.
         11    1    4    4    0    0 -0.34669806787E+02  0.18107151177E+02  0.47688115715E+01  0.39403121579E+02  0.00000000000E+00 0. -1.
</event>
<event>
 8    1  0.3654190E-009  0.8286666E+02  0.7561462E-02  0.1321108E+00
          1   -1    0    0  501    0  0.00000000000E+00  0.00000000000E+00  0.62494426475E+03  0.62494426475E+03  0.00000000000E+00 0. -1.
         -1   -1    0    0    0  501 -0.00000000000E+00 -0.00000000000E+00 -0.22183048723E+02  0.22183048723E+02  0.00000000000E+00 0.  1.
         25    2    1    2    0    0 -0.21297118254E+02  0.39891506622E+02  0.35287858668E+03  0.37711504140E+03  0.12509019931E+03 0.  0.
         23    2    1    2    0    0  0.21297118254E+02 -0.39891506622E+02  0.24988262934E+03  0.27001227207E+03  0.91762732506E+02 0.  0.
          5    1    3    3  502    0 -0.90776114617E+01 -0.13650004325E+02  0.30092683259E+03  0.30140198510E+03  0.41800000000E+01 0. -1.
         -5    1    3    3    0  502 -0.12219506792E+02  0.53541510947E+02  0.51951754086E+02  0.75713056294E+02  0.41800000000E+01 0. -1.
        -11    1    4    4    0    0 -0.31570371204E+02 -0.10619641381E+02  0.42458921475E+02  0.53965036216E+02  0.00000000000E+00 0.  1.
         11    1    4    4    0    0  0.52867489458E+02 -0.29271865242E+02  0.20742370787E+03  0.21604723586E+03  0.00000000000E+00 0. -1.
</event>
<event>
 8    1  0.3654190E-009  0.1596873E+03  0.7561462E-02  0.1189050E+00
          2   -1    0    0  501    0  0.00000000000E+00  0.00000000000E+00  0.33891467963E+03  0.33891467963E+03  0.00000000000E+00 0. -1.
         -2   -1    0    0    0  501 -0.00000000000E+00 -0.00000000000E+00 -0.16666479415E+03  0.16666479415E+03  0.00000000000E+00 0.  1.
         25    2    1    2    0    0  0.14827957408E+03 -0.31171202029E+02 -0.67366267348E+02  0.20771106053E+03  0.12508874755E+03 0.  0.
         23    2    1    2    0    0 -0.14827957408E+03  0.31171202029E+02  0.23961615283E+03  0.29786841326E+03  0.91384982310E+02 0.  0.
          5    1    3    3  502    0  0.66438594372E+01  0.16096907633E+02  0.25990904513E+02  0.31563441209E+02  0.41800000000E+01 0.  1.
         -5    1    3    3    0  502  0.14163571464E+03 -0.47268109661E+02 -0.93357171861E+02  0.17614761932E+03  0.41800000000E+01 0.  1.
        -11    1    4    4    0    0 -0.77594439657E+02  0.95816602002E+01  0.46203914742E+02  0.90815786158E+02  0.00000000000E+00 0.  1.
         11    1    4    4    0    0 -0.70685134420E+02  0.21589541828E+02  0.19341223809E+03  0.20705262710E+03  0.00000000000E+00 0. -1.
</event>
<event>
 8    1  0.3654190E-009  0.1745442E+03  0.7561462E-02  0.1173190E+00
          2   -1    0    0  501    0  0.00000000000E+00  0.00000000000E+00  0.85699594615E+02  0.85699594615E+02  0.00000000000E+00 0. -1.
         -2   -1    0    0    0  501 -0.00000000000E+00 -0.00000000000E+00 -0.43812150899E+03  0.43812150899E+03  0.00000000000E+00 0.  1.
         25    2    1    2    0    0  0.34541154746E+02 -0.15321992088E+03 -0.20768919977E+03  0.28887886247E+03  0.12508700154E+03 0.  0.
         23    2    1    2    0    0 -0.34541154746E+02  0.15321992088E+03 -0.14473271461E+03  0.23494224114E+03  0.97881880197E+02 0.  0.
          5    1    3    3  502    0  0.54554827760E+02 -0.15055365700E+03 -0.21400302466E+03  0.26731516948E+03  0.41800000000E+01 0.  1.
         -5    1    3    3    0  502 -0.20013673013E+02 -0.26662638799E+01  0.63138248934E+01  0.21563692990E+02  0.41800000000E+01 0.  1.
        -11    1    4    4    0    0 -0.49417047121E+02  0.83794637223E+02 -0.33320386371E+02  0.10282914918E+03  0.00000000000E+00 0. -1.
         11    1    4    4    0    0  0.14875892375E+02  0.69425283654E+02 -0.11141232824E+03  0.13211309196E+03  0.00000000000E+00 0.  1.
</event>
<event>
 8    1  0.3654190E-009  0.1060518E+03  0.7561462E-02  0.1268061E+00
         -1   -1    0    0    0  501 -0.00000000000E+00  0.00000000000E+00  0.37338531322E+02  0.37338531322E+02  0.00000000000E+00 0. -1.
          1   -1    0    0  501    0  0.00000000000E+00 -0.00000000000E+00 -0.41390440798E+03  0.41390440798E+03  0.00000000000E+00 0.  1.
         25    2    1    2    0    0 -0.11308012674E+00  0.13731352055E+02 -0.31654407117E+03  0.34063933961E+03  0.12508576211E+03 0.  0.
         23    2    1    2    0    0  0.11308012674E+00 -0.13731352055E+02 -0.60021805489E+02  0.11060359969E+03  0.91880228087E+02 0.  0.
          5    1    3    3  502    0  0.32761497566E+02 -0.44200743582E+02 -0.18617959877E+03  0.19418377083E+03  0.41800000000E+01 0.  1.
         -5    1    3    3    0  502 -0.32874577693E+02  0.57932095637E+02 -0.13036447240E+03  0.14645556878E+03  0.41800000000E+01 0.  1.
        -11    1    4    4    0    0 -0.11933722072E+02  0.36566980813E+02 -0.38989486654E+02  0.54769862861E+02  0.00000000000E+00 0.  1.
         11    1    4    4    0    0  0.12046802198E+02 -0.50298332868E+02 -0.21032318834E+02  0.55833736827E+02  0.00000000000E+00 0. -1.
</event>
<event>
 8    1  0.3654190E-009  0.1083818E+03  0.7561462E-02  0.1263596E+00
         -1   -1    0    0    0  501 -0.00000000000E+00  0.00000000000E+00  0.11876853312E+02  0.11876853312E+02  0.00000000000E+00 0.  1.
          1   -1    0    0  501    0  0.00000000000E+00 -0.00000000000E+00 -0.11986292075E+04  0.11986292075E+04  0.00000000000E+00 0. -1.
         25    2    1    2    0    0  0.18266540781E+02 -0.28974299083E+02 -0.75788012033E+03  0.76889759207E+03  0.12509218112E+03 0.  0.
         23    2    1    2    0    0 -0.18266540781E+02  0.28974299083E+02 -0.42887223388E+03  0.44160846876E+03  0.99566410866E+02 0.  0.
          5    1    3    3  502    0 -0.29050866844E+02  0.29528758489E+02 -0.45028551512E+03  0.45220616755E+03  0.41800000000E+01 0.  1.
         -5    1    3    3    0  502  0.47317407625E+02 -0.58503057571E+02 -0.30759460521E+03  0.31669142452E+03  0.41800000000E+01 0.  1.
        -11    1    4    4    0    0  0.26586735599E+02  0.44893974436E+02 -0.15277306414E+03  0.16143708551E+03  0.00000000000E+00 0.  1.
         11    1    4    4    0    0 -0.44853276380E+02 -0.15919675353E+02 -0.27609916974E+03  0.28017138326E+03  0.00000000000E+00 0. -1.
</event>
<event>
 8    1  0.3654190E-009  0.1073583E+03  0.7561462E-02  0.1265542E+00
         -2   -1    0    0    0  501 -0.00000000000E+00  0.00000000000E+00  0.32343987050E+03  0.32343987050E+03  0.00000000000E+00 0.  1.
          2   -1    0    0  501    0  0.00000000000E+00 -0.00000000000E+00 -0.64829008455E+02  0.64829008455E+02  0.00000000000E+00 0. -1.
         25    2    1    2    0    0 -0.20162987406E+02 -0.56175246384E+02  0.23996092105E+03  0.27711387362E+03  0.12509456803E+03 0.  0.
         23    2    1    2    0    0  0.20162987406E+02  0.56175246384E+02  0.18649940990E+02  0.11115500534E+03  0.91898914820E+02 0.  0.
          5    1    3    3  502    0  0.24582995099E+02 -0.82707272465E+02  0.15238488286E+03  0.17516689611E+03  0.41800000000E+01 0. -1.
         -5    1    3    3    0  502 -0.44745982505E+02  0.26532026082E+02  0.87576038189E+02  0.10194697751E+03  0.41800000000E+01 0. -1.
        -11    1    4    4    0    0 -0.80733955386E+01  0.45093679894E+02 -0.29326654391E+02  0.54393679225E+02  0.00000000000E+00 0. -1.
         11    1    4    4    0    0  0.28236382945E+02  0.11081566490E+02  0.47976595381E+02  0.56761326112E+02  0.00000000000E+00 0.  1.
</event>
<event>
 8    1  0.3654190E-009  0.1521816E+03  0.7561462E-02  0.1197818E+00
          1   -1    0    0  501    0  0.00000000000E+00  0.00000000000E+00  0.24600864121E+03  0.24600864121E+03  0.00000000000E+00 0. -1.
         -1   -1    0    0    0  501 -0.00000000000E+00 -0.00000000000E+00 -0.15739096731E+03  0.15739096731E+03  0.00000000000E+00 0.  1.
         25    2    1    2    0    0 -0.27423738736E+02 -0.13133888316E+03 -0.49946844415E+02  0.19012265159E+03  0.12509984693E+03 0.  0.
         23    2    1    2    0    0  0.27423738736E+02  0.13133888316E+03  0.13856451832E+03  0.21327695693E+03  0.91021815760E+02 0.  0.
          5    1    3    3  502    0  0.16300169466E+02 -0.38544123063E+02 -0.73599164203E+02  0.84768238856E+02  0.41800000000E+01 0. -1.
         -5    1    3    3    0  502 -0.43723908202E+02 -0.92794760102E+02  0.23652319788E+02  0.10535441273E+03  0.41800000000E+01 0. -1.
        -11    1    4    4    0    0  0.39035583850E+02  0.13609329777E+02  0.53292707169E+02  0.67447040712E+02  0.00000000000E+00 0.  1.
         11    1    4    4    0    0 -0.11611845114E+02  0.11772955339E+03  0.85271811148E+02  0.14582991622E+03  0.00000000000E+00 0. -1.
</event>
<event>
 8    1  0.3654190E-009  0.1377825E+03  0.7561462E-02  0.1216344E+00
          1   -1    0    0  501    0  0.00000000000E+00  0.00000000000E+00  0.33637063024E+03  0.33637063024E+03  0.00000000000E+00 0. -1.
         -1   -1    0    0    0  501 -0.00000000000E+00 -0.00000000000E+00 -0.11461816893E+03  0.11461816893E+03  0.00000000000E+00 0.  1.
         25    2    1    2    0    0 -0.30801068580E+02 -0.12894470824E+03  0.67455139174E+01  0.18240120969E+03  0.12509698529E+03 0.  0.
         23    2    1    2    0    0  0.30801068580E+02  0.12894470824E+03  0.21500694740E+03  0.26858758948E+03  0.91300942946E+02 0.  0.
          5    1    3    3  502    0 -0.82709486278E+01 -0.18466552073E+02  0.55700404441E+02  0.59409002614E+02  0.41800000000E+01 0. -1.
         -5    1    3    3    0  502 -0.22530119952E+02 -0.11047815617E+03 -0.48954890524E+02  0.12299220708E+03  0.41800000000E+01 0. -1.
        -11    1    4    4    0    0  0.43767854331E+02  0.77345495708E+02  0.66964779381E+02  0.11127548003E+03  0.00000000000E+00 0.  1.
         11    1    4    4    0    0 -0.12966785751E+02  0.51599212537E+02  0.14804216802E+03  0.15731210945E+03  0.00000000000E+00 0. -1.
</event>
<event>
 8    1  0.3654190E-009  0.1593670E+03  0.7561462E-02  0.1189413E+00
         -2   -1    0    0    0  501 -0.00000000000E+00  0.00000000000E+00  0.46959469187E+03  0.46959469187E+03  0.00000000000E+00 0.  1.
          2   -1    0    0  501    0  0.00000000000E+00 -0.00000000000E+00 -0.61817792824E+02  0.61817792824E+02  0.00000000000E+00 0. -1.
         25    2    1    2    0    0  0.11633079769E+03  0.49991039864E+02  0.26843895206E+03  0.32208509588E+03  0.12508948574E+03 0.  0.
         23    2    1    2    0    0 -0.11633079769E+03 -0.49991039864E+02  0.13933794698E+03  0.20932738882E+03  0.91492806719E+02 0.  0.
          5    1    3    3  502    0  0.12321276866E+03  0.75938410582E+02  0.18874070808E+03  0.23788349218E+03  0.41800000000E+01 0. -1.
         -5    1    3    3    0  502 -0.68819709698E+01 -0.25947370718E+02  0.79698243984E+02  0.84201603701E+02  0.41800000000E+01 0. -1.
        -11    1    4    4    0    0  0.77868472813E+01 -0.16452350537E+02 -0.19400150424E+01  0.18305149197E+02  0.00000000000E+00 0. -1.
         11    1    4    4    0    0 -0.12411764497E+03 -0.33538689327E+02  0.14127796202E+03  0.19102223962E+03  0.00000000000E+00 0.  1.
</event>
<event>
 8    1  0.3654190E-009  0.2170483E+03  0.7561462E-02  0.1136103E+00
          1   -1    0    0  501    0  0.00000000000E+00  0.00000000000E+00  0.96508697187E+03  0.96508697187E+03  0.00000000000E+00 0. -1.
         -1   -1    0    0    0  501 -0.00000000000E+00 -0.00000000000E+00 -0.50960410378E+02  0.50960410378E+02  0.00000000000E+00 0.  1.
         25    2    1    2    0    0 -0.71867508677E+02  0.17679006294E+03  0.39438639122E+03  0.45564089786E+03  0.12509331341E+03 0.  0.
         23    2    1    2    0    0  0.71867508677E+02 -0.17679006294E+03  0.51974017026E+03  0.56040648439E+03  0.86636701215E+02 0.  0.
          5    1    3    3  502    0 -0.63711302431E+02  0.19553181930E+03  0.33984285541E+03  0.39724357916E+03  0.41800000000E+01 0. -1.
         -5    1    3    3    0  502 -0.81562062464E+01 -0.18741756352E+02  0.54543535817E+02  0.58397318696E+02  0.41800000000E+01 0. -1.
        -11    1    4    4    0    0  0.41260702850E+02 -0.17160902619E+03  0.41037442072E+03  0.44672057111E+03  0.00000000000E+00 0. -1.
         11    1    4    4    0    0  0.30606805827E+02 -0.51810367538E+01  0.10936574954E+03  0.11368591328E+03  0.00000000000E+00 0.  1.
</event>
<event>
 8    1  0.3654190E-009  0.1272668E+03  0.7561462E-02  0.1231569E+00
          2   -1    0    0  501    0  0.00000000000E+00  0.00000000000E+00  0.40108584372E+03  0.40108584372E+03  0.00000000000E+00 0. -1.
         -2   -1    0    0    0  501 -0.00000000000E+00 -0.00000000000E+00 -0.46781681358E+02  0.46781681358E+02  0.00000000000E+00 0.  1.
         25    2    1    2    0    0 -0.24925914911E+02 -0.65422969379E+02  0.26577639413E+03  0.30197084376E+03  0.12509129725E+03 0.  0.
         23    2    1    2    0    0  0.24925914911E+02  0.65422969379E+02  0.88527768235E+02  0.14589668132E+03  0.92451120680E+02 0.  0.
          5    1    3    3  502    0 -0.60297609861E+02 -0.82636555306E+02  0.20953472534E+03  0.23320993879E+03  0.41800000000E+01 0. -1.
         -5    1    3    3    0  502  0.35371694949E+02  0.17213585927E+02  0.56241668785E+02  0.68760904966E+02  0.41800000000E+01 0. -1.
        -11    1    4    4    0    0  0.42866688032E+02  0.79143169229E+02  0.55031398875E+02  0.10549715181E+03  0.00000000000E+00 0.  1.
         11    1    4    4    0    0 -0.17940773121E+02 -0.13720199850E+02  0.33496369360E+02  0.40399529507E+02  0.00000000000E+00 0. -1.
</event>
<event>
 8    1  0.3654190E-009  0.1066962E+03  0.7561462E-02  0.1266813E+00
          1   -1    0    0  501    0  0.00000000000E+00  0.00000000000E+00  0.67409650420E+03  0.67409650420E+03  0.00000000000E+00 0. -1.
         -1   -1    0    0    0  501 -0.00000000000E+00 -0.00000000000E+00 -0.22061091623E+02  0.22061091623E+02  0.00000000000E+00 0.  1.
         25    2    1    2    0    0  0.20504756363E+02 -0.41304694731E+02  0.46755818698E+03  0.48619367010E+03  0.12508838392E+03 0.  0.
         23    2    1    2    0    0 -0.20504756363E+02  0.41304694731E+02  0.18447722559E+03  0.20996392572E+03  0.89030784011E+02 0.  0.
          5    1    3    3  502    0 -0.96761196992E+01 -0.77217749219E+02  0.36657582259E+03  0.37476861420E+03  0.41800000000E+01 0. -1.
         -5    1    3    3    0  502  0.30180876063E+02  0.35913054488E+02  0.10098236439E+03  0.11142505590E+03  0.41800000000E+01 0. -1.
        -11    1    4    4    0    0 -0.23053936055E+02  0.62705804589E+02  0.17320144546E+03  0.18564008890E+03  0.00000000000E+00 0. -1.
         11    1    4    4    0    0  0.25491796910E+01 -0.21401109858E+02  0.11275780134E+02  0.24323836825E+02  0.00000000000E+00 0.  1.
</event>
<event>
 8    1  0.3654190E-009  0.9836185E+02  0.7561462E-02  0.1283779E+00
         -2   -1    0    0    0  501 -0.00000000000E+00  0.00000000000E+00  0.66057951825E+02  0.66057951825E+02  0.00000000000E+00 0.  1.
          2   -1    0    0  501    0  0.00000000000E+00 -0.00000000000E+00 -0.19765066994E+03  0.19765066994E+03  0.00000000000E+00 0. -1.
         25    2    1    2    0    0  0.69910344179E+01 -0.12200796771E+02 -0.29448875821E+02  0.12927729643E+03  0.12509056351E+03 0.  0.
         23    2    1    2    0    0 -0.69910344179E+01  0.12200796771E+02 -0.10214384230E+03  0.13443132534E+03  0.86259392008E+02 0.  0.
          5    1    3    3  502    0 -0.39086386610E+02 -0.44951022388E+02 -0.39653298540E+02  0.71681214534E+02  0.41800000000E+01 0.  1.
         -5    1    3    3    0  502  0.46077421028E+02  0.32750225616E+02  0.10204422719E+02  0.57596081894E+02  0.41800000000E+01 0.  1.
        -11    1    4    4    0    0 -0.43180148580E+02  0.56725422767E+01 -0.81122592060E+02  0.92073763417E+02  0.00000000000E+00 0. -1.
         11    1    4    4    0    0  0.36189114162E+02  0.65282544947E+01 -0.21021250238E+02  0.42357561924E+02  0.00000000000E+00 0.  1.
</event>
<event>
 8    1  0.3654190E-009  0.1511429E+03  0.7561462E-02  0.1199076E+00
          1   -1    0    0  501    0  0.00000000000E+00  0.00000000000E+00  0.10344500293E+04  0.10344500293E+04  0.00000000000E+00 0. -1.
         -1   -1    0    0    0  501 -0.00000000000E+00 -0.00000000000E+00 -0.66113538887E+02  0.66113538887E+02  0.00000000000E+00 0.  1.
         25    2    1    2    0    0  0.14011129875E+03 -0.35057915414E+02  0.89444223854E+03  0.91462177656E+03  0.12508334258E+03 0.  0.
         23    2    1    2    0    0 -0.14011129875E+03  0.35057915414E+02  0.73894251882E+02  0.18594179164E+03  0.90850184080E+02 0.  0.
          5    1    3    3  502    0  0.94859733002E+02  0.72500221870E+01  0.76667889984E+03  0.77257034607E+03  0.41800000000E+01 0. -1.
         -5    1    3    3    0  502  0.45251565748E+02 -0.42307937601E+02  0.12776333870E+03  0.14205143048E+03  0.41800000000E+01 0. -1.
        -11    1    4    4    0    0 -0.59397949422E+02  0.85331085564E+01  0.80863076635E+02  0.10069641255E+03  0.00000000000E+00 0. -1.
         11    1    4    4    0    0 -0.80713349328E+02  0.26524806857E+02 -0.69688247528E+01  0.85245379095E+02  0.00000000000E+00 0.  1.
</event>
<event>
 8    1  0.3654190E-009  0.1233621E+03  0.7561462E-02  0.1237652E+00
         -2   -1    0    0    0  501 -0.00000000000E+00  0.00000000000E+00  0.74430477953E+02  0.74430477953E+02  0.00000000000E+00 0.  1.
          2   -1    0    0  501    0  0.00000000000E+00 -0.00000000000E+00 -0.38106405359E+03  0.38106405359E+03  0.00000000000E+00 0. -1.
         25    2    1    2    0    0  0.12099583597E+02  0.11267216214E+03 -0.82851310979E+02  0.18802468284E+03  0.12509006988E+03 0.  0.
         23    2    1    2    0    0 -0.12099583597E+02 -0.11267216214E+03 -0.22378226466E+03  0.26746984870E+03  0.92845042648E+02 0.  0.
          5    1    3    3  502    0  0.34140416687E+02  0.94088113015E+02 -0.10959340578E+03  0.14848005945E+03  0.41800000000E+01 0. -1.
         -5    1    3    3    0  502 -0.22040833090E+02  0.18584049125E+02  0.26742094802E+02  0.39544623396E+02  0.41800000000E+01 0. -1.
        -11    1    4    4    0    0  0.94111759138E+01 -0.56238517291E+02 -0.29870399032E+02  0.64370659446E+02  0.00000000000E+00 0.  1.
         11    1    4    4    0    0 -0.21510759511E+02 -0.56433644849E+02 -0.19391186562E+03  0.20309918925E+03  0.00000000000E+00 0. -1.
</event>
<event>
 8    1  0.3654190E-009  0.7287150E+02  0.7561462E-02  0.1350592E+00
          1   -1    0    0  501    0  0.00000000000E+00  0.00000000000E+00  0.56631950393E+02  0.56631950393E+02  0.00000000000E+00 0. -1.
         -1   -1    0    0    0  501 -0.00000000000E+00 -0.00000000000E+00 -0.21504723369E+03  0.21504723369E+03  0.00000000000E+00 0.  1.
         25    2    1    2    0    0  0.16591518974E+02  0.62062632354E+01 -0.59712856657E+02  0.13973896954E+03  0.12509020006E+03 0.  0.
         23    2    1    2    0    0 -0.16591518974E+02 -0.62062632354E+01 -0.98702426639E+02  0.13194021454E+03  0.85745291324E+02 0.  0.
          5    1    3    3  502    0  0.58594553113E+02 -0.55304598083E+01 -0.73086966287E+02  0.93931276374E+02  0.41800000000E+01 0. -1.
         -5    1    3    3    0  502 -0.42003034138E+02  0.11736723044E+02  0.13374109630E+02  0.45807693164E+02  0.41800000000E+01 0. -1.
        -11    1    4    4    0    0 -0.26025418750E+02 -0.14993575778E+02 -0.11047272130E+03  0.11448297641E+03  0.00000000000E+00 0.  1.
         11    1    4    4    0    0  0.94338997752E+01  0.87873125426E+01  0.11770294666E+02  0.17457238132E+02  0.00000000000E+00 0. -1.
</event>
<event>
 8    1  0.3654190E-009  0.1481664E+03  0.7561462E-02  0.1202744E+00
         -1   -1    0    0    0  501 -0.00000000000E+00  0.00000000000E+00  0.10630537644E+03  0.10630537644E+03  0.00000000000E+00 0.  1.
          1   -1    0    0  501    0  0.00000000000E+00 -0.00000000000E+00 -0.21439808327E+03  0.21439808327E+03  0.00000000000E+00 0. -1.
         25    2    1    2    0    0 -0.89508684847E+02  0.50011045112E+02 -0.70204581409E+02  0.17631870212E+03  0.12508673858E+03 0.  0.
         23    2    1    2    0    0  0.89508684847E+02 -0.50011045112E+02 -0.37888125424E+02  0.14438475759E+03  0.94332067079E+02 0.  0.
          5    1    3    3  502    0 -0.65383129887E+02 -0.34290947578E+02 -0.32830912156E+02  0.80908367631E+02  0.41800000000E+01 0. -1.
         -5    1    3    3    0  502 -0.24125554960E+02  0.84301992690E+02 -0.37373669254E+02  0.95410334488E+02  0.41800000000E+01 0. -1.
        -11    1    4    4    0    0  0.54000377281E+02  0.18789413097E+02 -0.34729748153E+02  0.66897221152E+02  0.00000000000E+00 0. -1.
         11    1    4    4    0    0  0.35508307566E+02 -0.68800458209E+02 -0.31583772712E+01  0.77487536436E+02  0.00000000000E+00 0.  1.
</event>
<event>
 8    1  0.3654190E-009  0.1866440E+03  0.7561462E-02  0.1161524E+00
         -2   -1    0    0    0  501 -0.00000000000E+00  0.00000000000E+00  0.41414726720E+03  0.41414726720E+03  0.00000000000E+00 0.  1.
          2   -1    0    0  501    0  0.00000000000E+00 -0.00000000000E+00 -0.13688020973E+03  0.13688020973E+03  0.00000000000E+00 0. -1.
         25    2    1    2    0    0  0.10816499033E+02 -0.15836253649E+03 -0.18622380394E+02  0.20295187792E+03  0.12508789744E+03 0.  0.
         23    2    1    2    0    0 -0.10816499033E+02  0.15836253649E+03  0.29588943786E+03  0.34807559900E+03  0.91708088895E+02 0.  0.
          5    1    3    3  502    0  0.56865850320E+02 -0.14202122692E+03 -0.15141203369E+02  0.15378713298E+03  0.41800000000E+01 0. -1.
         -5    1    3    3    0  502 -0.46049351286E+02 -0.16341309567E+02 -0.34811770248E+01  0.49164744947E+02  0.41800000000E+01 0. -1.
        -11    1    4    4    0    0 -0.20653194559E+02  0.10781108544E+02  0.99654519840E+02  0.10234163411E+03  0.00000000000E+00 0.  1.
         11    1    4    4    0    0  0.98366955255E+01  0.14758142795E+03  0.19623491802E+03  0.24573396490E+03  0.00000000000E+00 0. -1.
</event>
<event>
 8    1  0.3654190E-009  0.1131179E+03  0.7561462E-02  0.1254903E+00
          1   -1    0    0  501    0  0.00000000000E+00  0.00000000000E+00  0.13067765165E+04  0.13067765165E+04  0.00000000000E+00 0. -1.
         -1   -1    0    0    0  501 -0.00000000000E+00 -0.00000000000E+00 -0.29200565630E+02  0.29200565630E+02  0.00000000000E+00 0.  1.
         25    2    1    2    0    0  0.36105847058E+02 -0.39011318182E+02  0.12006315025E+04  0.12082998258E+04  0.12508776556E+03 0.  0.
         23    2    1    2    0    0 -0.36105847058E+02  0.39011318182E+02  0.76944448411E+02  0.12767725637E+03  0.86922485670E+02 0.  0.
          5    1    3    3  502    0  0.36360604642E+02 -0.79040209685E+02  0.99234898807E+03  0.99616436136E+03  0.41800000000E+01 0.  1.
         -5    1    3    3    0  502 -0.25475758364E+00  0.40028891503E+02  0.20828251442E+03  0.21213546443E+03  0.41800000000E+01 0.  1.
        -11    1    4    4    0    0  0.27370833513E+02  0.12647130233E+02  0.10096385549E+02  0.31797003499E+02  0.00000000000E+00 0.  1.
         11    1    4    4    0    0 -0.63476680571E+02  0.26364187949E+02  0.66848062861E+02  0.95880252872E+02  0.00000000000E+00 0. -1.
</event>
<event>
 8    1  0.3654190E-009  0.1035331E+03  0.7561462E-02  0.1273037E+00
          1   -1    0    0  501    0  0.00000000000E+00  0.00000000000E+00  0.10295724275E+04  0.10295724275E+04  0.00000000000E+00 0.  1.
         -1   -1    0    0    0  501 -0.00000000000E+00 -0.00000000000E+00 -0.14431529310E+02  0.14431529310E+02  0.00000000000E+00 0. -1.
         25    2    1    2    0    0  0.40654564429E+01 -0.45343484840E+02  0.70915927877E+03  0.72154482139E+03  0.12508991591E+03 0.  0.
         23    2    1    2    0    0 -0.40654564429E+01  0.45343484840E+02  0.30598161940E+03  0.32245913539E+03  0.91008697581E+02 0.  0.
          5    1    3    3  502    0  0.25471090631E+02  0.22919116096E+02  0.66714956888E+02  0.75116044978E+02  0.41800000000E+01 0. -1.
         -5    1    3    3    0  502 -0.21405634188E+02 -0.68262600936E+02  0.64244432188E+03  0.64642877642E+03  0.41800000000E+01 0. -1.
        -11    1    4    4    0    0  0.19877867918E+02 -0.21858596238E+02  0.10992931599E+03  0.11383049845E+03  0.00000000000E+00 0. -1.
         11    1    4    4    0    0 -0.23943324361E+02  0.67202081078E+02  0.19605230340E+03  0.20862863694E+03  0.00000000000E+00 0.  1.
</event>
<event>
 8    1  0.3654190E-009  0.1558569E+03  0.7561462E-02  0.1193455E+00
          4   -1    0    0  501    0  0.00000000000E+00  0.00000000000E+00  0.56144673607E+02  0.56144673607E+02  0.00000000000E+00 0. -1.
         -4   -1    0    0    0  501 -0.00000000000E+00 -0.00000000000E+00 -0.61419305678E+03  0.61419305678E+03  0.00000000000E+00 0.  1.
         25    2    1    2    0    0 -0.31270619571E+02 -0.11349176975E+03 -0.46398232745E+03  0.49475955040E+03  0.12509667891E+03 0.  0.
         23    2    1    2    0    0  0.31270619571E+02  0.11349176975E+03 -0.94066055722E+02  0.17557817999E+03  0.90116818628E+02 0.  0.
          5    1    3    3  502    0  0.36110962449E+02 -0.55950414216E+01 -0.52937849843E+02  0.64460797726E+02  0.41800000000E+01 0. -1.
         -5    1    3    3    0  502 -0.67381582019E+02 -0.10789672833E+03 -0.41104447761E+03  0.43029875267E+03  0.41800000000E+01 0. -1.
        -11    1    4    4    0    0  0.57564776304E+02  0.41362833084E+02 -0.37304487308E+02  0.80101262193E+02  0.00000000000E+00 0. -1.
         11    1    4    4    0    0 -0.26294156733E+02  0.72128936667E+02 -0.56761568414E+02  0.95476917796E+02  0.00000000000E+00 0.  1.
</event>
<event>
 8    1  0.3654190E-009  0.1415671E+03  0.7561462E-02  0.1211236E+00
         -4   -1    0    0    0  501 -0.00000000000E+00  0.00000000000E+00  0.21463849339E+03  0.21463849339E+03  0.00000000000E+00 0.  1.
          4   -1    0    0  501    0  0.00000000000E+00 -0.00000000000E+00 -0.14193948347E+03  0.14193948347E+03  0.00000000000E+00 0. -1.
         25    2    1    2    0    0 -0.11037856768E+03  0.58680724938E+02 -0.17609464331E+02  0.17771872082E+03  0.12508794831E+03 0.  0.
         23    2    1    2    0    0  0.11037856768E+03 -0.58680724938E+02  0.90308474247E+02  0.17885925604E+03  0.90598881159E+02 0.  0.
          5    1    3    3  502    0 -0.29968225818E+02 -0.25690455302E+02  0.31993442611E+02  0.50981828355E+02  0.41800000000E+01 0. -1.
         -5    1    3    3    0  502 -0.80410341865E+02  0.84371180240E+02 -0.49602906943E+02  0.12673689246E+03  0.41800000000E+01 0. -1.
        -11    1    4    4    0    0  0.57907808951E+02 -0.18717112220E+02  0.94906522557E+02  0.11274259466E+03  0.00000000000E+00 0.  1.
         11    1    4    4    0    0  0.52470758732E+02 -0.39963612718E+02 -0.45980483101E+01  0.66116661377E+02  0.00000000000E+00 0. -1.
</event>
<event>
 8    1  0.3654190E-009  0.2811718E+03  0.7561462E-02  0.1095051E+00
         -2   -1    0    0    0  501 -0.00000000000E+00  0.00000000000E+00  0.53311480517E+03  0.53311480517E+03  0.00000000000E+00 0.  1.
          2   -1    0    0  501    0  0.00000000000E+00 -0.00000000000E+00 -0.33145287507E+03  0.33145287507E+03  0.00000000000E+00 0. -1.
         25    2    1    2    0    0  0.77906842908E+02 -0.25725119672E+03 -0.21090272025E+03  0.36383777055E+03  0.12510120497E+03 0.  0.
         23    2    1    2    0    0 -0.77906842908E+02  0.25725119672E+03  0.41256465034E+03  0.50072990969E+03  0.90957118246E+02 0.  0.
          5    1    3    3  502    0  0.74458545584E+02 -0.26704832594E+03 -0.17899685291E+03  0.33002458870E+03  0.41800000000E+01 0. -1.
         -5    1    3    3    0  502  0.34482973238E+01  0.97971292246E+01 -0.31905867346E+02  0.33813181847E+02  0.41800000000E+01 0. -1.
        -11    1    4    4    0    0 -0.80475250209E+02  0.18696798465E+03  0.35758085385E+03  0.41145760440E+03  0.00000000000E+00 0.  1.
         11    1    4    4    0    0  0.25684073013E+01  0.70283212067E+02  0.54983796499E+02  0.89272305291E+02  0.00000000000E+00 0. -1.
</event>
<event>
 8    1  0.3654190E-009  0.1199975E+03  0.7561462E-02  0.1243101E+00
         -2   -1    0    0    0  501 -0.00000000000E+00  0.00000000000E+00  0.13893819492E+02  0.13893819492E+02  0.00000000000E+00 0.  1.
          2   -1    0    0  501    0  0.00000000000E+00 -0.00000000000E+00 -0.14613527595E+04  0.14613527595E+04  0.00000000000E+00 0. -1.
         25    2    1    2    0    0 -0.64750471645E+02  0.64808129034E+02 -0.89744116007E+03  0.91073625096E+03  0.12508863202E+03 0.  0.
         23    2    1    2    0    0  0.64750471645E+02 -0.64808129034E+02 -0.55001777993E+03  0.56451032802E+03  0.88088790647E+02 0.  0.
          5    1    3    3  502    0 -0.43838451293E+02 -0.15896930387E+01 -0.69918272427E+03  0.70056997599E+03  0.41800000000E+01 0. -1.
         -5    1    3    3    0  502 -0.20912020351E+02  0.66397822072E+02 -0.19825843580E+03  0.21016627497E+03  0.41800000000E+01 0. -1.
        -11    1    4    4    0    0  0.34509774338E+02  0.17362912183E+02 -0.13891743508E+03  0.14418893513E+03  0.00000000000E+00 0. -1.
         11    1    4    4    0    0  0.30240697306E+02 -0.82171041216E+02 -0.41110034485E+03  0.42032139290E+03  0.00000000000E+00 0.  1.
</event>
<event>
 8    1  0.3654190E-009  0.2316671E+03  0.7561462E-02  0.1125472E+00
          3   -1    0    0  501    0  0.00000000000E+00  0.00000000000E+00  0.87473759874E+02  0.87473759874E+02  0.00000000000E+00 0. -1.
         -3   -1    0    0    0  501 -0.00000000000E+00 -0.00000000000E+00 -0.66789288825E+03  0.66789288825E+03  0.00000000000E+00 0.  1.
         25    2    1    2    0    0  0.72668861991E+01 -0.21166096857E+03 -0.22821265226E+03  0.33552591874E+03  0.12507379519E+03 0.  0.
         23    2    1    2    0    0 -0.72668861991E+01  0.21166096857E+03 -0.35220647611E+03  0.41984072938E+03  0.85811788131E+02 0.  0.
          5    1    3    3  502    0 -0.58609852250E+02 -0.10801739915E+03 -0.10897276149E+03  0.16430279501E+03  0.41800000000E+01 0.  1.
         -5    1    3    3    0  502  0.65876738449E+02 -0.10364356941E+03 -0.11923989078E+03  0.17122312374E+03  0.41800000000E+01 0.  1.
        -11    1    4    4    0    0 -0.22449856926E+02  0.46525572904E+02 -0.14814437956E+03  0.15689290043E+03  0.00000000000E+00 0.  1.
         11    1    4    4    0    0  0.15182970727E+02  0.16513539566E+03 -0.20406209655E+03  0.26294782895E+03  0.00000000000E+00 0. -1.
</event>
<event>
 8    1  0.3654190E-009  0.1171025E+03  0.7561462E-02  0.1247955E+00
          4   -1    0    0  501    0  0.00000000000E+00  0.00000000000E+00  0.54753378126E+03  0.54753378126E+03  0.00000000000E+00 0.  1.
         -4   -1    0    0    0  501 -0.00000000000E+00 -0.00000000000E+00 -0.35689865958E+02  0.35689865958E+02  0.00000000000E+00 0. -1.
         25    2    1    2    0    0 -0.34105966473E+02  0.80458777207E+02  0.33375324652E+03  0.36698172508E+03  0.12509006835E+03 0.  0.
         23    2    1    2    0    0  0.34105966473E+02 -0.80458777207E+02  0.17809066878E+03  0.21624192213E+03  0.86066548699E+02 0.  0.
          5    1    3    3  502    0 -0.33904768103E+02 -0.44474623705E+01  0.15872595518E+02  0.37930527417E+02  0.41800000000E+01 0.  1.
         -5    1    3    3    0  502 -0.20119837007E+00  0.84906239577E+02  0.31788065101E+03  0.32905119766E+03  0.41800000000E+01 0.  1.
        -11    1    4    4    0    0  0.49784799004E+02 -0.22372262929E+02  0.47094838124E+02  0.72090000266E+02  0.00000000000E+00 0. -1.
         11    1    4    4    0    0 -0.15678832530E+02 -0.58086514278E+02  0.13099583065E+03  0.14415192187E+03  0.00000000000E+00 0.  1.
</event>
<event>
 8    1  0.3654190E-009  0.1356312E+03  0.7561462E-02  0.1219331E+00
         -2   -1    0    0    0  501 -0.00000000000E+00  0.00000000000E+00  0.29820990619E+02  0.29820990619E+02  0.00000000000E+00 0.  1.
          2   -1    0    0  501    0  0.00000000000E+00 -0.00000000000E+00 -0.77401351348E+03  0.77401351348E+03  0.00000000000E+00 0. -1.
         25    2    1    2    0    0 -0.72490967627E+02 -0.73394921871E+02 -0.33419773326E+03  0.37145075452E+03  0.12508310508E+03 0.  0.
         23    2    1    2    0    0  0.72490967627E+02  0.73394921871E+02 -0.40999478960E+03  0.43238374957E+03  0.90654423241E+02 0.  0.
          5    1    3    3  502    0 -0.78387889627E+02  0.91156208931E+01 -0.15226220216E+03  0.17154884550E+03  0.41800000000E+01 0.  1.
         -5    1    3    3    0  502  0.58969220003E+01 -0.82510542764E+02 -0.18193553109E+03  0.19990190902E+03  0.41800000000E+01 0.  1.
        -11    1    4    4    0    0  0.61992945521E+02  0.38513808904E+02 -0.37442308481E+03  0.38146963865E+03  0.00000000000E+00 0. -1.
         11    1    4    4    0    0  0.10498022106E+02  0.34881112967E+02 -0.35571704792E+02  0.50914110929E+02  0.00000000000E+00 0.  1.
</event>
<event>
 8    1  0.3654190E-009  0.1134360E+03  0.7561462E-02  0.1254336E+00
          1   -1    0    0  501    0  0.00000000000E+00  0.00000000000E+00  0.11617467772E+04  0.11617467772E+04  0.00000000000E+00 0. -1.
         -1   -1    0    0    0  501 -0.00000000000E+00 -0.00000000000E+00 -0.21259165206E+02  0.21259165206E+02  0.00000000000E+00 0.  1.
         25    2    1    2    0    0  0.44514124590E+02 -0.28647015676E+02  0.98389261396E+03  0.99322441999E+03  0.12509162184E+03 0.  0.
         23    2    1    2    0    0 -0.44514124590E+02  0.28647015676E+02  0.15659499803E+03  0.18978152241E+03  0.93235583589E+02 0.  0.
          5    1    3    3  502    0  0.21642198018E+02 -0.70890585724E+02  0.78780014577E+03  0.79129033986E+03  0.41800000000E+01 0. -1.
         -5    1    3    3    0  502  0.22871926572E+02  0.42243570048E+02  0.19609246820E+03  0.20193408013E+03  0.41800000000E+01 0. -1.
        -11    1    4    4    0    0  0.20046259922E+02  0.34171929784E+02  0.39445786270E+02  0.55906559333E+02  0.00000000000E+00 0.  1.
         11    1    4    4    0    0 -0.64560384513E+02 -0.55249141082E+01  0.11714921176E+03  0.13387496308E+03  0.00000000000E+00 0. -1.
</event>
<event>
 8    1  0.3654190E-009  0.2538513E+03  0.7561462E-02  0.1110895E+00
         -4   -1    0    0    0  501 -0.00000000000E+00  0.00000000000E+00  0.69849472325E+02  0.69849472325E+02  0.00000000000E+00 0.  1.
          4   -1    0    0  501    0  0.00000000000E+00 -0.00000000000E+00 -0.97433108715E+03  0.97433108715E+03  0.00000000000E+00 0. -1.
         25    2    1    2    0    0  0.78943392299E+02  0.22406438177E+03 -0.44331764981E+03  0.51827628738E+03  0.12507143982E+03 0.  0.
         23    2    1    2    0    0 -0.78943392299E+02 -0.22406438177E+03 -0.46116396501E+03  0.52590427209E+03  0.86407143334E+02 0.  0.
          5    1    3    3  502    0 -0.15028501378E+02  0.12928841217E+03 -0.26734773076E+03  0.29737792607E+03  0.41800000000E+01 0.  1.
         -5    1    3    3    0  502  0.93971893677E+02  0.94775969596E+02 -0.17596991906E+03  0.22089836131E+03  0.41800000000E+01 0.  1.
        -11    1    4    4    0    0 -0.87568578952E+02 -0.19827794213E+03 -0.35182485432E+03  0.41323495311E+03  0.00000000000E+00 0.  1.
         11    1    4    4    0    0  0.86251866540E+01 -0.25786439641E+02 -0.10933911069E+03  0.11266931899E+03  0.00000000000E+00 0. -1.
</event>
<event>
 8    1  0.3654190E-009  0.9406918E+02  0.7561462E-02  0.1293286E+00
          1   -1    0    0  501    0  0.00000000000E+00  0.00000000000E+00  0.15062880337E+03  0.15062880337E+03  0.00000000000E+00 0. -1.
         -1   -1    0    0    0  501 -0.00000000000E+00 -0.00000000000E+00 -0.10185168474E+03  0.10185168474E+03  0.00000000000E+00 0.  1.
         25    2    1    2    0    0 -0.41766193944E+02  0.44917847898E+02  0.27895234934E+02  0.14208258648E+03  0.12508912515E+03 0.  0.
         23    2    1    2    0    0  0.41766193944E+02 -0.44917847898E+02  0.20881883704E+02  0.11039790163E+03  0.89384649697E+02 0.  0.
          5    1    3    3  502    0 -0.67309433404E+02  0.41742418760E+02  0.60916397552E+02  0.10000634600E+03  0.41800000000E+01 0. -1.
         -5    1    3    3    0  502  0.25543239459E+02  0.31754291374E+01 -0.33021162618E+02  0.42076240479E+02  0.41800000000E+01 0. -1.
        -11    1    4    4    0    0  0.40686914007E+02 -0.57324168547E+02  0.44852090508E+02  0.83385821900E+02  0.00000000000E+00 0. -1.
         11    1    4    4    0    0  0.10792799377E+01  0.12406320650E+02 -0.23970206804E+02  0.27012079732E+02  0.00000000000E+00 0.  1.
</event>
<event>
 8    1  0.3654190E-009  0.1356380E+03  0.7561462E-02  0.1219322E+00
         -2   -1    0    0    0  501 -0.00000000000E+00  0.00000000000E+00  0.32869943839E+03  0.32869943839E+03  0.00000000000E+00 0.  1.
          2   -1    0    0  501    0  0.00000000000E+00 -0.00000000000E+00 -0.77516566143E+02  0.77516566143E+02  0.00000000000E+00 0. -1.
         25    2    1    2    0    0  0.40932720294E+02 -0.99037122583E+02  0.19409873359E+03  0.25456343526E+03  0.12507751577E+03 0.  0.
         23    2    1    2    0    0 -0.40932720294E+02  0.99037122583E+02  0.57084138656E+02  0.15165256927E+03  0.90862883725E+02 0.  0.
          5    1    3    3  502    0  0.71695326073E+02 -0.59467158601E+02  0.17936779660E+03  0.20215548865E+03  0.41800000000E+01 0. -1.
         -5    1    3    3    0  502 -0.30762605779E+02 -0.39569963982E+02  0.14730936985E+02  0.52407946614E+02  0.41800000000E+01 0. -1.
        -11    1    4    4    0    0 -0.21564281825E+02 -0.48158497130E+01 -0.12273930395E+02  0.25275680533E+02  0.00000000000E+00 0. -1.
         11    1    4    4    0    0 -0.19368438470E+02  0.10385297230E+03  0.69358069051E+02  0.12637688873E+03  0.00000000000E+00 0.  1.
</event>
<event>
 8    1  0.3654190E-009  0.1070903E+03  0.7561462E-02  0.1266055E+00
         -4   -1    0    0    0  501 -0.00000000000E+00  0.00000000000E+00  0.89555963414E+02  0.89555963414E+02  0.00000000000E+00 0.  1.
          4   -1    0    0  501    0  0.00000000000E+00 -0.00000000000E+00 -0.37577419906E+03  0.37577419906E+03  0.00000000000E+00 0. -1.
         25    2    1    2    0    0 -0.69665220579E+02 -0.36954372353E+02 -0.30798620108E+03  0.34164463906E+03  0.12508673292E+03 0.  0.
         23    2    1    2    0    0  0.69665220579E+02  0.36954372353E+02  0.21767965435E+02  0.12368552341E+03  0.92765272526E+02 0.  0.
          5    1    3    3  502    0 -0.17085143958E+02 -0.36635353438E+02 -0.27803096682E+03  0.28098530598E+03  0.41800000000E+01 0. -1.
         -5    1    3    3    0  502 -0.52580076621E+02 -0.31901891529E+00 -0.29955234254E+02  0.60659333080E+02  0.41800000000E+01 0. -1.
        -11    1    4    4    0    0  0.85932818051E+02  0.63892020808E+01  0.84324943329E+01  0.86581626700E+02  0.00000000000E+00 0. -1.
         11    1    4    4    0    0 -0.16267597472E+02  0.30565170272E+02  0.13335471102E+02  0.37103896706E+02  0.00000000000E+00 0.  1.
</event>
<event>
 8    1  0.3654190E-009  0.1179351E+03  0.7561462E-02  0.1246543E+00
         -3   -1    0    0    0  501 -0.00000000000E+00  0.00000000000E+00  0.83073335156E+02  0.83073335156E+02  0.00000000000E+00 0.  1.
          3   -1    0    0  501    0  0.00000000000E+00 -0.00000000000E+00 -0.21303742398E+03  0.21303742398E+03  0.00000000000E+00 0. -1.
         25    2    1    2    0    0 -0.52134938853E+02  0.15479952446E+02 -0.13242826530E+03  0.19011190318E+03  0.12509040532E+03 0.  0.
         23    2    1    2    0    0  0.52134938853E+02 -0.15479952446E+02  0.24641764765E+01  0.10599885595E+03  0.90950560860E+02 0.  0.
          5    1    3    3  502    0  0.39175151701E+02  0.13645239151E+02 -0.23350117142E+02  0.47786875111E+02  0.41800000000E+01 0.  1.
         -5    1    3    3    0  502 -0.91310090554E+02  0.18347132949E+01 -0.10907814816E+03  0.14232502807E+03  0.41800000000E+01 0.  1.
        -11    1    4    4    0    0 -0.13288540539E+02 -0.32533667914E+02  0.13203906777E+02  0.37541550471E+02  0.00000000000E+00 0. -1.
         11    1    4    4    0    0  0.65423479392E+02  0.17053715468E+02 -0.10739730301E+02  0.68457305482E+02  0.00000000000E+00 0.  1.
</event>
<event>
 8    1  0.3654190E-009  0.1085941E+03  0.7561462E-02  0.1263196E+00
         -2   -1    0    0    0  501 -0.00000000000E+00  0.00000000000E+00  0.15112609274E+02  0.15112609274E+02  0.00000000000E+00 0.  1.
          2   -1    0    0  501    0  0.00000000000E+00 -0.00000000000E+00 -0.11793260466E+04  0.11793260466E+04  0.00000000000E+00 0. -1.
         25    2    1    2    0    0 -0.67781165344E+01 -0.67818970967E+02 -0.73074262051E+03  0.74449892787E+03  0.12509404655E+03 0.  0.
         23    2    1    2    0    0  0.67781165344E+01  0.67818970967E+02 -0.43347081679E+03  0.44993972798E+03  0.99516099795E+02 0.  0.
          5    1    3    3  502    0  0.33539505517E+02 -0.10024797732E+02 -0.53938637294E+03  0.54053725747E+03  0.41800000000E+01 0.  1.
         -5    1    3    3    0  502 -0.40317622051E+02 -0.57794173235E+02 -0.19135624757E+03  0.20396167040E+03  0.41800000000E+01 0.  1.
        -11    1    4    4    0    0 -0.30421546447E+02 -0.37810228600E+01 -0.55026847058E+02  0.62989844572E+02  0.00000000000E+00 0.  1.
         11    1    4    4    0    0  0.37199662981E+02  0.71599993826E+02 -0.37844396974E+03  0.38694988341E+03  0.00000000000E+00 0. -1.
</event>
<event>
 8    1  0.3654190E-009  0.1181249E+03  0.7561462E-02  0.1246223E+00
          2   -1    0    0  501    0  0.00000000000E+00  0.00000000000E+00  0.13178281370E+04  0.13178281370E+04  0.00000000000E+00 0. -1.
         -2   -1    0    0    0  501 -0.00000000000E+00 -0.00000000000E+00 -0.10845085505E+02  0.10845085505E+02  0.00000000000E+00 0.  1.
         25    2    1    2    0    0 -0.15624439213E+02  0.47750714809E+02  0.74239299846E+03  0.75453239858E+03  0.12509005750E+03 0.  0.
         23    2    1    2    0    0  0.15624439213E+02 -0.47750714809E+02  0.56459005306E+03  0.57414082394E+03  0.91386562693E+02 0.  0.
          5    1    3    3  502    0  0.53698380641E+02  0.20931961026E+02  0.39895010047E+03  0.40311328202E+03  0.41800000000E+01 0.  1.
         -5    1    3    3    0  502 -0.69322819854E+02  0.26818753783E+02  0.34344289798E+03  0.35141911656E+03  0.41800000000E+01 0.  1.
        -11    1    4    4    0    0  0.42320538643E+02 -0.60977256968E+02  0.42091651478E+03  0.42741076995E+03  0.00000000000E+00 0.  1.
         11    1    4    4    0    0 -0.26696099431E+02  0.13226542159E+02  0.14367353828E+03  0.14673005399E+03  0.00000000000E+00 0. -1.
</event>
<event>
 8    1  0.3654190E-009  0.9827877E+02  0.7561462E-02  0.1283958E+00
          1   -1    0    0  501    0  0.00000000000E+00  0.00000000000E+00  0.63546337938E+02  0.63546337938E+02  0.00000000000E+00 0. -1.
         -1   -1    0    0    0  501 -0.00000000000E+00 -0.00000000000E+00 -0.23555990744E+03  0.23555990744E+03  0.00000000000E+00 0.  1.
         25    2    1    2    0    0 -0.28714121453E+02  0.41605574927E+02 -0.11831916077E+03  0.17944956234E+03  0.12508875643E+03 0.  0.
         23    2    1    2    0    0  0.28714121453E+02 -0.41605574927E+02 -0.53694408734E+02  0.11965668303E+03  0.94229016918E+02 0.  0.
          5    1    3    3  502    0  0.15505042893E+02 -0.19045863814E+02 -0.98644726250E+02  0.10174185815E+03  0.41800000000E+01 0.  1.
         -5    1    3    3    0  502 -0.44219164346E+02  0.60651438742E+02 -0.19674434516E+02  0.77707704190E+02  0.41800000000E+01 0.  1.
        -11    1    4    4    0    0 -0.29477025783E+01  0.23705650506E+02 -0.38798348684E+02  0.45562689528E+02  0.00000000000E+00 0.  1.
         11    1    4    4    0    0  0.31661824031E+02 -0.65311225433E+02 -0.14896060049E+02  0.74093993505E+02  0.00000000000E+00 0. -1.
</event>
<event>
 8    1  0.3654190E-009  0.1313637E+03  0.7561462E-02  0.1225446E+00
         -2   -1    0    0    0  501 -0.00000000000E+00  0.00000000000E+00  0.13002257765E+03  0.13002257765E+03  0.00000000000E+00 0.  1.
          2   -1    0    0  501    0  0.00000000000E+00 -0.00000000000E+00 -0.18838146797E+03  0.18838146797E+03  0.00000000000E+00 0. -1.
         25    2    1    2    0    0  0.68220150894E+02  0.71190322299E+02 -0.85459800690E+02  0.18075936182E+03  0.12509403813E+03 0.  0.
         23    2    1    2    0    0 -0.68220150894E+02 -0.71190322299E+02  0.27100910373E+02  0.13764468379E+03  0.92138746770E+02 0.  0.
          5    1    3    3  502    0  0.16820930588E+02 -0.35609906205E+02 -0.30800106975E+02  0.50170988782E+02  0.41800000000E+01 0. -1.
         -5    1    3    3    0  502  0.51399220306E+02  0.10680022850E+03 -0.54659693716E+02  0.13058837304E+03  0.41800000000E+01 0. -1.
        -11    1    4    4    0    0 -0.12035464861E+02 -0.36641897223E+02  0.54046002870E+02  0.66396170618E+02  0.00000000000E+00 0.  1.
         11    1    4    4    0    0 -0.56184686033E+02 -0.34548425077E+02 -0.26945092497E+02  0.71248513175E+02  0.00000000000E+00 0. -1.
</event>
<event>
 8    1  0.3654190E-009  0.9157704E+02  0.7561462E-02  0.1299077E+00
          1   -1    0    0  501    0  0.00000000000E+00  0.00000000000E+00  0.42549405205E+03  0.42549405205E+03  0.00000000000E+00 0. -1.
         -1   -1    0    0    0  501 -0.00000000000E+00 -0.00000000000E+00 -0.50405230849E+02  0.50405230849E+02  0.00000000000E+00 0.  1.
         25    2    1    2    0    0  0.14882415654E+02  0.48707332243E+02  0.33812427405E+03  0.36410647016E+03  0.12510638036E+03 0.  0.
         23    2    1    2    0    0 -0.14882415654E+02 -0.48707332243E+02  0.36964547161E+02  0.11179281274E+03  0.92397861032E+02 0.  0.
          5    1    3    3  502    0  0.61933578104E+01  0.86385101389E+02  0.16206076333E+03  0.18379854959E+03  0.41800000000E+01 0. -1.
         -5    1    3    3    0  502  0.86890578433E+01 -0.37677769145E+02  0.17606351072E+03  0.18030792057E+03  0.41800000000E+01 0. -1.
        -11    1    4    4    0    0  0.60491070850E+01 -0.25903997320E+02  0.64873275384E+02  0.70115266759E+02  0.00000000000E+00 0. -1.
         11    1    4    4    0    0 -0.20931522739E+02 -0.22803334924E+02 -0.27908728223E+02  0.41677545979E+02  0.00000000000E+00 0.  1.
</event>
<event>
 8    1  0.3654190E-009  0.1155812E+03  0.7561462E-02  0.1250570E+00
          2   -1    0    0  501    0  0.00000000000E+00  0.00000000000E+00  0.11109007771E+04  0.11109007771E+04  0.00000000000E+00 0.  1.
         -2   -1    0    0    0  501 -0.00000000000E+00 -0.00000000000E+00 -0.13716429905E+02  0.13716429905E+02  0.00000000000E+00 0. -1.
         25    2    1    2    0    0 -0.56396782519E+02  0.19207694988E+02  0.64046907385E+03  0.65528390343E+03  0.12508727718E+03 0.  0.
         23    2    1    2    0    0  0.56396782519E+02 -0.19207694988E+02  0.45671527331E+03  0.46933330354E+03  0.90196320938E+02 0.  0.
          5    1    3    3  502    0 -0.63193243084E+02  0.56576256994E+02  0.55759825466E+03  0.56402796457E+03  0.41800000000E+01 0. -1.
         -5    1    3    3    0  502  0.67964605646E+01 -0.37368562006E+02  0.82870819196E+02  0.91255938858E+02  0.41800000000E+01 0. -1.
        -11    1    4    4    0    0 -0.21608211956E+02 -0.20822026224E+02  0.11957760424E+03  0.12328533991E+03  0.00000000000E+00 0.  1.
         11    1    4    4    0    0  0.78004994475E+02  0.16143312361E+01  0.33713766907E+03  0.34604796363E+03  0.00000000000E+00 0. -1.
</event>
<event>
 8    1  0.3654190E-009  0.9767897E+02  0.7561462E-02  0.1285254E+00
          1   -1    0    0  501    0  0.00000000000E+00  0.00000000000E+00  0.18538926400E+03  0.18538926400E+03  0.00000000000E+00 0. -1.
         -1   -1    0    0    0  501 -0.00000000000E+00 -0.00000000000E+00 -0.71410576537E+02  0.71410576537E+02  0.00000000000E+00 0.  1.
         25    2    1    2    0    0  0.27706944628E+00  0.22997932481E+02  0.20032767578E+02  0.12874933712E+03  0.12508436500E+03 0.  0.
         23    2    1    2    0    0 -0.27706944628E+00 -0.22997932481E+02  0.93945919882E+02  0.12805050341E+03  0.83917303915E+02 0.  0.
          5    1    3    3  502    0  0.33003856045E+02 -0.31996549505E+02  0.40524996834E+02  0.61422971781E+02  0.41800000000E+01 0.  1.
         -5    1    3    3    0  502 -0.32726786599E+02  0.54994481985E+02 -0.20492229255E+02  0.67326365339E+02  0.41800000000E+01 0.  1.
        -11    1    4    4    0    0 -0.41062555931E+02 -0.13065883939E+02  0.34105615729E+02  0.54954925593E+02  0.00000000000E+00 0.  1.
         11    1    4    4    0    0  0.40785486484E+02 -0.99320485414E+01  0.59840304153E+02  0.73095577822E+02  0.00000000000E+00 0. -1.
</event>
<event>
 8    1  0.3654190E-009  0.1255458E+03  0.7561462E-02  0.1234219E+00
          2   -1    0    0  501    0  0.00000000000E+00  0.00000000000E+00  0.14317609361E+03  0.14317609361E+03  0.00000000000E+00 0.  1.
         -2   -1    0    0    0  501 -0.00000000000E+00 -0.00000000000E+00 -0.15528149556E+03  0.15528149556E+03  0.00000000000E+00 0. -1.
         25    2    1    2    0    0 -0.77594387289E+02  0.25488665477E+02 -0.65147489057E+02  0.16297999682E+03  0.12509085909E+03 0.  0.
         23    2    1    2    0    0  0.77594387289E+02 -0.25488665477E+02  0.53042087106E+02  0.13547759235E+03  0.94181495094E+02 0.  0.
          5    1    3    3  502    0 -0.19638437962E+02  0.70767307147E+02 -0.46382600951E+02  0.86962624601E+02  0.41800000000E+01 0. -1.
         -5    1    3    3    0  502 -0.57955949327E+02 -0.45278641671E+02 -0.18764888106E+02  0.76017372222E+02  0.41800000000E+01 0. -1.
        -11    1    4    4    0    0  0.23819394234E+02 -0.41420253143E+02 -0.12327539465E+02  0.49345406487E+02  0.00000000000E+00 0. -1.
         11    1    4    4    0    0  0.53774993056E+02  0.15931587666E+02  0.65369626571E+02  0.86132185864E+02  0.00000000000E+00 0.  1.
</event>
<event>
 8    1  0.3654190E-009  0.1046759E+03  0.7561462E-02  0.1270759E+00
         -3   -1    0    0    0  501 -0.00000000000E+00  0.00000000000E+00  0.70142996605E+02  0.70142996605E+02  0.00000000000E+00 0.  1.
          3   -1    0    0  501    0  0.00000000000E+00 -0.00000000000E+00 -0.18612630460E+03  0.18612630460E+03  0.00000000000E+00 0. -1.
         25    2    1    2    0    0 -0.19232373213E+01  0.14843206945E+01 -0.18541306144E+02  0.12649968310E+03  0.12510990265E+03 0.  0.
         23    2    1    2    0    0  0.19232373213E+01 -0.14843206945E+01 -0.97442001852E+02  0.12976961810E+03  0.85669761341E+02 0.  0.
          5    1    3    3  502    0 -0.63015043118E+02  0.74337875640E+01 -0.82660291319E+01  0.64124538940E+02  0.41800000000E+01 0. -1.
         -5    1    3    3    0  502  0.61091805797E+02 -0.59494668694E+01 -0.10275277013E+02  0.62375144162E+02  0.41800000000E+01 0. -1.
        -11    1    4    4    0    0 -0.21141666623E+02 -0.36575812879E+02 -0.60807882790E+02  0.74042952161E+02  0.00000000000E+00 0. -1.
         11    1    4    4    0    0  0.23064903944E+02  0.35091492184E+02 -0.36634119061E+02  0.55726665943E+02  0.00000000000E+00 0.  1.
</event>
<event>
 8    1  0.3654190E-009  0.1148167E+03  0.7561462E-02  0.1251901E+00
         -1   -1    0    0    0  501 -0.00000000000E+00  0.00000000000E+00  0.62803420080E+02  0.62803420080E+02  0.00000000000E+00 0.  1.
          1   -1    0    0  501    0  0.00000000000E+00 -0.00000000000E+00 -0.25935396371E+03  0.25935396371E+03  0.00000000000E+00 0. -1.
         25    2    1    2    0    0  0.30569552538E+01  0.62743291962E+02 -0.82635705890E+02  0.16255167932E+03  0.12509325681E+03 0.  0.
         23    2    1    2    0    0 -0.30569552538E+01 -0.62743291962E+02 -0.11391483774E+03  0.15960570447E+03  0.92473374447E+02 0.  0.
          5    1    3    3  502    0 -0.47753730322E+02  0.38105591308E+02 -0.86289772830E+02  0.10581045385E+03  0.41800000000E+01 0. -1.
         -5    1    3    3    0  502  0.50810685576E+02  0.24637700654E+02  0.36540669396E+01  0.56741225467E+02  0.41800000000E+01 0. -1.
        -11    1    4    4    0    0 -0.47710754494E+02 -0.29366958334E+02 -0.55649679248E+02  0.78965949222E+02  0.00000000000E+00 0.  1.
         11    1    4    4    0    0  0.44653799240E+02 -0.33376333628E+02 -0.58265158488E+02  0.80639755249E+02  0.00000000000E+00 0. -1.
</event>
<event>
 8    1  0.3654190E-009  0.5612700E+02  0.7561462E-02  0.1414843E+00
          2   -1    0    0  501    0  0.00000000000E+00  0.00000000000E+00  0.81987334004E+03  0.81987334004E+03  0.00000000000E+00 0. -1.
         -2   -1    0    0    0  501 -0.00000000000E+00 -0.00000000000E+00 -0.20020901900E+02  0.20020901900E+02  0.00000000000E+00 0.  1.
         25    2    1    2    0    0 -0.30916256407E+02 -0.31784514928E+02  0.61441156375E+03  0.62858142045E+03  0.12508781781E+03 0.  0.
         23    2    1    2    0    0  0.30916256407E+02  0.31784514928E+02  0.18544087439E+03  0.21131282149E+03  0.91097312431E+02 0.  0.
          5    1    3    3  502    0  0.13949278176E+02 -0.54544225016E+01  0.52368199608E+03  0.52391281575E+03  0.41800000000E+01 0. -1.
         -5    1    3    3    0  502 -0.44865534584E+02 -0.26330092426E+02  0.90729567671E+02  0.10466860470E+03  0.41800000000E+01 0. -1.
        -11    1    4    4    0    0  0.24012183295E+02  0.22193339682E+02  0.19399046403E+03  0.19672678874E+03  0.00000000000E+00 0. -1.
         11    1    4    4    0    0  0.69040731125E+01  0.95911752459E+01 -0.85495896461E+01  0.14586032746E+02  0.00000000000E+00 0.  1.
</event>
<event>
 8    1  0.3654190E-009  0.1135656E+03  0.7561462E-02  0.1254106E+00
         -1   -1    0    0    0  501 -0.00000000000E+00  0.00000000000E+00  0.19638007280E+03  0.19638007280E+03  0.00000000000E+00 0.  1.
          1   -1    0    0  501    0  0.00000000000E+00 -0.00000000000E+00 -0.95868901446E+02  0.95868901446E+02  0.00000000000E+00 0. -1.
         25    2    1    2    0    0 -0.11210249659E+02  0.73304656615E+02  0.14608979367E+02  0.14614862352E+03  0.12508699172E+03 0.  0.
         23    2    1    2    0    0  0.11210249659E+02 -0.73304656615E+02  0.85902191988E+02  0.14610035073E+03  0.92015669949E+02 0.  0.
          5    1    3    3  502    0  0.45530361560E+02  0.37642110327E+02  0.43059500511E+02  0.73222505269E+02  0.41800000000E+01 0. -1.
         -5    1    3    3    0  502 -0.56740611219E+02  0.35662546288E+02 -0.28450521144E+02  0.72926118247E+02  0.41800000000E+01 0. -1.
        -11    1    4    4    0    0 -0.26022374050E+02 -0.11157467421E+02  0.64685523432E+02  0.70610693044E+02  0.00000000000E+00 0.  1.
         11    1    4    4    0    0  0.37232623709E+02 -0.62147189194E+02  0.21216668556E+02  0.75489657686E+02  0.00000000000E+00 0. -1.
</event>
<event>
 8    1  0.3654190E-009  0.1034505E+03  0.7561462E-02  0.1273203E+00
          1   -1    0    0  501    0  0.00000000000E+00  0.00000000000E+00  0.24736603465E+03  0.24736603465E+03  0.00000000000E+00 0. -1.
         -1   -1    0    0    0  501 -0.00000000000E+00 -0.00000000000E+00 -0.61879601221E+02  0.61879601221E+02  0.00000000000E+00 0.  1.
         25    2    1    2    0    0  0.50625619065E+02  0.22175688739E+02  0.12856832982E+03  0.18770643541E+03  0.12509666656E+03 0.  0.
         23    2    1    2    0    0 -0.50625619065E+02 -0.22175688739E+02  0.56918103607E+02  0.12153920046E+03  0.92072755215E+02 0.  0.
          5    1    3    3  502    0 -0.60273332627E+01  0.64034350706E+02  0.46515495266E+02  0.79485159095E+02  0.41800000000E+01 0. -1.
         -5    1    3    3    0  502  0.56652952328E+02 -0.41858661967E+02  0.82052834553E+02  0.10822127632E+03  0.41800000000E+01 0. -1.
        -11    1    4    4    0    0  0.75868078180E+01 -0.97616850659E+01  0.60653523242E+02  0.61900727215E+02  0.00000000000E+00 0. -1.
         11    1    4    4    0    0 -0.58212426883E+02 -0.12414003673E+02 -0.37354196345E+01  0.59638473243E+02  0.00000000000E+00 0.  1.
</event>
<event>
 8    1  0.3654190E-009  0.1127575E+03  0.7561462E-02  0.1255547E+00
         -1   -1    0    0    0  501 -0.00000000000E+00  0.00000000000E+00  0.14396294195E+03  0.14396294195E+03  0.00000000000E+00 0.  1.
          1   -1    0    0  501    0  0.00000000000E+00 -0.00000000000E+00 -0.11644150390E+03  0.11644150390E+03  0.00000000000E+00 0. -1.
         25    2    1    2    0    0  0.17244199955E+02 -0.59027261082E+02 -0.14002326355E+02  0.14009032838E+03  0.12509058709E+03 0.  0.
         23    2    1    2    0    0 -0.17244199955E+02  0.59027261082E+02  0.41523764403E+02  0.12031411747E+03  0.94708414986E+02 0.  0.
          5    1    3    3  502    0  0.61583117444E+02 -0.51289369283E+02  0.20959360498E+02  0.82944842806E+02  0.41800000000E+01 0. -1.
         -5    1    3    3    0  502 -0.44338917490E+02 -0.77378917991E+01 -0.34961686852E+02  0.57145485572E+02  0.41800000000E+01 0. -1.
        -11    1    4    4    0    0 -0.28538314590E+02 -0.99045563035E+01 -0.11804982507E+02  0.32432903774E+02  0.00000000000E+00 0. -1.
         11    1    4    4    0    0  0.11294114636E+02  0.68931817386E+02  0.53328746910E+02  0.87881213695E+02  0.00000000000E+00 0.  1.
</event>
<event>
 8    1  0.3654190E-009  0.8802761E+02  0.7561462E-02  0.1307700E+00
         -1   -1    0    0    0  501 -0.00000000000E+00  0.00000000000E+00  0.70845236600E+02  0.70845236600E+02  0.00000000000E+00 0.  1.
          1   -1    0    0  501    0  0.00000000000E+00 -0.00000000000E+00 -0.20702708595E+03  0.20702708595E+03  0.00000000000E+00 0. -1.
         25    2    1    2    0    0 -0.16200902672E+02  0.15453888190E+01 -0.13566557338E+02  0.12687263478E+03  0.12509099289E+03 0.  0.
         23    2    1    2    0    0  0.16200902672E+02 -0.15453888190E+01 -0.12261529201E+03  0.15099968777E+03  0.86611421874E+02 0.  0.
          5    1    3    3  502    0  0.17986710629E+02  0.39915315831E+02 -0.47821487169E+02  0.64970156474E+02  0.41800000000E+01 0. -1.
         -5    1    3    3    0  502 -0.34187613301E+02 -0.38369927012E+02  0.34254929831E+02  0.61902478301E+02  0.41800000000E+01 0. -1.
        -11    1    4    4    0    0 -0.16286677431E+02  0.30692747512E+02 -0.84757433369E+02  0.91603073763E+02  0.00000000000E+00 0. -1.
         11    1    4    4    0    0  0.32487580103E+02 -0.32238136331E+02 -0.37857858641E+02  0.59396614011E+02  0.00000000000E+00 0.  1.
</event>
<event>
 8    1  0.3654190E-009  0.9027048E+02  0.7561462E-02  0.1302198E+00
          2   -1    0    0  501    0  0.00000000000E+00  0.00000000000E+00  0.64047799079E+03  0.64047799079E+03  0.00000000000E+00 0. -1.
         -2   -1    0    0    0  501 -0.00000000000E+00 -0.00000000000E+00 -0.21225866473E+02  0.21225866473E+02  0.00000000000E+00 0.  1.
         25    2    1    2    0    0 -0.16443954173E+02 -0.30280542016E+02  0.42436556501E+03  0.44375800648E+03  0.12509084977E+03 0.  0.
         23    2    1    2    0    0  0.16443954173E+02  0.30280542016E+02  0.19488655930E+03  0.21794585078E+03  0.91281476876E+02 0.  0.
          5    1    3    3  502    0 -0.19213410269E+02 -0.57912419127E+02  0.40512618227E+03  0.40971660863E+03  0.41800000000E+01 0. -1.
         -5    1    3    3    0  502  0.27694560964E+01  0.27631877111E+02  0.19239382737E+02  0.34041397854E+02  0.41800000000E+01 0. -1.
        -11    1    4    4    0    0 -0.17663162174E+02 -0.22408848666E+02  0.29460617752E+02  0.41013068586E+02  0.00000000000E+00 0.  1.
         11    1    4    4    0    0  0.34107116347E+02  0.52689390682E+02  0.16542594155E+03  0.17693278219E+03  0.00000000000E+00 0. -1.
</event>
<event>
 8    1  0.3654190E-009  0.1121562E+03  0.7561462E-02  0.1256628E+00
         -2   -1    0    0    0  501 -0.00000000000E+00  0.00000000000E+00  0.37568071189E+03  0.37568071189E+03  0.00000000000E+00 0.  1.
          2   -1    0    0  501    0  0.00000000000E+00 -0.00000000000E+00 -0.36301997480E+02  0.36301997480E+02  0.00000000000E+00 0. -1.
         25    2    1    2    0    0 -0.14853564520E+02 -0.23672140407E+02  0.13636699155E+03  0.18714783574E+03  0.12508939774E+03 0.  0.
         23    2    1    2    0    0  0.14853564520E+02  0.23672140407E+02  0.20301172286E+03  0.22483487363E+03  0.92498444150E+02 0.  0.
          5    1    3    3  502    0  0.21174504442E+02  0.45169191007E+02  0.59711361376E+02  0.77920052182E+02  0.41800000000E+01 0. -1.
         -5    1    3    3    0  502 -0.36028068962E+02 -0.68841331414E+02  0.76655630169E+02  0.10922778356E+03  0.41800000000E+01 0. -1.
        -11    1    4    4    0    0 -0.25089991615E+02 -0.23673673431E+02  0.79445207201E+02  0.86611150784E+02  0.00000000000E+00 0.  1.
         11    1    4    4    0    0  0.39943556135E+02  0.47345813838E+02  0.12356651566E+03  0.13822372285E+03  0.00000000000E+00 0. -1.
</event>
<event>
 8    1  0.3654190E-009  0.8844718E+02  0.7561462E-02  0.1306656E+00
          1   -1    0    0  501    0  0.00000000000E+00  0.00000000000E+00  0.62925967186E+02  0.62925967186E+02  0.00000000000E+00 0. -1.
         -1   -1    0    0    0  501 -0.00000000000E+00 -0.00000000000E+00 -0.24678058406E+03  0.24678058406E+03  0.00000000000E+00 0.  1.
         25    2    1    2    0    0  0.29912077628E+02  0.39292012387E+02 -0.15162243467E+03  0.20267367127E+03  0.12509460303E+03 0.  0.
         23    2    1    2    0    0 -0.29912077628E+02 -0.39292012387E+02 -0.32232182203E+02  0.10703287997E+03  0.89322613038E+02 0.  0.
          5    1    3    3  502    0 -0.10670741932E+02  0.69458923129E+02 -0.42245564815E+02  0.82100955428E+02  0.41800000000E+01 0.  1.
         -5    1    3    3    0  502  0.40582819561E+02 -0.30166910742E+02 -0.10937686986E+03  0.12057271585E+03  0.41800000000E+01 0.  1.
        -11    1    4    4    0    0 -0.34183219046E+02 -0.29802705571E+02 -0.61246360130E+02  0.76208991286E+02  0.00000000000E+00 0.  1.
         11    1    4    4    0    0  0.42711414177E+01 -0.94893068164E+01  0.29014177927E+02  0.30823888685E+02  0.00000000000E+00 0. -1.
</event>
<event>
 8    1  0.3654190E-009  0.1085832E+03  0.7561462E-02  0.1263216E+00
          1   -1    0    0  501    0  0.00000000000E+00  0.00000000000E+00  0.26623519791E+03  0.26623519791E+03  0.00000000000E+00 0. -1.
         -1   -1    0    0    0  501 -0.00000000000E+00 -0.00000000000E+00 -0.50133798230E+02  0.50133798230E+02  0.00000000000E+00 0.  1.
         25    2    1    2    0    0  0.11100063657E+02 -0.33698981127E+02  0.12953238263E+03  0.18353488237E+03  0.12509029600E+03 0.  0.
         23    2    1    2    0    0 -0.11100063657E+02  0.33698981127E+02  0.86569017040E+02  0.13283411376E+03  0.94296735501E+02 0.  0.
          5    1    3    3  502    0 -0.55748791020E+02 -0.24739352122E+02  0.48592283589E+02  0.78093826055E+02  0.41800000000E+01 0. -1.
         -5    1    3    3    0  502  0.66848854676E+02 -0.89596290050E+01  0.80940099046E+02  0.10544105632E+03  0.41800000000E+01 0. -1.
        -11    1    4    4    0    0  0.16570376296E+02  0.52466667174E+02  0.20369943148E+02  0.58670802950E+02  0.00000000000E+00 0.  1.
         11    1    4    4    0    0 -0.27670439953E+02 -0.18767686047E+02  0.66199073892E+02  0.74163310814E+02  0.00000000000E+00 0. -1.
</event>
<event>
 8    1  0.3654190E-009  0.9749593E+02  0.7561462E-02  0.1285652E+00
         -1   -1    0    0    0  501 -0.00000000000E+00  0.00000000000E+00  0.24010373462E+02  0.24010373462E+02  0.00000000000E+00 0.  1.
          1   -1    0    0  501    0  0.00000000000E+00 -0.00000000000E+00 -0.60664829732E+03  0.60664829732E+03  0.00000000000E+00 0. -1.
         25    2    1    2    0    0  0.48374839879E+02  0.18698166360E+02 -0.35839087428E+03  0.38311748782E+03  0.12508095039E+03 0.  0.
         23    2    1    2    0    0 -0.48374839879E+02 -0.18698166360E+02 -0.22424704958E+03  0.24754118296E+03  0.91105167021E+02 0.  0.
          5    1    3    3  502    0  0.53286934848E+02 -0.29741784943E+02 -0.30359882442E+03  0.30969951532E+03  0.41800000000E+01 0.  1.
         -5    1    3    3    0  502 -0.49120949688E+01  0.48439951303E+02 -0.54792049854E+02  0.73417972503E+02  0.41800000000E+01 0.  1.
        -11    1    4    4    0    0  0.97482206232E+00 -0.33438099329E+02 -0.16790862527E+03  0.17120853718E+03  0.00000000000E+00 0. -1.
         11    1    4    4    0    0 -0.49349661941E+02  0.14739932969E+02 -0.56338424314E+02  0.76332645781E+02  0.00000000000E+00 0.  1.
</event>
<event>
 8    1  0.3654190E-009  0.1264868E+03  0.7561462E-02  0.1232764E+00
         -1   -1    0    0    0  501 -0.00000000000E+00  0.00000000000E+00  0.50490930905E+02  0.50490930905E+02  0.00000000000E+00 0.  1.
          1   -1    0    0  501    0  0.00000000000E+00 -0.00000000000E+00 -0.51030572166E+03  0.51030572166E+03  0.00000000000E+00 0. -1.
         25    2    1    2    0    0  0.65594206744E+02  0.70789449729E+02 -0.12833818500E+03  0.20354657562E+03  0.12508705994E+03 0.  0.
         23    2    1    2    0    0 -0.65594206744E+02 -0.70789449729E+02 -0.33147660575E+03  0.35725007695E+03  0.91853857658E+02 0.  0.
          5    1    3    3  502    0 -0.32588800169E+02  0.38148217637E+02 -0.64785855258E+02  0.82048740678E+02  0.41800000000E+01 0. -1.
         -5    1    3    3    0  502  0.98183006913E+02  0.32641232092E+02 -0.63552329743E+02  0.12149783494E+03  0.41800000000E+01 0. -1.
        -11    1    4    4    0    0 -0.54430491461E+02 -0.43787960796E+02 -0.31706762215E+03  0.32467205135E+03  0.00000000000E+00 0. -1.
         11    1    4    4    0    0 -0.11163715283E+02 -0.27001488933E+02 -0.14408983604E+02  0.32578025600E+02  0.00000000000E+00 0.  1.
</event>
<event>
 8    1  0.3654190E-009  0.8945028E+02  0.7561462E-02  0.1304188E+00
          2   -1    0    0  501    0  0.00000000000E+00  0.00000000000E+00  0.67300946762E+03  0.67300946762E+03  0.00000000000E+00 0. -1.
         -2   -1    0    0    0  501 -0.00000000000E+00 -0.00000000000E+00 -0.21777718673E+02  0.21777718673E+02  0.00000000000E+00 0.  1.
         25    2    1    2    0    0  0.84575677766E+01  0.27193241530E+02  0.49762931740E+03  0.51390230318E+03  0.12509850854E+03 0.  0.
         23    2    1    2    0    0 -0.84575677766E+01 -0.27193241530E+02  0.15360243154E+03  0.18088488311E+03  0.91184599163E+02 0.  0.
          5    1    3    3  502    0 -0.19070829080E+01  0.74381035857E+02  0.36867439009E+03  0.37613089978E+03  0.41800000000E+01 0. -1.
         -5    1    3    3    0  502  0.10364650685E+02 -0.47187794327E+02  0.12895492731E+03  0.13777140340E+03  0.41800000000E+01 0. -1.
        -11    1    4    4    0    0  0.12475678837E+02 -0.32052427464E+02  0.15554974548E+03  0.15930701173E+03  0.00000000000E+00 0. -1.
         11    1    4    4    0    0 -0.20933246613E+02  0.48591859336E+01 -0.19473139343E+01  0.21577871380E+02  0.00000000000E+00 0.  1.
</event>
<event>
 8    1  0.3654190E-009  0.1083130E+03  0.7561462E-02  0.1263726E+00
          1   -1    0    0  501    0  0.00000000000E+00  0.00000000000E+00  0.81926225805E+03  0.81926225805E+03  0.00000000000E+00 0. -1.
         -1   -1    0    0    0  501 -0.00000000000E+00 -0.00000000000E+00 -0.23529017756E+02  0.23529017756E+02  0.00000000000E+00 0.  1.
         25    2    1    2    0    0  0.50325765793E+02 -0.80961052129E+01  0.64557543293E+03  0.65955542864E+03  0.12508994456E+03 0.  0.
         23    2    1    2    0    0 -0.50325765793E+02  0.80961052129E+01  0.15015780736E+03  0.18323584716E+03  0.91813827664E+02 0.  0.
          5    1    3    3  502    0  0.44133403182E+02  0.48850875685E+02  0.20756662037E+03  0.21779701472E+03  0.41800000000E+01 0. -1.
         -5    1    3    3    0  502  0.61923626107E+01 -0.56946980898E+02  0.43800881256E+03  0.44175841392E+03  0.41800000000E+01 0. -1.
        -11    1    4    4    0    0 -0.70712750326E+02 -0.14166087311E+01  0.68222252447E+02  0.98267876581E+02  0.00000000000E+00 0.  1.
         11    1    4    4    0    0  0.20386984533E+02  0.95127139440E+01  0.81935554917E+02  0.84967970580E+02  0.00000000000E+00 0. -1.
</event>
<event>
 8    1  0.3654190E-009  0.1163272E+03  0.7561462E-02  0.1249282E+00
          2   -1    0    0  501    0  0.00000000000E+00  0.00000000000E+00  0.69363046342E+03  0.69363046342E+03  0.00000000000E+00 0. -1.
         -2   -1    0    0    0  501 -0.00000000000E+00 -0.00000000000E+00 -0.31475772752E+02  0.31475772752E+02  0.00000000000E+00 0.  1.
         25    2    1    2    0    0  0.66088962351E+02 -0.21349920112E+02  0.18219137033E+03  0.23165695970E+03  0.12509069318E+03 0.  0.
         23    2    1    2    0    0 -0.66088962351E+02  0.21349920112E+02  0.47996332034E+03  0.49344927648E+03  0.91125350760E+02 0.  0.
          5    1    3    3  502    0  0.17137475626E+02 -0.57020424873E+02  0.27970057376E+02  0.65915236730E+02  0.41800000000E+01 0. -1.
         -5    1    3    3    0  502  0.48951486726E+02  0.35670504762E+02  0.15422131295E+03  0.16574172297E+03  0.41800000000E+01 0. -1.
        -11    1    4    4    0    0 -0.46008750398E+02 -0.31472977819E+02  0.28780927492E+03  0.29315786221E+03  0.00000000000E+00 0. -1.
         11    1    4    4    0    0 -0.20080211953E+02  0.52822897930E+02  0.19215404542E+03  0.20029141427E+03  0.00000000000E+00 0.  1.
</event>
<event>
 8    1  0.3654190E-009  0.7503002E+02  0.7561462E-02  0.1343778E+00
          2   -1    0    0  501    0  0.00000000000E+00  0.00000000000E+00  0.35575659310E+03  0.35575659310E+03  0.00000000000E+00 0. -1.
         -2   -1    0    0    0  501 -0.00000000000E+00 -0.00000000000E+00 -0.47425871558E+02  0.47425871558E+02  0.00000000000E+00 0.  1.
         25    2    1    2    0    0  0.26678329202E+01 -0.11418157599E+02  0.27345734509E+03  0.30093743804E+03  0.12508769074E+03 0.  0.
         23    2    1    2    0    0 -0.26678329202E+01  0.11418157599E+02  0.34873376450E+02  0.10224502662E+03  0.95396024171E+02 0.  0.
          5    1    3    3  502    0 -0.25105203426E+02 -0.39151224119E+02  0.25144363804E+03  0.25574296687E+03  0.41800000000E+01 0. -1.
         -5    1    3    3    0  502  0.27773036346E+02  0.27733066520E+02  0.22013707045E+02  0.45194471170E+02  0.41800000000E+01 0. -1.
        -11    1    4    4    0    0 -0.29727683296E+02  0.19618555606E+02 -0.19757559958E+02  0.40730627956E+02  0.00000000000E+00 0.  1.
         11    1    4    4    0    0  0.27059850376E+02 -0.82003980063E+01  0.54630936409E+02  0.61514398662E+02  0.00000000000E+00 0. -1.
</event>
<event>
 8    1  0.3654190E-009  0.1365459E+03  0.7561462E-02  0.1218054E+00
         -2   -1    0    0    0  501 -0.00000000000E+00  0.00000000000E+00  0.13761098943E+03  0.13761098943E+03  0.00000000000E+00 0. -1.
          2   -1    0    0  501    0  0.00000000000E+00 -0.00000000000E+00 -0.14647192796E+03  0.14647192796E+03  0.00000000000E+00 0.  1.
         25    2    1    2    0    0 -0.62758538457E+02 -0.59766022909E+02 -0.33938793836E+02  0.15591613821E+03  0.12508952307E+03 0.  0.
         23    2    1    2    0    0  0.62758538457E+02  0.59766022909E+02  0.25077855306E+02  0.12816677918E+03  0.91034129940E+02 0.  0.
          5    1    3    3  502    0 -0.99442935858E+02 -0.28224305631E+02 -0.19729452154E+02  0.10531966864E+03  0.41800000000E+01 0.  1.
         -5    1    3    3    0  502  0.36684397402E+02 -0.31541717278E+02 -0.14209341682E+02  0.50596469566E+02  0.41800000000E+01 0.  1.
        -11    1    4    4    0    0  0.30035101753E+02  0.78023122931E+02  0.97084435823E+00  0.83610152422E+02  0.00000000000E+00 0.  1.
         11    1    4    4    0    0  0.32723436703E+02 -0.18257100022E+02  0.24107010948E+02  0.44556626754E+02  0.00000000000E+00 0. -1.
</event>
<event>
 8    1  0.3654190E-009  0.8439845E+02  0.7561462E-02  0.1317013E+00
          3   -1    0    0  501    0  0.00000000000E+00  0.00000000000E+00  0.10513903447E+03  0.10513903447E+03  0.00000000000E+00 0. -1.
         -3   -1    0    0    0  501 -0.00000000000E+00 -0.00000000000E+00 -0.13130794971E+03  0.13130794971E+03  0.00000000000E+00 0.  1.
         25    2    1    2    0    0 -0.82752843272E+01 -0.35266157054E+02  0.16821886570E+02  0.13131387304E+03  0.12509266653E+03 0.  0.
         23    2    1    2    0    0  0.82752843272E+01  0.35266157054E+02 -0.42990801803E+02  0.10513311114E+03  0.88840192792E+02 0.  0.
          5    1    3    3  502    0 -0.37143633111E+02 -0.32155539242E+02 -0.42525989865E+02  0.65111906735E+02  0.41800000000E+01 0. -1.
         -5    1    3    3    0  502  0.28868348784E+02 -0.31106178112E+01  0.59347876435E+02  0.66201966301E+02  0.41800000000E+01 0. -1.
        -11    1    4    4    0    0  0.44516287743E+02  0.29639203643E+02 -0.42733769921E+02  0.68456974507E+02  0.00000000000E+00 0.  1.
         11    1    4    4    0    0 -0.36241003416E+02  0.56269534107E+01 -0.25703188115E+00  0.36676136637E+02  0.00000000000E+00 0. -1.
</event>
<event>
 8    1  0.3654190E-009  0.8687189E+02  0.7561462E-02  0.1310609E+00
          2   -1    0    0  501    0  0.00000000000E+00  0.00000000000E+00  0.72095744434E+02  0.72095744434E+02  0.00000000000E+00 0. -1.
         -2   -1    0    0    0  501 -0.00000000000E+00 -0.00000000000E+00 -0.16923147097E+03  0.16923147097E+03  0.00000000000E+00 0.  1.
         25    2    1    2    0    0  0.11797548781E+02 -0.14164367188E+02 -0.55171404333E+02  0.13795968347E+03  0.12509667843E+03 0.  0.
         23    2    1    2    0    0 -0.11797548781E+02  0.14164367188E+02 -0.41964322201E+02  0.10336753193E+03  0.92650045136E+02 0.  0.
          5    1    3    3  502    0 -0.41471043696E+02  0.19144452253E+00  0.18685106323E+02  0.45678109796E+02  0.41800000000E+01 0. -1.
         -5    1    3    3    0  502  0.53268592477E+02 -0.14355811711E+02 -0.73856510655E+02  0.92281573678E+02  0.41800000000E+01 0. -1.
        -11    1    4    4    0    0  0.17118843451E+02 -0.23610104017E+02 -0.47226912607E+02  0.55505613114E+02  0.00000000000E+00 0.  1.
         11    1    4    4    0    0 -0.28916392232E+02  0.37774471206E+02  0.52625904063E+01  0.47861918812E+02  0.00000000000E+00 0. -1.
</event>
<event>
 8    1  0.3654190E-009  0.7338300E+02  0.7561462E-02  0.1348953E+00
         -1   -1    0    0    0  501 -0.00000000000E+00  0.00000000000E+00  0.52506153029E+02  0.52506153029E+02  0.00000000000E+00 0.  1.
          1   -1    0    0  501    0  0.00000000000E+00 -0.00000000000E+00 -0.28585048833E+03  0.28585048833E+03  0.00000000000E+00 0. -1.
         25    2    1    2    0    0  0.55126189984E+02  0.12114656228E+02 -0.13686607025E+03  0.19381807634E+03  0.12508982298E+03 0.  0.
         23    2    1    2    0    0 -0.55126189984E+02 -0.12114656228E+02 -0.96478265050E+02  0.14453856502E+03  0.91638853294E+02 0.  0.
          5    1    3    3  502    0  0.56724850826E+02  0.36657056153E+01 -0.38038764840E+00  0.56997922714E+02  0.41800000000E+01 0. -1.
         -5    1    3    3    0  502 -0.15986608417E+01  0.84489506125E+01 -0.13648568260E+03  0.13682015362E+03  0.41800000000E+01 0. -1.
        -11    1    4    4    0    0 -0.63974717734E+02  0.14751155511E+01 -0.21017300447E+02  0.67354787455E+02  0.00000000000E+00 0.  1.
         11    1    4    4    0    0  0.88485277492E+01 -0.13589771779E+02 -0.75460964603E+02  0.77183777565E+02  0.00000000000E+00 0. -1.
</event>
<event>
 8    1  0.3654190E-009  0.1279644E+03  0.7561462E-02  0.1230508E+00
          1   -1    0    0  501    0  0.00000000000E+00  0.00000000000E+00  0.13704762108E+03  0.13704762108E+03  0.00000000000E+00 0. -1.
         -1   -1    0    0    0  501 -0.00000000000E+00 -0.00000000000E+00 -0.15838606784E+03  0.15838606784E+03  0.00000000000E+00 0.  1.
         25    2    1    2    0    0 -0.88507339136E+02 -0.18774654089E+02  0.30405860012E+02  0.15734725178E+03  0.12509038574E+03 0.  0.
         23    2    1    2    0    0  0.88507339136E+02  0.18774654089E+02 -0.51744306774E+02  0.13808643713E+03  0.90577889788E+02 0.  0.
          5    1    3    3  502    0 -0.12039130785E+02  0.33754115920E+02 -0.29696068886E+02  0.46729112113E+02  0.41800000000E+01 0.  1.
         -5    1    3    3    0  502 -0.76468208351E+02 -0.52528770009E+02  0.60101928898E+02  0.11061813967E+03  0.41800000000E+01 0.  1.
        -11    1    4    4    0    0  0.10105425748E+03 -0.38328088504E+01 -0.48071492694E+02  0.11197107568E+03  0.00000000000E+00 0. -1.
         11    1    4    4    0    0 -0.12546918344E+02  0.22607462939E+02 -0.36728140808E+01  0.26115361452E+02  0.00000000000E+00 0.  1.
</event>
<event>
 8    1  0.3654190E-009  0.1298413E+03  0.7561462E-02  0.1227691E+00
         -1   -1    0    0    0  501 -0.00000000000E+00  0.00000000000E+00  0.27446734617E+02  0.27446734617E+02  0.00000000000E+00 0.  1.
          1   -1    0    0  501    0  0.00000000000E+00 -0.00000000000E+00 -0.85934201059E+03  0.85934201059E+03  0.00000000000E+00 0. -1.
         25    2    1    2    0    0 -0.44300809372E+02  0.81864656277E+02 -0.64012881195E+03  0.65884390367E+03  0.12508401118E+03 0.  0.
         23    2    1    2    0    0  0.44300809372E+02 -0.81864656277E+02 -0.19176646402E+03  0.22794484154E+03  0.80747076739E+02 0.  0.
          5    1    3    3  502    0  0.26833784579E+02 -0.16440806966E+02 -0.88796033830E+02  0.94300371964E+02  0.41800000000E+01 0.  1.
         -5    1    3    3    0  502 -0.71134593950E+02  0.98305463242E+02 -0.55133277812E+03  0.56454353170E+03  0.41800000000E+01 0.  1.
        -11    1    4    4    0    0  0.44535224390E+02 -0.27892400969E+02 -0.15221857727E+03  0.16103374649E+03  0.00000000000E+00 0. -1.
         11    1    4    4    0    0 -0.23441501856E+00 -0.53972255308E+02 -0.39547886748E+02  0.66911095041E+02  0.00000000000E+00 0.  1.
</event>
<event>
 8    1  0.3654190E-009  0.1236005E+03  0.7561462E-02  0.1237273E+00
         -1   -1    0    0    0  501 -0.00000000000E+00  0.00000000000E+00  0.37043972836E+03  0.37043972836E+03  0.00000000000E+00 0.  1.
          1   -1    0    0  501    0  0.00000000000E+00 -0.00000000000E+00 -0.13307486606E+03  0.13307486606E+03  0.00000000000E+00 0. -1.
         25    2    1    2    0    0  0.77085136101E+02 -0.53931933442E+02  0.31440572563E+03  0.35120613048E+03  0.12507603338E+03 0.  0.
         23    2    1    2    0    0 -0.77085136101E+02  0.53931933442E+02 -0.77040863328E+02  0.15230846394E+03  0.91715876012E+02 0.  0.
          5    1    3    3  502    0 -0.32472129599E+02 -0.13457337826E+02  0.11225351132E+03  0.11770243135E+03  0.41800000000E+01 0. -1.
         -5    1    3    3    0  502  0.10955726570E+03 -0.40474595616E+02  0.20215221430E+03  0.23350369913E+03  0.41800000000E+01 0. -1.
        -11    1    4    4    0    0 -0.82655723223E+01  0.11224772912E+02  0.20958628533E+02  0.25171001623E+02  0.00000000000E+00 0.  1.
         11    1    4    4    0    0 -0.68819563778E+02  0.42707160530E+02 -0.97999491860E+02  0.12713746232E+03  0.00000000000E+00 0. -1.
</event>
<event>
 8    1  0.3654190E-009  0.8738691E+02  0.7561462E-02  0.1309306E+00
          1   -1    0    0  501    0  0.00000000000E+00  0.00000000000E+00  0.47801209718E+02  0.47801209718E+02  0.00000000000E+00 0. -1.
         -1   -1    0    0    0  501 -0.00000000000E+00 -0.00000000000E+00 -0.42011817993E+03  0.42011817993E+03  0.00000000000E+00 0.  1.
         25    2    1    2    0    0 -0.12329076498E+02  0.73025771126E+02 -0.11663894928E+03  0.18637465819E+03  0.12508436893E+03 0.  0.
         23    2    1    2    0    0  0.12329076498E+02 -0.73025771126E+02 -0.25567802094E+03  0.28154473146E+03  0.91713772404E+02 0.  0.
          5    1    3    3  502    0  0.13355257739E+02  0.29500976746E+02  0.21585420562E+02  0.39141708178E+02  0.41800000000E+01 0. -1.
         -5    1    3    3    0  502 -0.25684334237E+02  0.43524794380E+02 -0.13822436984E+03  0.14723295001E+03  0.41800000000E+01 0. -1.
        -11    1    4    4    0    0  0.33656447420E+02 -0.44890133045E+02 -0.57840495365E+02  0.80581656732E+02  0.00000000000E+00 0.  1.
         11    1    4    4    0    0 -0.21327370922E+02 -0.28135638082E+02 -0.19783752557E+03  0.20096307473E+03  0.00000000000E+00 0. -1.
</event>
<event>
 8    1  0.3654190E-009  0.1906020E+03  0.7561462E-02  0.1157919E+00
          1   -1    0    0  501    0  0.00000000000E+00  0.00000000000E+00  0.44245179340E+03  0.44245179340E+03  0.00000000000E+00 0. -1.
         -1   -1    0    0    0  501 -0.00000000000E+00 -0.00000000000E+00 -0.96422427259E+02  0.96422427259E+02  0.00000000000E+00 0.  1.
         25    2    1    2    0    0  0.10496850421E+03  0.12778156025E+03  0.25651382942E+03  0.32983944701E+03  0.12509277399E+03 0.  0.
         23    2    1    2    0    0 -0.10496850421E+03 -0.12778156025E+03  0.89515536721E+02  0.20903477365E+03  0.91301649837E+02 0.  0.
          5    1    3    3  502    0  0.38682673545E+01  0.86119249414E+02  0.16884261662E+03  0.18962275759E+03  0.41800000000E+01 0.  1.
         -5    1    3    3    0  502  0.10110023686E+03  0.41662310838E+02  0.87671212804E+02  0.14021668942E+03  0.41800000000E+01 0.  1.
        -11    1    4    4    0    0 -0.23053157821E+02 -0.94127739228E+02  0.66506457230E+02  0.11753547648E+03  0.00000000000E+00 0. -1.
         11    1    4    4    0    0 -0.81915346388E+02 -0.33653821024E+02  0.23009079491E+02  0.91499297169E+02  0.00000000000E+00 0.  1.
</event>
<event>
 8    1  0.3654190E-009  0.2948178E+03  0.7561462E-02  0.1087860E+00
          1   -1    0    0  501    0  0.00000000000E+00  0.00000000000E+00  0.74954724280E+02  0.74954724280E+02  0.00000000000E+00 0. -1.
         -1   -1    0    0    0  501 -0.00000000000E+00 -0.00000000000E+00 -0.13357887771E+04  0.13357887771E+04  0.00000000000E+00 0.  1.
         25    2    1    2    0    0  0.22481927402E+03 -0.17757820007E+03 -0.47420247377E+03  0.56797214423E+03  0.12508655957E+03 0.  0.
         23    2    1    2    0    0 -0.22481927402E+03  0.17757820007E+03 -0.78663157904E+03  0.84277135713E+03  0.96936041554E+02 0.  0.
          5    1    3    3  502    0  0.11587312618E+03 -0.15070327746E+03 -0.22463657397E+03  0.29430786938E+03  0.41800000000E+01 0. -1.
         -5    1    3    3    0  502  0.10894614784E+03 -0.26874922606E+02 -0.24956589979E+03  0.27366427486E+03  0.41800000000E+01 0. -1.
        -11    1    4    4    0    0 -0.14127350696E+03  0.99014686640E+02 -0.59440369539E+03  0.61893284372E+03  0.00000000000E+00 0.  1.
         11    1    4    4    0    0 -0.83545767063E+02  0.78563513425E+02 -0.19222788365E+03  0.22383851341E+03  0.00000000000E+00 0. -1.
</event>
<event>
 8    1  0.3654190E-009  0.9716905E+02  0.7561462E-02  0.1286364E+00
         -2   -1    0    0    0  501 -0.00000000000E+00  0.00000000000E+00  0.21040043949E+02  0.21040043949E+02  0.00000000000E+00 0.  1.
          2   -1    0    0  501    0  0.00000000000E+00 -0.00000000000E+00 -0.71889969042E+03  0.71889969042E+03  0.00000000000E+00 0. -1.
         25    2    1    2    0    0  0.33663055847E+02 -0.10800782913E+02 -0.52915611887E+03  0.54488762386E+03  0.12508583558E+03 0.  0.
         23    2    1    2    0    0 -0.33663055847E+02  0.10800782913E+02 -0.16870352760E+03  0.19505211050E+03  0.91293961172E+02 0.  0.
          5    1    3    3  502    0  0.72673979515E+02  0.23893640874E+02 -0.34662531552E+03  0.35499154234E+03  0.41800000000E+01 0.  1.
         -5    1    3    3    0  502 -0.39010923668E+02 -0.34694423786E+02 -0.18253080335E+03  0.18989608153E+03  0.41800000000E+01 0.  1.
        -11    1    4    4    0    0  0.69811030203E+01 -0.15457274823E+02  0.24981026991E+01  0.17143618679E+02  0.00000000000E+00 0.  1.
         11    1    4    4    0    0 -0.40644158867E+02  0.26258057735E+02 -0.17120163030E+03  0.17790849182E+03  0.00000000000E+00 0. -1.
</event>
<event>
 8    1  0.3654190E-009  0.9599980E+02  0.7561462E-02  0.1288940E+00
          1   -1    0    0  501    0  0.00000000000E+00  0.00000000000E+00  0.38874718328E+03  0.38874718328E+03  0.00000000000E+00 0. -1.
         -1   -1    0    0    0  501 -0.00000000000E+00 -0.00000000000E+00 -0.43467529338E+02  0.43467529338E+02  0.00000000000E+00 0.  1.
         25    2    1    2    0    0  0.37705731520E+01  0.19788192835E+02  0.30377258905E+03  0.32914330597E+03  0.12510691510E+03 0.  0.
         23    2    1    2    0    0 -0.37705731520E+01 -0.19788192835E+02  0.41507064885E+02  0.10307140664E+03  0.92168805106E+02 0.  0.
          5    1    3    3  502    0  0.47967369232E+02  0.52682272388E+02  0.17751428817E+03  0.19132455472E+03  0.41800000000E+01 0. -1.
         -5    1    3    3    0  502 -0.44196796080E+02 -0.32894079553E+02  0.12625830088E+03  0.13781875125E+03  0.41800000000E+01 0. -1.
        -11    1    4    4    0    0  0.90340390609E+01 -0.40242878034E+02 -0.13177918442E+02  0.43298506079E+02  0.00000000000E+00 0.  1.
         11    1    4    4    0    0 -0.12804612213E+02  0.20454685199E+02  0.54684983327E+02  0.59772900565E+02  0.00000000000E+00 0. -1.
</event>
<event>
 8    1  0.3654190E-009  0.1215263E+03  0.7561462E-02  0.1240600E+00
          2   -1    0    0  501    0  0.00000000000E+00  0.00000000000E+00  0.79374385999E+03  0.79374385999E+03  0.00000000000E+00 0. -1.
         -2   -1    0    0    0  501 -0.00000000000E+00 -0.00000000000E+00 -0.26844405900E+02  0.26844405900E+02  0.00000000000E+00 0.  1.
         25    2    1    2    0    0  0.45692255095E+02 -0.91127765215E+02  0.40429140966E+03  0.43530705048E+03  0.12509449430E+03 0.  0.
         23    2    1    2    0    0 -0.45692255095E+02  0.91127765215E+02  0.36260804443E+03  0.38528121541E+03  0.81024498110E+02 0.  0.
          5    1    3    3  502    0  0.59301073544E+02 -0.93636358862E+02  0.18615562550E+03  0.21669281098E+03  0.41800000000E+01 0.  1.
         -5    1    3    3    0  502 -0.13608818449E+02  0.25085936472E+01  0.21813578416E+03  0.21861423950E+03  0.41800000000E+01 0.  1.
        -11    1    4    4    0    0  0.12030150485E+02  0.35641026097E+02  0.49926358319E+02  0.62511187134E+02  0.00000000000E+00 0.  1.
         11    1    4    4    0    0 -0.57722405580E+02  0.55486739118E+02  0.31268168611E+03  0.32277002828E+03  0.00000000000E+00 0. -1.
</event>
<event>
 8    1  0.3654190E-009  0.7895820E+02  0.7561462E-02  0.1332034E+00
         -2   -1    0    0    0  501 -0.00000000000E+00  0.00000000000E+00  0.12649681620E+03  0.12649681620E+03  0.00000000000E+00 0.  1.
          2   -1    0    0  501    0  0.00000000000E+00 -0.00000000000E+00 -0.12100984413E+03  0.12100984413E+03  0.00000000000E+00 0. -1.
         25    2    1    2    0    0  0.81548454448E+01  0.32728664764E+02 -0.45215200505E+02  0.13723297567E+03  0.12510319041E+03 0.  0.
         23    2    1    2    0    0 -0.81548454448E+01 -0.32728664764E+02  0.50702172569E+02  0.11027368467E+03  0.91934260347E+02 0.  0.
          5    1    3    3  502    0  0.96571797695E+01  0.71084142190E+02  0.71034232442E+01  0.72209053544E+02  0.41800000000E+01 0. -1.
         -5    1    3    3    0  502 -0.15023343247E+01 -0.38355477425E+02 -0.52318623749E+02  0.65023922121E+02  0.41800000000E+01 0. -1.
        -11    1    4    4    0    0  0.13025102839E+02 -0.10379498774E+02 -0.24149862415E+02  0.29336038476E+02  0.00000000000E+00 0. -1.
         11    1    4    4    0    0 -0.21179948284E+02 -0.22349165991E+02  0.74852034985E+02  0.80937646192E+02  0.00000000000E+00 0.  1.
</event>
<event>
 8    1  0.3654190E-009  0.9813537E+02  0.7561462E-02  0.1284267E+00
         -1   -1    0    0    0  501 -0.00000000000E+00  0.00000000000E+00  0.15489786766E+02  0.15489786766E+02  0.00000000000E+00 0.  1.
          1   -1    0    0  501    0  0.00000000000E+00 -0.00000000000E+00 -0.22340340469E+04  0.22340340469E+04  0.00000000000E+00 0. -1.
         25    2    1    2    0    0 -0.12055831876E+02  0.45203774299E+02 -0.20309307697E+04  0.20353173150E+04  0.12509219444E+03 0.  0.
         23    2    1    2    0    0  0.12055831876E+02 -0.45203774299E+02 -0.18761349039E+03  0.21420651862E+03  0.92178557989E+02 0.  0.
          5    1    3    3  502    0  0.38394661102E+02  0.18676580303E+02 -0.26403995265E+03  0.26750239933E+03  0.41800000000E+01 0.  1.
         -5    1    3    3    0  502 -0.50450492978E+02  0.26527193996E+02 -0.17668908171E+04  0.17678149157E+04  0.41800000000E+01 0.  1.
        -11    1    4    4    0    0 -0.34818684192E+02 -0.64791149371E+01 -0.11031528745E+03  0.11586104757E+03  0.00000000000E+00 0.  1.
         11    1    4    4    0    0  0.46874516068E+02 -0.38724659362E+02 -0.77298202938E+02  0.98345471054E+02  0.00000000000E+00 0. -1.
</event>
<event>
 8    1  0.3654190E-009  0.6635022E+02  0.7561462E-02  0.1372963E+00
          2   -1    0    0  501    0  0.00000000000E+00  0.00000000000E+00  0.10505966828E+03  0.10505966828E+03  0.00000000000E+00 0. -1.
         -2   -1    0    0    0  501 -0.00000000000E+00 -0.00000000000E+00 -0.13175815302E+03  0.13175815302E+03  0.00000000000E+00 0.  1.
         25    2    1    2    0    0  0.15262823097E+02 -0.30369498129E+02  0.17400975182E+02  0.13078866183E+03  0.12509044704E+03 0.  0.
         23    2    1    2    0    0 -0.15262823097E+02  0.30369498129E+02 -0.44099459916E+02  0.10602915947E+03  0.90233918831E+02 0.  0.
          5    1    3    3  502    0  0.24629783419E+02 -0.37208418052E+02  0.66485108018E+02  0.80180013677E+02  0.41800000000E+01 0.  1.
         -5    1    3    3    0  502 -0.93669603226E+01  0.68389199232E+01 -0.49084132835E+02  0.50608648150E+02  0.41800000000E+01 0.  1.
        -11    1    4    4    0    0 -0.38971543572E+02  0.26239034383E+01  0.10416586644E+02  0.40424885342E+02  0.00000000000E+00 0. -1.
         11    1    4    4    0    0  0.23708720475E+02  0.27745594690E+02 -0.54516046561E+02  0.65604274128E+02  0.00000000000E+00 0.  1.
</event>
<event>
 8    1  0.3654190E-009  0.2642996E+03  0.7561462E-02  0.1104587E+00
         -1   -1    0    0    0  501 -0.00000000000E+00  0.00000000000E+00  0.11614055634E+03  0.11614055634E+03  0.00000000000E+00 0.  1.
          1   -1    0    0  501    0  0.00000000000E+00 -0.00000000000E+00 -0.73081181497E+03  0.73081181497E+03  0.00000000000E+00 0. -1.
         25    2    1    2    0    0 -0.17692567761E+03 -0.18377138311E+03 -0.18437491802E+03  0.33869773268E+03  0.12508967616E+03 0.  0.
         23    2    1    2    0    0  0.17692567761E+03  0.18377138311E+03 -0.43029634061E+03  0.50825463862E+03  0.89962327049E+02 0.  0.
          5    1    3    3  502    0 -0.13383331717E+03 -0.18512325974E+03 -0.18708562762E+03  0.29529727825E+03  0.41800000000E+01 0.  1.
         -5    1    3    3    0  502 -0.43092360438E+02  0.13518766291E+01  0.27107095933E+01  0.43400454434E+02  0.41800000000E+01 0.  1.
        -11    1    4    4    0    0  0.13211418388E+03  0.11746632419E+03 -0.36273829670E+03  0.40352393583E+03  0.00000000000E+00 0. -1.
         11    1    4    4    0    0  0.44811493734E+02  0.66305058918E+02 -0.67558043918E+02  0.10473070279E+03  0.00000000000E+00 0.  1.
</event>
<event>
 8    1  0.3654190E-009  0.1050407E+03  0.7561462E-02  0.1270040E+00
          2   -1    0    0  501    0  0.00000000000E+00  0.00000000000E+00  0.31781988131E+03  0.31781988131E+03  0.00000000000E+00 0. -1.
         -2   -1    0    0    0  501 -0.00000000000E+00 -0.00000000000E+00 -0.43469144055E+02  0.43469144055E+02  0.00000000000E+00 0.  1.
         25    2    1    2    0    0  0.20438135791E+02  0.99046500839E+01  0.21135156654E+03  0.24663493014E+03  0.12507391653E+03 0.  0.
         23    2    1    2    0    0 -0.20438135791E+02 -0.99046500839E+01  0.62999170712E+02  0.11465409523E+03  0.93063669355E+02 0.  0.
          5    1    3    3  502    0 -0.45940401653E+02 -0.23209704453E+02  0.70508704872E+02  0.87396571715E+02  0.41800000000E+01 0.  1.
         -5    1    3    3    0  502  0.66378537444E+02  0.33114354537E+02  0.14084286167E+03  0.15923835842E+03  0.41800000000E+01 0.  1.
        -11    1    4    4    0    0  0.28737233008E+02 -0.18563871981E+02 -0.70278426369E-01  0.34211852375E+02  0.00000000000E+00 0.  1.
         11    1    4    4    0    0 -0.49175368798E+02  0.86592218972E+01  0.63069449138E+02  0.80442242851E+02  0.00000000000E+00 0. -1.
</event>
<event>
 8    1  0.3654190E-009  0.9208541E+02  0.7561462E-02  0.1297879E+00
          2   -1    0    0  501    0  0.00000000000E+00  0.00000000000E+00  0.44540948525E+02  0.44540948525E+02  0.00000000000E+00 0.  1.
         -2   -1    0    0    0  501 -0.00000000000E+00 -0.00000000000E+00 -0.35874462413E+03  0.35874462413E+03  0.00000000000E+00 0. -1.
         25    2    1    2    0    0 -0.60377812088E+02  0.11236340912E+02 -0.20971632142E+03  0.25179414238E+03  0.12509044375E+03 0.  0.
         23    2    1    2    0    0  0.60377812088E+02 -0.11236340912E+02 -0.10448735419E+03  0.15149143028E+03  0.90886251506E+02 0.  0.
          5    1    3    3  502    0 -0.40922947740E+02  0.33387011377E+02 -0.21510590489E+03  0.22153420255E+03  0.41800000000E+01 0.  1.
         -5    1    3    3    0  502 -0.19454864349E+02 -0.22150670464E+02  0.53895834665E+01  0.30259939835E+02  0.41800000000E+01 0.  1.
        -11    1    4    4    0    0 -0.24736670447E+01  0.27483117799E+02 -0.58062630195E+02  0.64286155724E+02  0.00000000000E+00 0. -1.
         11    1    4    4    0    0  0.62851479133E+02 -0.38719458711E+02 -0.46424723992E+02  0.87205274553E+02  0.00000000000E+00 0.  1.
</event>
<event>
 8    1  0.3654190E-009  0.9456540E+02  0.7561462E-02  0.1292158E+00
          2   -1    0    0  501    0  0.00000000000E+00  0.00000000000E+00  0.20102298832E+03  0.20102298832E+03  0.00000000000E+00 0. -1.
         -2   -1    0    0    0  501 -0.00000000000E+00 -0.00000000000E+00 -0.94794961351E+02  0.94794961351E+02  0.00000000000E+00 0.  1.
         25    2    1    2    0    0 -0.56979760412E+02  0.53115671128E+02  0.22547981715E+02  0.14907831145E+03  0.12509182167E+03 0.  0.
         23    2    1    2    0    0  0.56979760412E+02 -0.53115671128E+02  0.83680045256E+02  0.14673963822E+03  0.91990237717E+02 0.  0.
          5    1    3    3  502    0 -0.35523388534E+02  0.60540424393E+02  0.68176647054E+02  0.97941726154E+02  0.41800000000E+01 0. -1.
         -5    1    3    3    0  502 -0.21456371877E+02 -0.74247532650E+01 -0.45628665339E+02  0.51136585297E+02  0.41800000000E+01 0. -1.
        -11    1    4    4    0    0  0.21318423999E+02 -0.56028404503E+02  0.92185195175E+02  0.10996257328E+03  0.00000000000E+00 0. -1.
         11    1    4    4    0    0  0.35661336413E+02  0.29127333757E+01 -0.85051499194E+01  0.36777064940E+02  0.00000000000E+00 0.  1.
</event>
<event>
 8    1  0.3654190E-009  0.6912836E+02  0.7561462E-02  0.1363082E+00
         -2   -1    0    0    0  501 -0.00000000000E+00  0.00000000000E+00  0.11326209921E+03  0.11326209921E+03  0.00000000000E+00 0.  1.
          2   -1    0    0  501    0  0.00000000000E+00 -0.00000000000E+00 -0.18707810618E+03  0.18707810618E+03  0.00000000000E+00 0. -1.
         25    2    1    2    0    0 -0.56483695108E+01  0.44425174986E+01 -0.13908174075E+03  0.18719747845E+03  0.12509006870E+03 0.  0.
         23    2    1    2    0    0  0.56483695108E+01 -0.44425174986E+01  0.65265733782E+02  0.11314272694E+03  0.92141307862E+02 0.  0.
          5    1    3    3  502    0 -0.20616626595E+02  0.21362087294E+02 -0.15588028080E+03  0.15873726219E+03  0.41800000000E+01 0. -1.
         -5    1    3    3    0  502  0.14968257084E+02 -0.16919569796E+02  0.16798540040E+02  0.28460216262E+02  0.41800000000E+01 0. -1.
        -11    1    4    4    0    0 -0.80470970839E+00  0.40193705651E+02  0.52778425155E+02  0.66345638090E+02  0.00000000000E+00 0.  1.
         11    1    4    4    0    0  0.64530792192E+01 -0.44636223150E+02  0.12487308626E+02  0.46797088854E+02  0.00000000000E+00 0. -1.
</event>
<event>
 8    1  0.3654190E-009  0.6819582E+02  0.7561462E-02  0.1366338E+00
         -3   -1    0    0    0  501 -0.00000000000E+00  0.00000000000E+00  0.23528488919E+02  0.23528488919E+02  0.00000000000E+00 0. -1.
          3   -1    0    0  501    0  0.00000000000E+00 -0.00000000000E+00 -0.52554627588E+03  0.52554627588E+03  0.00000000000E+00 0.  1.
         25    2    1    2    0    0 -0.40504307504E+01 -0.61144991349E+01 -0.22949481274E+03  0.26147449947E+03  0.12508897518E+03 0.  0.
         23    2    1    2    0    0  0.40504307504E+01  0.61144991349E+01 -0.27252297422E+03  0.28760026532E+03  0.91604301469E+02 0.  0.
          5    1    3    3  502    0 -0.16984628709E+02 -0.22447335769E+02 -0.23717786936E+03  0.23887899575E+03  0.41800000000E+01 0.  1.
         -5    1    3    3    0  502  0.12934197959E+02  0.16332836635E+02  0.76830566235E+01  0.22595503722E+02  0.41800000000E+01 0.  1.
        -11    1    4    4    0    0  0.44650248183E+02  0.10442366486E+02 -0.19096051825E+03  0.19638891825E+03  0.00000000000E+00 0.  1.
         11    1    4    4    0    0 -0.40599817432E+02 -0.43278673514E+01 -0.81562455968E+02  0.91211347073E+02  0.00000000000E+00 0. -1.
</event>
<event>
 8    1  0.3654190E-009  0.1363362E+03  0.7561462E-02  0.1218346E+00
          2   -1    0    0  501    0  0.00000000000E+00  0.00000000000E+00  0.77959563799E+03  0.77959563799E+03  0.00000000000E+00 0. -1.
         -2   -1    0    0    0  501 -0.00000000000E+00 -0.00000000000E+00 -0.32700329374E+02  0.32700329374E+02  0.00000000000E+00 0.  1.
         25    2    1    2    0    0 -0.86665437219E+02 -0.41463940399E+02  0.55558742319E+03  0.57754281461E+03  0.12509261182E+03 0.  0.
         23    2    1    2    0    0  0.86665437219E+02  0.41463940399E+02  0.19130788542E+03  0.23475315276E+03  0.96333687477E+02 0.  0.
          5    1    3    3  502    0 -0.11876736838E+03 -0.39619631562E+02  0.43658014477E+03  0.45419720189E+03  0.41800000000E+01 0. -1.
         -5    1    3    3    0  502  0.32101931157E+02 -0.18443088367E+01  0.11900727842E+03  0.12334561272E+03  0.41800000000E+01 0. -1.
        -11    1    4    4    0    0  0.16457222943E+02 -0.16964395428E+02  0.99549719516E+00  0.23656329257E+02  0.00000000000E+00 0.  1.
         11    1    4    4    0    0  0.70208214276E+02  0.58428335827E+02  0.19031238822E+03  0.21109682350E+03  0.00000000000E+00 0. -1.
</event>
<event>
 8    1  0.3654190E-009  0.9020599E+02  0.7561462E-02  0.1302354E+00
         -3   -1    0    0    0  501 -0.00000000000E+00  0.00000000000E+00  0.17755782031E+03  0.17755782031E+03  0.00000000000E+00 0.  1.
          3   -1    0    0  501    0  0.00000000000E+00 -0.00000000000E+00 -0.83621454806E+02  0.83621454806E+02  0.00000000000E+00 0. -1.
         25    2    1    2    0    0 -0.12821620615E+02  0.46624040172E+02  0.84923221320E+02  0.15872583575E+03  0.12507494689E+03 0.  0.
         23    2    1    2    0    0  0.12821620615E+02 -0.46624040172E+02  0.90131441803E+01  0.10245343936E+03  0.89873663502E+02 0.  0.
          5    1    3    3  502    0  0.47647057352E+02  0.52324607557E+02  0.30903268924E+02  0.77334281276E+02  0.41800000000E+01 0. -1.
         -5    1    3    3    0  502 -0.60468677967E+02 -0.57005673854E+01  0.54019952396E+02  0.81391554479E+02  0.41800000000E+01 0. -1.
        -11    1    4    4    0    0  0.70548862603E+01 -0.16125126809E+02  0.48866015061E+02  0.51939181383E+02  0.00000000000E+00 0.  1.
         11    1    4    4    0    0  0.57667343543E+01 -0.30498913362E+02 -0.39852870881E+02  0.50514257976E+02  0.00000000000E+00 0. -1.
</event>
<event>
 8    1  0.3654190E-009  0.1498356E+03  0.7561462E-02  0.1200675E+00
          1   -1    0    0  501    0  0.00000000000E+00  0.00000000000E+00  0.22737495115E+03  0.22737495115E+03  0.00000000000E+00 0. -1.
         -1   -1    0    0    0  501 -0.00000000000E+00 -0.00000000000E+00 -0.12705790310E+03  0.12705790310E+03  0.00000000000E+00 0.  1.
         25    2    1    2    0    0 -0.10144082022E+03 -0.76256978184E+02  0.97796127588E+02  0.20326541709E+03  0.12508948991E+03 0.  0.
         23    2    1    2    0    0  0.10144082022E+03  0.76256978184E+02  0.25209204595E+01  0.15116743716E+03  0.82096725198E+02 0.  0.
          5    1    3    3  502    0 -0.97909679888E+02 -0.27781150227E+02  0.11303269808E+03  0.15215768452E+03  0.41800000000E+01 0. -1.
         -5    1    3    3    0  502 -0.35311403288E+01 -0.48475827956E+02 -0.15236570492E+02  0.51107732570E+02  0.41800000000E+01 0. -1.
        -11    1    4    4    0    0  0.19040046261E+02  0.62688923773E+02  0.13636124588E+02  0.66920612812E+02  0.00000000000E+00 0.  1.
         11    1    4    4    0    0  0.82400773956E+02  0.13568054411E+02 -0.11115204129E+02  0.84246824343E+02  0.00000000000E+00 0. -1.
</event>
<event>
 8    1  0.3654190E-009  0.1292975E+03  0.7561462E-02  0.1228502E+00
          1   -1    0    0  501    0  0.00000000000E+00  0.00000000000E+00  0.12338906239E+04  0.12338906239E+04  0.00000000000E+00 0. -1.
         -1   -1    0    0    0  501 -0.00000000000E+00 -0.00000000000E+00 -0.14511029421E+02  0.14511029421E+02  0.00000000000E+00 0.  1.
         25    2    1    2    0    0  0.60915126093E+02  0.48139248962E+02  0.74129855024E+03  0.75577852182E+03  0.12509833564E+03 0.  0.
         23    2    1    2    0    0 -0.60915126093E+02 -0.48139248962E+02  0.47808104424E+03  0.49262313151E+03  0.89933447339E+02 0.  0.
          5    1    3    3  502    0 -0.11015593999E+02  0.64784641576E+02  0.46967862013E+03  0.47427193855E+03  0.41800000000E+01 0.  1.
         -5    1    3    3    0  502  0.71930720092E+02 -0.16645392614E+02  0.27161993011E+03  0.28150658327E+03  0.41800000000E+01 0.  1.
        -11    1    4    4    0    0 -0.41545419964E+02 -0.74966498739E+02  0.34818517925E+03  0.35857902463E+03  0.00000000000E+00 0. -1.
         11    1    4    4    0    0 -0.19369706129E+02  0.26827249776E+02  0.12989586500E+03  0.13404410688E+03  0.00000000000E+00 0.  1.
</event>
<event>
 8    1  0.3654190E-009  0.3843113E+03  0.7561462E-02  0.1049352E+00
         -1   -1    0    0    0  501 -0.00000000000E+00  0.00000000000E+00  0.10152514994E+04  0.10152514994E+04  0.00000000000E+00 0.  1.
          1   -1    0    0  501    0  0.00000000000E+00 -0.00000000000E+00 -0.14979444998E+03  0.14979444998E+03  0.00000000000E+00 0. -1.
         25    2    1    2    0    0  0.88761943240E+02  0.36081519650E+03  0.37743223629E+03  0.54421404853E+03  0.12509016361E+03 0.  0.
         23    2    1    2    0    0 -0.88761943240E+02 -0.36081519650E+03  0.48802481312E+03  0.62083190084E+03  0.95904860589E+02 0.  0.
          5    1    3    3  502    0 -0.19683464739E+02  0.10667576586E+03  0.15623189083E+03  0.19024466856E+03  0.41800000000E+01 0.  1.
         -5    1    3    3    0  502  0.10844540798E+03  0.25413943065E+03  0.22120034547E+03  0.35396937997E+03  0.41800000000E+01 0.  1.
        -11    1    4    4    0    0 -0.39163214979E+02 -0.30321961393E+02  0.60588578142E+02  0.78256977654E+02  0.00000000000E+00 0.  1.
         11    1    4    4    0    0 -0.49598728261E+02 -0.33049323511E+03  0.42743623498E+03  0.54257492319E+03  0.00000000000E+00 0. -1.
</event>
<event>
 8    1  0.3654190E-009  0.2487668E+03  0.7561462E-02  0.1114087E+00
          2   -1    0    0  501    0  0.00000000000E+00  0.00000000000E+00  0.16558444884E+04  0.16558444884E+04  0.00000000000E+00 0. -1.
         -2   -1    0    0    0  501 -0.00000000000E+00 -0.00000000000E+00 -0.55740706750E+02  0.55740706750E+02  0.00000000000E+00 0.  1.
         25    2    1    2    0    0  0.46651000101E+02  0.22187862603E+03  0.33720341069E+03  0.42515867877E+03  0.12508925394E+03 0.  0.
         23    2    1    2    0    0 -0.46651000101E+02 -0.22187862603E+03  0.12629003709E+04  0.12864265163E+04  0.92571024498E+02 0.  0.
          5    1    3    3  502    0 -0.40807458536E+02  0.71799001087E+02  0.82283461601E+02  0.11665498567E+03  0.41800000000E+01 0.  1.
         -5    1    3    3    0  502  0.87458458637E+02  0.15007962495E+03  0.25491994909E+03  0.30850369310E+03  0.41800000000E+01 0.  1.
        -11    1    4    4    0    0  0.68996244044E+01 -0.15617120035E+03  0.92118299816E+03  0.93435280528E+03  0.00000000000E+00 0. -1.
         11    1    4    4    0    0 -0.53550624506E+02 -0.65707425679E+02  0.34171737276E+03  0.35207371106E+03  0.00000000000E+00 0.  1.
</event>
<event>
 8    1  0.3654190E-009  0.6938250E+02  0.7561462E-02  0.1362206E+00
          2   -1    0    0  501    0  0.00000000000E+00  0.00000000000E+00  0.36614792596E+03  0.36614792596E+03  0.00000000000E+00 0. -1.
         -2   -1    0    0    0  501 -0.00000000000E+00 -0.00000000000E+00 -0.79059954346E+02  0.79059954346E+02  0.00000000000E+00 0.  1.
         25    2    1    2    0    0 -0.17062164886E+02  0.30071320411E+02  0.31766967352E+03  0.34315686147E+03  0.12508880171E+03 0.  0.
         23    2    1    2    0    0  0.17062164886E+02 -0.30071320411E+02 -0.30581701915E+02  0.10205101884E+03  0.91015208462E+02 0.  0.
          5    1    3    3  502    0  0.10082364521E+02 -0.29943235401E+02  0.18620956781E+02  0.36911567998E+02  0.41800000000E+01 0.  1.
         -5    1    3    3    0  502 -0.27144529407E+02  0.60014555812E+02  0.29904871674E+03  0.30624529347E+03  0.41800000000E+01 0.  1.
        -11    1    4    4    0    0  0.14618269930E+02 -0.46273625145E+01 -0.60666181993E+02  0.62573891818E+02  0.00000000000E+00 0.  1.
         11    1    4    4    0    0  0.24438949565E+01 -0.25443957896E+02  0.30084480078E+02  0.39477127017E+02  0.00000000000E+00 0. -1.
</event>
<event>
 8    1  0.3654190E-009  0.1069520E+03  0.7561462E-02  0.1266321E+00
          1   -1    0    0  501    0  0.00000000000E+00  0.00000000000E+00  0.21960400221E+03  0.21960400221E+03  0.00000000000E+00 0. -1.
         -1   -1    0    0    0  501 -0.00000000000E+00 -0.00000000000E+00 -0.11226832370E+03  0.11226832370E+03  0.00000000000E+00 0.  1.
         25    2    1    2    0    0  0.75490425890E+02  0.44379142714E+02  0.13625675515E+03  0.20464910860E+03  0.12508813540E+03 0.  0.
         23    2    1    2    0    0 -0.75490425890E+02 -0.44379142714E+02 -0.28921076636E+02  0.12722321730E+03  0.87641346624E+02 0.  0.
          5    1    3    3  502    0  0.30964842440E+02  0.68504652007E+02  0.13409703435E+03  0.15378945294E+03  0.41800000000E+01 0.  1.
         -5    1    3    3    0  502  0.44525583450E+02 -0.24125509293E+02  0.21597207984E+01  0.50859655663E+02  0.41800000000E+01 0.  1.
        -11    1    4    4    0    0 -0.37584945821E+02 -0.18437497990E+02 -0.58981671224E+02  0.72328466214E+02  0.00000000000E+00 0.  1.
         11    1    4    4    0    0 -0.37905480069E+02 -0.25941644724E+02  0.30060594587E+02  0.54894751090E+02  0.00000000000E+00 0. -1.
</event>
<event>
 8    1  0.3654190E-009  0.1242289E+03  0.7561462E-02  0.1236279E+00
          1   -1    0    0  501    0  0.00000000000E+00  0.00000000000E+00  0.56366143509E+03  0.56366143509E+03  0.00000000000E+00 0. -1.
         -1   -1    0    0    0  501 -0.00000000000E+00 -0.00000000000E+00 -0.31610587710E+02  0.31610587710E+02  0.00000000000E+00 0.  1.
         25    2    1    2    0    0  0.31332337379E+02  0.66516291659E+02  0.23694792748E+03  0.27784655391E+03  0.12509298445E+03 0.  0.
         23    2    1    2    0    0 -0.31332337379E+02 -0.66516291659E+02  0.29510291990E+03  0.31742546889E+03  0.90923388341E+02 0.  0.
          5    1    3    3  502    0  0.73496914142E+02  0.65214439721E+02  0.13159308757E+03  0.16428308688E+03  0.41800000000E+01 0. -1.
         -5    1    3    3    0  502 -0.42164576763E+02  0.13018519384E+01  0.10535483991E+03  0.11356346703E+03  0.41800000000E+01 0. -1.
        -11    1    4    4    0    0  0.18468824333E+02 -0.52986425196E+02  0.21449415486E+03  0.22171242905E+03  0.00000000000E+00 0. -1.
         11    1    4    4    0    0 -0.49801161712E+02 -0.13529866464E+02  0.80608765037E+02  0.95713039839E+02  0.00000000000E+00 0.  1.
</event>
<event>
 8    1  0.3654190E-009  0.1904341E+03  0.7561462E-02  0.1158070E+00
          1   -1    0    0  501    0  0.00000000000E+00  0.00000000000E+00  0.17808210700E+03  0.17808210700E+03  0.00000000000E+00 0.  1.
         -1   -1    0    0    0  501 -0.00000000000E+00 -0.00000000000E+00 -0.26156104583E+03  0.26156104583E+03  0.00000000000E+00 0. -1.
         25    2    1    2    0    0  0.15325739479E+03  0.10387495032E+03 -0.20531112747E+02  0.22438181511E+03  0.12509131865E+03 0.  0.
         23    2    1    2    0    0 -0.15325739479E+03 -0.10387495032E+03 -0.62947826082E+02  0.21526133772E+03  0.89984333886E+02 0.  0.
          5    1    3    3  502    0  0.46912457170E+02  0.18035321317E+02 -0.63470129781E+02  0.81067757014E+02  0.41800000000E+01 0. -1.
         -5    1    3    3    0  502  0.10634493762E+03  0.85839629006E+02  0.42939017034E+02  0.14331405810E+03  0.41800000000E+01 0. -1.
        -11    1    4    4    0    0 -0.15228176725E+03 -0.84208335830E+02 -0.77783667777E+02  0.19060713374E+03  0.00000000000E+00 0. -1.
         11    1    4    4    0    0 -0.97562753439E+00 -0.19666614493E+02  0.14835841695E+02  0.24654203972E+02  0.00000000000E+00 0.  1.
</event>
<event>
 8    1  0.3654190E-009  0.6913867E+02  0.7561462E-02  0.1363047E+00
         -2   -1    0    0    0  501 -0.00000000000E+00  0.00000000000E+00  0.19280498719E+02  0.19280498719E+02  0.00000000000E+00 0.  1.
          2   -1    0    0  501    0  0.00000000000E+00 -0.00000000000E+00 -0.67490490273E+03  0.67490490273E+03  0.00000000000E+00 0. -1.
         25    2    1    2    0    0 -0.15098182767E+02  0.28968730139E+02 -0.39785082096E+03  0.41833142660E+03  0.12509502105E+03 0.  0.
         23    2    1    2    0    0  0.15098182767E+02 -0.28968730139E+02 -0.25777358305E+03  0.27585397485E+03  0.92633972564E+02 0.  0.
          5    1    3    3  502    0  0.86020042286E+01 -0.77447644477E+01 -0.36045290720E+03  0.36066292651E+03  0.41800000000E+01 0. -1.
         -5    1    3    3    0  502 -0.23700186996E+02  0.36713494587E+02 -0.37397913764E+02  0.57668500087E+02  0.41800000000E+01 0. -1.
        -11    1    4    4    0    0  0.43264185957E+02 -0.31902086546E+02 -0.22996724289E+03  0.23616618241E+03  0.00000000000E+00 0. -1.
         11    1    4    4    0    0 -0.28166003189E+02  0.29333564071E+01 -0.27806340160E+02  0.39687792438E+02  0.00000000000E+00 0.  1.
</event>
<event>
 8    1  0.3654190E-009  0.6734398E+02  0.7561462E-02  0.1369365E+00
         -2   -1    0    0    0  501 -0.00000000000E+00  0.00000000000E+00  0.38368474127E+03  0.38368474127E+03  0.00000000000E+00 0.  1.
          2   -1    0    0  501    0  0.00000000000E+00 -0.00000000000E+00 -0.40101596873E+02  0.40101596873E+02  0.00000000000E+00 0. -1.
         25    2    1    2    0    0 -0.10960804749E+02 -0.55525991187E+02  0.22480441719E+03  0.26341505916E+03  0.12508873836E+03 0.  0.
         23    2    1    2    0    0  0.10960804749E+02  0.55525991187E+02  0.11877872720E+03  0.16037127898E+03  0.91691254484E+02 0.  0.
          5    1    3    3  502    0 -0.31539887572E+02 -0.22572263888E+02  0.22070369558E+03  0.22412466453E+03  0.41800000000E+01 0. -1.
         -5    1    3    3    0  502  0.20579082823E+02 -0.32953727299E+02  0.41007216115E+01  0.39290394633E+02  0.41800000000E+01 0. -1.
        -11    1    4    4    0    0  0.59727523350E+01  0.28290257005E+02 -0.84826946762E+01  0.30132516006E+02  0.00000000000E+00 0. -1.
         11    1    4    4    0    0  0.49880524143E+01  0.27235734181E+02  0.12726142188E+03  0.13023876298E+03  0.00000000000E+00 0.  1.
</event>
<event>
 8    1  0.3654190E-009  0.1058641E+03  0.7561462E-02  0.1268427E+00
         -2   -1    0    0    0  501 -0.00000000000E+00  0.00000000000E+00  0.43904374951E+02  0.43904374951E+02  0.00000000000E+00 0.  1.
          2   -1    0    0  501    0  0.00000000000E+00 -0.00000000000E+00 -0.35041366512E+03  0.35041366512E+03  0.00000000000E+00 0. -1.
         25    2    1    2    0    0 -0.52583247803E+02 -0.38117565588E+02 -0.15267950921E+03  0.20777903616E+03  0.12507257326E+03 0.  0.
         23    2    1    2    0    0  0.52583247803E+02  0.38117565588E+02 -0.15382978096E+03  0.18653900390E+03  0.83157992471E+02 0.  0.
          5    1    3    3  502    0 -0.57433564421E+02 -0.78700724374E+02 -0.89182004522E+02  0.13214885800E+03  0.41800000000E+01 0.  1.
         -5    1    3    3    0  502  0.48503166187E+01  0.40583158785E+02 -0.63497504688E+02  0.75630178169E+02  0.41800000000E+01 0.  1.
        -11    1    4    4    0    0  0.31352792469E+02  0.41091396536E+02 -0.15661278958E+03  0.16492139439E+03  0.00000000000E+00 0. -1.
         11    1    4    4    0    0  0.21230455334E+02 -0.29738309478E+01  0.27830086277E+01  0.21617609516E+02  0.00000000000E+00 0.  1.
</event>
<event>
 8    1  0.3654190E-009  0.1091982E+03  0.7561462E-02  0.1262062E+00
          2   -1    0    0  501    0  0.00000000000E+00  0.00000000000E+00  0.27738160968E+03  0.27738160968E+03  0.00000000000E+00 0. -1.
         -2   -1    0    0    0  501 -0.00000000000E+00 -0.00000000000E+00 -0.57079937221E+02  0.57079937221E+02  0.00000000000E+00 0.  1.
         25    2    1    2    0    0 -0.29867996906E+02 -0.19974116400E+01  0.19784090528E+03  0.23597668734E+03  0.12509151161E+03 0.  0.
         23    2    1    2    0    0  0.29867996906E+02  0.19974116400E+01  0.22460767183E+02  0.98484859559E+02  0.91097171238E+02 0.  0.
          5    1    3    3  502    0 -0.72733772446E+02  0.25335385369E+02  0.12890691397E+03  0.15022166380E+03  0.41800000000E+01 0. -1.
         -5    1    3    3    0  502  0.42865775540E+02 -0.27332797009E+02  0.68933991314E+02  0.85755023546E+02  0.41800000000E+01 0. -1.
        -11    1    4    4    0    0 -0.66649973345E+01 -0.36544912769E+02  0.25873248779E+02  0.45270054574E+02  0.00000000000E+00 0. -1.
         11    1    4    4    0    0  0.36532994241E+02  0.38542324409E+02 -0.34124815961E+01  0.53214804986E+02  0.00000000000E+00 0.  1.
</event>
<event>
 8    1  0.3654190E-009  0.1150225E+03  0.7561462E-02  0.1251542E+00
         -2   -1    0    0    0  501 -0.00000000000E+00  0.00000000000E+00  0.21180798828E+03  0.21180798828E+03  0.00000000000E+00 0.  1.
          2   -1    0    0  501    0  0.00000000000E+00 -0.00000000000E+00 -0.70700403003E+02  0.70700403003E+02  0.00000000000E+00 0. -1.
         25    2    1    2    0    0  0.44846388036E+02  0.30249505355E+02  0.46545568406E+02  0.14401535711E+03  0.12509077524E+03 0.  0.
         23    2    1    2    0    0 -0.44846388036E+02 -0.30249505355E+02  0.94562016873E+02  0.13849303418E+03  0.85510902147E+02 0.  0.
          5    1    3    3  502    0  0.15671206725E+01 -0.43960486726E+02 -0.38075037320E+01  0.44350307158E+02  0.41800000000E+01 0. -1.
         -5    1    3    3    0  502  0.43279267363E+02  0.74209992080E+02  0.50353072138E+02  0.99665049951E+02  0.41800000000E+01 0. -1.
        -11    1    4    4    0    0 -0.67552711949E+02 -0.79423496874E+01  0.74441362088E+02  0.10083633373E+03  0.00000000000E+00 0. -1.
         11    1    4    4    0    0  0.22706323913E+02 -0.22307155667E+02  0.20120654785E+02  0.37656700448E+02  0.00000000000E+00 0.  1.
</event>
<event>
 8    1  0.3654190E-009  0.1213941E+03  0.7561462E-02  0.1240815E+00
          2   -1    0    0  501    0  0.00000000000E+00  0.00000000000E+00  0.79378795040E+03  0.79378795040E+03  0.00000000000E+00 0. -1.
         -2   -1    0    0    0  501 -0.00000000000E+00 -0.00000000000E+00 -0.38834874199E+02  0.38834874199E+02  0.00000000000E+00 0.  1.
         25    2    1    2    0    0  0.21719320270E+02 -0.10483082348E+03  0.58477083652E+03  0.60750726455E+03  0.12508762851E+03 0.  0.
         23    2    1    2    0    0 -0.21719320270E+02  0.10483082348E+03  0.17018223968E+03  0.22511556005E+03  0.10126100065E+03 0.  0.
          5    1    3    3  502    0 -0.15240513014E+02  0.74290972874E+01  0.28078659599E+03  0.28132907708E+03  0.41800000000E+01 0. -1.
         -5    1    3    3    0  502  0.36959833284E+02 -0.11225992076E+03  0.30398424053E+03  0.32617818746E+03  0.41800000000E+01 0. -1.
        -11    1    4    4    0    0 -0.50093678470E+01  0.21723319485E+02 -0.11165301511E+02  0.24933117204E+02  0.00000000000E+00 0.  1.
         11    1    4    4    0    0 -0.16709952423E+02  0.83107503990E+02  0.18134754119E+03  0.20018244285E+03  0.00000000000E+00 0. -1.
</event>
<event>
 8    1  0.3654190E-009  0.1005541E+03  0.7561462E-02  0.1279135E+00
         -2   -1    0    0    0  501 -0.00000000000E+00  0.00000000000E+00  0.28251665960E+02  0.28251665960E+02  0.00000000000E+00 0.  1.
          2   -1    0    0  501    0  0.00000000000E+00 -0.00000000000E+00 -0.47602005099E+03  0.47602005099E+03  0.00000000000E+00 0. -1.
         25    2    1    2    0    0  0.20597857228E+02 -0.18635180695E+02 -0.18870650415E+03  0.22809848314E+03  0.12508889487E+03 0.  0.
         23    2    1    2    0    0 -0.20597857228E+02  0.18635180695E+02 -0.25906188088E+03  0.27617323381E+03  0.91580867355E+02 0.  0.
          5    1    3    3  502    0 -0.12000246387E+02 -0.66981715687E+02 -0.11877410279E+03  0.13695004944E+03  0.41800000000E+01 0. -1.
         -5    1    3    3    0  502  0.32598103615E+02  0.48346534992E+02 -0.69932401365E+02  0.91148433698E+02  0.41800000000E+01 0. -1.
        -11    1    4    4    0    0 -0.36829913928E+02  0.35437301179E+02 -0.24175565043E+03  0.24709925008E+03  0.00000000000E+00 0. -1.
         11    1    4    4    0    0  0.16232056700E+02 -0.16802120484E+02 -0.17306230447E+02  0.29073983727E+02  0.00000000000E+00 0.  1.
</event>
<event>
 8    1  0.3654190E-009  0.7736863E+02  0.7561462E-02  0.1336689E+00
         -2   -1    0    0    0  501 -0.00000000000E+00  0.00000000000E+00  0.20967182452E+02  0.20967182452E+02  0.00000000000E+00 0.  1.
          2   -1    0    0  501    0  0.00000000000E+00 -0.00000000000E+00 -0.65134902198E+03  0.65134902198E+03  0.00000000000E+00 0. -1.
         25    2    1    2    0    0  0.89020527309E+01 -0.11773160092E+02 -0.47026905176E+03  0.48684878717E+03  0.12510358380E+03 0.  0.
         23    2    1    2    0    0 -0.89020527309E+01  0.11773160092E+02 -0.16011278777E+03  0.18546741727E+03  0.92434864740E+02 0.  0.
          5    1    3    3  502    0 -0.39869321989E+02 -0.40116523846E+01 -0.39294226234E+03  0.39500221534E+03  0.41800000000E+01 0.  1.
         -5    1    3    3    0  502  0.48771374720E+02 -0.77615077069E+01 -0.77326789423E+02  0.91846571827E+02  0.41800000000E+01 0.  1.
        -11    1    4    4    0    0  0.26473388138E+02  0.12995247274E+02 -0.14325952979E+03  0.14626349376E+03  0.00000000000E+00 0. -1.
         11    1    4    4    0    0 -0.35375440869E+02 -0.12220871827E+01 -0.16853257975E+02  0.39203923504E+02  0.00000000000E+00 0.  1.
</event>
<event>
 8    1  0.3654190E-009  0.2675303E+03  0.7561462E-02  0.1102701E+00
          1   -1    0    0  501    0  0.00000000000E+00  0.00000000000E+00  0.29004221949E+03  0.29004221949E+03  0.00000000000E+00 0. -1.
         -1   -1    0    0    0  501 -0.00000000000E+00 -0.00000000000E+00 -0.42282354201E+03  0.42282354201E+03  0.00000000000E+00 0.  1.
         25    2    1    2    0    0  0.25261441621E+03  0.25936575633E+02  0.15140444495E+03  0.32102642737E+03  0.12509161397E+03 0.  0.
         23    2    1    2    0    0 -0.25261441621E+03 -0.25936575633E+02 -0.28418576747E+03  0.39183933413E+03  0.91048141681E+02 0.  0.
          5    1    3    3  502    0  0.11621785491E+03 -0.42366779303E+02  0.33613630176E+02  0.12825319615E+03  0.41800000000E+01 0. -1.
         -5    1    3    3    0  502  0.13639656130E+03  0.68303354937E+02  0.11779081478E+03  0.19277323123E+03  0.41800000000E+01 0. -1.
        -11    1    4    4    0    0 -0.86581466923E+02 -0.32620980946E+02 -0.15836017559E+03  0.18340780797E+03  0.00000000000E+00 0.  1.
         11    1    4    4    0    0 -0.16603294929E+03  0.66844053128E+01 -0.12582559189E+03  0.20843152616E+03  0.00000000000E+00 0. -1.
</event>
<event>
 8    1  0.3654190E-009  0.1127205E+03  0.7561462E-02  0.1255613E+00
          1   -1    0    0  501    0  0.00000000000E+00  0.00000000000E+00  0.56190399690E+03  0.56190399690E+03  0.00000000000E+00 0. -1.
         -1   -1    0    0    0  501 -0.00000000000E+00 -0.00000000000E+00 -0.43227360864E+02  0.43227360864E+02  0.00000000000E+00 0.  1.
         25    2    1    2    0    0  0.60123533501E+02 -0.66132513097E+02  0.14945834814E+03  0.21441502307E+03  0.12509059004E+03 0.  0.
         23    2    1    2    0    0 -0.60123533501E+02  0.66132513097E+02  0.36921828790E+03  0.39071633470E+03  0.91371557483E+02 0.  0.
          5    1    3    3  502    0 -0.28968346813E+02 -0.19248976017E+02  0.10671443950E+01  0.35047102475E+02  0.41800000000E+01 0.  1.
         -5    1    3    3    0  502  0.89091880313E+02 -0.46883537080E+02  0.14839120375E+03  0.17936792059E+03  0.41800000000E+01 0.  1.
        -11    1    4    4    0    0 -0.41110991591E+02  0.49861174824E+02  0.35712108319E+03  0.36292109121E+03  0.00000000000E+00 0. -1.
         11    1    4    4    0    0 -0.19012541910E+02  0.16271338273E+02  0.12097204701E+02  0.27795243490E+02  0.00000000000E+00 0.  1.
</event>
<event>
 8    1  0.3654190E-009  0.1272448E+03  0.7561462E-02  0.1231602E+00
         -4   -1    0    0    0  501 -0.00000000000E+00  0.00000000000E+00  0.64163731889E+02  0.64163731889E+02  0.00000000000E+00 0.  1.
          4   -1    0    0  501    0  0.00000000000E+00 -0.00000000000E+00 -0.28533964298E+03  0.28533964298E+03  0.00000000000E+00 0. -1.
         25    2    1    2    0    0 -0.98381738210E+01  0.76036520933E+02 -0.15047936194E+03  0.21016837929E+03  0.12509343349E+03 0.  0.
         23    2    1    2    0    0  0.98381738210E+01 -0.76036520933E+02 -0.70696549156E+02  0.13933499558E+03  0.92400739999E+02 0.  0.
          5    1    3    3  502    0  0.16668131014E+02 -0.27246935873E+02 -0.99512067170E+01  0.33715293579E+02  0.41800000000E+01 0. -1.
         -5    1    3    3    0  502 -0.26506304835E+02  0.10328345681E+03 -0.14052815522E+03  0.17645308571E+03  0.41800000000E+01 0. -1.
        -11    1    4    4    0    0  0.38913911730E+02 -0.55393503589E+01 -0.68932268627E+01  0.39906058501E+02  0.00000000000E+00 0.  1.
         11    1    4    4    0    0 -0.29075737909E+02 -0.70497170574E+02 -0.63803322293E+02  0.99428937084E+02  0.00000000000E+00 0. -1.
</event>
<event>
 8    1  0.3654190E-009  0.1870146E+03  0.7561462E-02  0.1161182E+00
          2   -1    0    0  501    0  0.00000000000E+00  0.00000000000E+00  0.11100242339E+04  0.11100242339E+04  0.00000000000E+00 0. -1.
         -2   -1    0    0    0  501 -0.00000000000E+00 -0.00000000000E+00 -0.38631854777E+02  0.38631854777E+02  0.00000000000E+00 0.  1.
         25    2    1    2    0    0 -0.48616502932E+02 -0.16159386311E+03  0.70177663019E+03  0.73254047530E+03  0.12509583652E+03 0.  0.
         23    2    1    2    0    0  0.48616502932E+02  0.16159386311E+03  0.36961574894E+03  0.41611561339E+03  0.89778955714E+02 0.  0.
          5    1    3    3  502    0  0.31151210396E+02 -0.36782769873E+02  0.30854263138E+03  0.31231298059E+03  0.41800000000E+01 0.  1.
         -5    1    3    3    0  502 -0.79767713328E+02 -0.12481109324E+03  0.39323399881E+03  0.42022749471E+03  0.41800000000E+01 0.  1.
        -11    1    4    4    0    0  0.35684945934E+02  0.34238484759E+02  0.43824961956E+02  0.66078109048E+02  0.00000000000E+00 0.  1.
         11    1    4    4    0    0  0.12931556998E+02  0.12735537835E+03  0.32579078699E+03  0.35003750434E+03  0.00000000000E+00 0. -1.
</event>
<event>
 8    1  0.3654190E-009  0.9115354E+02  0.7561462E-02  0.1300082E+00
         -1   -1    0    0    0  501 -0.00000000000E+00  0.00000000000E+00  0.45339351284E+02  0.45339351284E+02  0.00000000000E+00 0.  1.
          1   -1    0    0  501    0  0.00000000000E+00 -0.00000000000E+00 -0.28282307930E+03  0.28282307930E+03  0.00000000000E+00 0. -1.
         25    2    1    2    0    0  0.21397304831E+02 -0.23247539935E+02 -0.13945537537E+03  0.18998330652E+03  0.12509021652E+03 0.  0.
         23    2    1    2    0    0 -0.21397304831E+02  0.23247539935E+02 -0.98028352646E+02  0.13817912406E+03  0.92117423096E+02 0.  0.
          5    1    3    3  502    0  0.47000762391E+02  0.53868200846E+01 -0.14347980791E+03  0.15113575743E+03  0.41800000000E+01 0. -1.
         -5    1    3    3    0  502 -0.25603457560E+02 -0.28634360020E+02  0.40244325426E+01  0.38847549087E+02  0.41800000000E+01 0. -1.
        -11    1    4    4    0    0 -0.33479389606E+02  0.53774511247E+02 -0.74489824795E+02  0.97781908277E+02  0.00000000000E+00 0. -1.
         11    1    4    4    0    0  0.12082084775E+02 -0.30526971312E+02 -0.23538527851E+02  0.40397215788E+02  0.00000000000E+00 0.  1.
</event>
<event>
 8    1  0.3654190E-009  0.1064025E+03  0.7561462E-02  0.1267381E+00
          2   -1    0    0  501    0  0.00000000000E+00  0.00000000000E+00  0.11490430578E+03  0.11490430578E+03  0.00000000000E+00 0. -1.
         -2   -1    0    0    0  501 -0.00000000000E+00 -0.00000000000E+00 -0.19330420989E+03  0.19330420989E+03  0.00000000000E+00 0.  1.
         25    2    1    2    0    0 -0.27181693547E+02 -0.83050209062E+02 -0.99295263741E+02  0.18205154406E+03  0.12508810337E+03 0.  0.
         23    2    1    2    0    0  0.27181693547E+02  0.83050209062E+02  0.20895359629E+02  0.12615697162E+03  0.88559492681E+02 0.  0.
          5    1    3    3  502    0  0.78633121724E+01 -0.55349993796E+02 -0.12014261733E+03  0.13257893645E+03  0.41800000000E+01 0. -1.
         -5    1    3    3    0  502 -0.35045005719E+02 -0.27700215266E+02  0.20847353593E+02  0.49472607607E+02  0.41800000000E+01 0. -1.
        -11    1    4    4    0    0  0.50416324833E+02  0.66025173727E+02 -0.10285832788E+02  0.83707393529E+02  0.00000000000E+00 0.  1.
         11    1    4    4    0    0 -0.23234631286E+02  0.17025035336E+02  0.31181192417E+02  0.42449578087E+02  0.00000000000E+00 0. -1.
</event>
<event>
 8    1  0.3654190E-009  0.9632100E+02  0.7561462E-02  0.1288228E+00
          2   -1    0    0  501    0  0.00000000000E+00  0.00000000000E+00  0.19011842973E+03  0.19011842973E+03  0.00000000000E+00 0. -1.
         -2   -1    0    0    0  501 -0.00000000000E+00 -0.00000000000E+00 -0.72965048164E+02  0.72965048164E+02  0.00000000000E+00 0.  1.
         25    2    1    2    0    0  0.37704669348E+02  0.29842555785E+02  0.61105220731E+02  0.14728524041E+03  0.12508746466E+03 0.  0.
         23    2    1    2    0    0 -0.37704669348E+02 -0.29842555785E+02  0.56048160832E+02  0.11579823748E+03  0.89194255674E+02 0.  0.
          5    1    3    3  502    0  0.29159431360E+02  0.70704052627E+02  0.43656205324E+01  0.76719401312E+02  0.41800000000E+01 0. -1.
         -5    1    3    3    0  502  0.85452379886E+01 -0.40861496842E+02  0.56739600199E+02  0.70565839095E+02  0.41800000000E+01 0. -1.
        -11    1    4    4    0    0  0.13299562004E+02  0.27273513935E+01 -0.16471508183E+02  0.21345429884E+02  0.00000000000E+00 0.  1.
         11    1    4    4    0    0 -0.51004231352E+02 -0.32569907179E+02  0.72519669015E+02  0.94452807600E+02  0.00000000000E+00 0. -1.
</event>
<event>
 8    1  0.3654190E-009  0.9441102E+02  0.7561462E-02  0.1292508E+00
         -2   -1    0    0    0  501 -0.00000000000E+00  0.00000000000E+00  0.56907111948E+02  0.56907111948E+02  0.00000000000E+00 0.  1.
          2   -1    0    0  501    0  0.00000000000E+00 -0.00000000000E+00 -0.22583108801E+03  0.22583108801E+03  0.00000000000E+00 0. -1.
         25    2    1    2    0    0  0.35279848747E+02 -0.76268891378E+01 -0.11553266660E+03  0.17406395575E+03  0.12509047315E+03 0.  0.
         23    2    1    2    0    0 -0.35279848747E+02  0.76268891378E+01 -0.53391309460E+02  0.10867424421E+03  0.87502127189E+02 0.  0.
          5    1    3    3  502    0 -0.68416834428E+01 -0.45296142571E+02 -0.10737938085E+03  0.11681760568E+03  0.41800000000E+01 0. -1.
         -5    1    3    3    0  502  0.42121532190E+02  0.37669253434E+02 -0.81532857519E+01  0.57246350074E+02  0.41800000000E+01 0. -1.
        -11    1    4    4    0    0  0.25107432596E+02 -0.11684690802E+01  0.33369031023E+01  0.25355145708E+02  0.00000000000E+00 0. -1.
         11    1    4    4    0    0 -0.60387281343E+02  0.87953582180E+01 -0.56728212563E+02  0.83319098500E+02  0.00000000000E+00 0.  1.
</event>
<event>
 8    1  0.3654190E-009  0.1143563E+03  0.7561462E-02  0.1252709E+00
          2   -1    0    0  501    0  0.00000000000E+00  0.00000000000E+00  0.31335206575E+02  0.31335206575E+02  0.00000000000E+00 0. -1.
         -2   -1    0    0    0  501 -0.00000000000E+00 -0.00000000000E+00 -0.43608015881E+03  0.43608015881E+03  0.00000000000E+00 0.  1.
         25    2    1    2    0    0 -0.29731879287E+02  0.27357758579E+02 -0.18511968395E+03  0.22704644255E+03  0.12509339745E+03 0.  0.
         23    2    1    2    0    0  0.29731879287E+02 -0.27357758579E+02 -0.21962526828E+03  0.24036892284E+03  0.88935532821E+02 0.  0.
          5    1    3    3  502    0 -0.23813509341E+02  0.77081780055E+02 -0.10514408268E+03  0.13259500204E+03  0.41800000000E+01 0. -1.
         -5    1    3    3    0  502 -0.59183699467E+01 -0.49724021476E+02 -0.79975601275E+02  0.94451440507E+02  0.41800000000E+01 0. -1.
        -11    1    4    4    0    0 -0.28037264307E+02 -0.28389283334E+02 -0.88615147716E+02  0.97183764090E+02  0.00000000000E+00 0. -1.
         11    1    4    4    0    0  0.57769143595E+02  0.10315247549E+01 -0.13101012057E+03  0.14318515875E+03  0.00000000000E+00 0.  1.
</event>
<event>
 8    1  0.3654190E-009  0.3632290E+03  0.7561462E-02  0.1057313E+00
         -2   -1    0    0    0  501 -0.00000000000E+00  0.00000000000E+00  0.85695796493E+02  0.85695796493E+02  0.00000000000E+00 0.  1.
          2   -1    0    0  501    0  0.00000000000E+00 -0.00000000000E+00 -0.16564027788E+04  0.16564027788E+04  0.00000000000E+00 0. -1.
         25    2    1    2    0    0 -0.31796229346E+03 -0.16311257104E+03 -0.89963835964E+03  0.97606427863E+03  0.12508623818E+03 0.  0.
         23    2    1    2    0    0  0.31796229346E+03  0.16311257104E+03 -0.67106862265E+03  0.76603429665E+03  0.93646764206E+02 0.  0.
          5    1    3    3  502    0 -0.22376696084E+03 -0.67950423015E+02 -0.67660285169E+03  0.71588951945E+03  0.41800000000E+01 0. -1.
         -5    1    3    3    0  502 -0.94195332622E+02 -0.95162148020E+02 -0.22303550796E+03  0.26017475918E+03  0.41800000000E+01 0. -1.
        -11    1    4    4    0    0  0.18178794482E+03  0.76585316242E+02 -0.45880801362E+03  0.49941662057E+03  0.00000000000E+00 0.  1.
         11    1    4    4    0    0  0.13617434864E+03  0.86527254794E+02 -0.21226060903E+03  0.26661767608E+03  0.00000000000E+00 0. -1.
</event>
<event>
 8    1  0.3654190E-009  0.8096711E+02  0.7561462E-02  0.1326329E+00
         -4   -1    0    0    0  501 -0.00000000000E+00  0.00000000000E+00  0.17032834895E+03  0.17032834895E+03  0.00000000000E+00 0. -1.
          4   -1    0    0  501    0  0.00000000000E+00 -0.00000000000E+00 -0.75791432199E+02  0.75791432199E+02  0.00000000000E+00 0.  1.
         25    2    1    2    0    0  0.13051048997E+02 -0.35034199801E+01  0.87655436024E+02  0.15334259785E+03  0.12509145861E+03 0.  0.
         23    2    1    2    0    0 -0.13051048997E+02  0.35034199801E+01  0.68814807265E+01  0.92777183303E+02  0.91529487779E+02 0.  0.
          5    1    3    3  502    0 -0.29476715225E+02  0.31654766974E+02  0.87844547828E+02  0.98005295754E+02  0.41800000000E+01 0. -1.
         -5    1    3    3    0  502  0.42527764222E+02 -0.35158186954E+02 -0.18911180438E+00  0.55337302093E+02  0.41800000000E+01 0. -1.
        -11    1    4    4    0    0 -0.32056174860E+02 -0.16070913120E+02  0.37419127133E+02  0.51827248341E+02  0.00000000000E+00 0. -1.
         11    1    4    4    0    0  0.19005125863E+02  0.19574333100E+02 -0.30537646406E+02  0.40949934962E+02  0.00000000000E+00 0.  1.
</event>
<event>
 8    1  0.3654190E-009  0.1144941E+03  0.7561462E-02  0.1252467E+00
          4   -1    0    0  501    0  0.00000000000E+00  0.00000000000E+00  0.20351995858E+02  0.20351995858E+02  0.00000000000E+00 0.  1.
         -4   -1    0    0    0  501 -0.00000000000E+00 -0.00000000000E+00 -0.77041074858E+03  0.77041074858E+03  0.00000000000E+00 0. -1.
         25    2    1    2    0    0  0.14761074747E+02  0.55264901015E+02 -0.33238386787E+03  0.35971935071E+03  0.12508747756E+03 0.  0.
         23    2    1    2    0    0 -0.14761074747E+02 -0.55264901015E+02 -0.41767488485E+03  0.43104339373E+03  0.89855435180E+02 0.  0.
          5    1    3    3  502    0 -0.27413296925E+02  0.78622166995E+02 -0.25659697315E+03  0.26980069129E+03  0.41800000000E+01 0. -1.
         -5    1    3    3    0  502  0.42174371671E+02 -0.23357265979E+02 -0.75786894715E+02  0.89918659412E+02  0.41800000000E+01 0. -1.
        -11    1    4    4    0    0 -0.45865727625E+02 -0.45551019518E+02 -0.35015137564E+03  0.35606817635E+03  0.00000000000E+00 0. -1.
         11    1    4    4    0    0  0.31104652879E+02 -0.97138814972E+01 -0.67523509214E+02  0.74975217379E+02  0.00000000000E+00 0.  1.
</event>
<event>
 8    1  0.3654190E-009  0.1183105E+03  0.7561462E-02  0.1245910E+00
         -1   -1    0    0    0  501 -0.00000000000E+00  0.00000000000E+00  0.20806753246E+02  0.20806753246E+02  0.00000000000E+00 0.  1.
          1   -1    0    0  501    0  0.00000000000E+00 -0.00000000000E+00 -0.10577551697E+04  0.10577551697E+04  0.00000000000E+00 0. -1.
         25    2    1    2    0    0 -0.17886748709E+02 -0.62713881912E+02 -0.84741630335E+03  0.85907808768E+03  0.12509117788E+03 0.  0.
         23    2    1    2    0    0  0.17886748709E+02  0.62713881912E+02 -0.18953211306E+03  0.21948383522E+03  0.89430225759E+02 0.  0.
          5    1    3    3  502    0  0.52795544086E+02 -0.22217521405E+02 -0.28005516519E+03  0.28588346521E+03  0.41800000000E+01 0. -1.
         -5    1    3    3    0  502 -0.70682292796E+02 -0.40496360507E+02 -0.56736113816E+03  0.57319462247E+03  0.41800000000E+01 0. -1.
        -11    1    4    4    0    0  0.44529841366E+02  0.53089797776E+02 -0.17374710167E+03  0.18705477470E+03  0.00000000000E+00 0. -1.
         11    1    4    4    0    0 -0.26643092656E+02  0.96240841364E+01 -0.15785011392E+02  0.32429060523E+02  0.00000000000E+00 0.  1.
</event>
<event>
 8    1  0.3654190E-009  0.1305937E+03  0.7561462E-02  0.1226577E+00
          2   -1    0    0  501    0  0.00000000000E+00  0.00000000000E+00  0.56650985444E+03  0.56650985444E+03  0.00000000000E+00 0. -1.
         -2   -1    0    0    0  501 -0.00000000000E+00 -0.00000000000E+00 -0.36409123583E+02  0.36409123583E+02  0.00000000000E+00 0.  1.
         25    2    1    2    0    0  0.90107261198E+02  0.15521105045E+02  0.24244656464E+03  0.28772959527E+03  0.12509100714E+03 0.  0.
         23    2    1    2    0    0 -0.90107261198E+02 -0.15521105045E+02  0.28765416621E+03  0.31518938275E+03  0.90770063541E+02 0.  0.
          5    1    3    3  502    0  0.22114517797E+01 -0.43059055462E+02  0.38231724842E+02  0.57776378916E+02  0.41800000000E+01 0. -1.
         -5    1    3    3    0  502  0.87895809418E+02  0.58580160507E+02  0.20421483980E+03  0.22995321635E+03  0.41800000000E+01 0. -1.
        -11    1    4    4    0    0 -0.26653131683E+02 -0.36616509830E+02  0.19931437814E+03  0.20439515540E+03  0.00000000000E+00 0. -1.
         11    1    4    4    0    0 -0.63454129515E+02  0.21095404785E+02  0.88339788079E+02  0.11079422735E+03  0.00000000000E+00 0.  1.
</event>
<event>
 8    1  0.3654190E-009  0.9782367E+02  0.7561462E-02  0.1284940E+00
         -2   -1    0    0    0  501 -0.00000000000E+00  0.00000000000E+00  0.30804544936E+02  0.30804544936E+02  0.00000000000E+00 0.  1.
          2   -1    0    0  501    0  0.00000000000E+00 -0.00000000000E+00 -0.59212535795E+03  0.59212535795E+03  0.00000000000E+00 0. -1.
         25    2    1    2    0    0  0.45204112061E+02 -0.15575476151E+01 -0.46078128084E+03  0.47959783808E+03  0.12509540284E+03 0.  0.
         23    2    1    2    0    0 -0.45204112061E+02  0.15575476151E+01 -0.10053953217E+03  0.14333206480E+03  0.91597191936E+02 0.  0.
          5    1    3    3  502    0  0.54568204420E+02  0.51985452756E+02 -0.31607192553E+03  0.32496016792E+03  0.41800000000E+01 0. -1.
         -5    1    3    3    0  502 -0.93640923589E+01 -0.53543000371E+02 -0.14470935532E+03  0.15463767015E+03  0.41800000000E+01 0. -1.
        -11    1    4    4    0    0 -0.54850670687E+02  0.57079970232E+01 -0.11377561538E+03  0.12643602319E+03  0.00000000000E+00 0. -1.
         11    1    4    4    0    0  0.96465586266E+01 -0.41504494081E+01  0.13236083209E+02  0.16896041617E+02  0.00000000000E+00 0.  1.
</event>
<event>
 8    1  0.3654190E-009  0.1737462E+03  0.7561462E-02  0.1173997E+00
         -1   -1    0    0    0  501 -0.00000000000E+00  0.00000000000E+00  0.15149230562E+03  0.15149230562E+03  0.00000000000E+00 0.  1.
          1   -1    0    0  501    0  0.00000000000E+00 -0.00000000000E+00 -0.41604162234E+03  0.41604162234E+03  0.00000000000E+00 0. -1.
         25    2    1    2    0    0  0.13238299710E+03 -0.73608095705E+02  0.53470260465E+02  0.20359468331E+03  0.12509323181E+03 0.  0.
         23    2    1    2    0    0 -0.13238299710E+03  0.73608095705E+02 -0.31801957719E+03  0.36393924465E+03  0.91498156527E+02 0.  0.
          5    1    3    3  502    0  0.92860932541E+02 -0.10758476477E+03  0.26022328506E+02  0.14454158012E+03  0.41800000000E+01 0. -1.
         -5    1    3    3    0  502  0.39522064555E+02  0.33976669064E+02  0.27447931959E+02  0.59053103189E+02  0.41800000000E+01 0. -1.
        -11    1    4    4    0    0 -0.56823795090E+02  0.19443373414E+02 -0.43644639100E+02  0.74241787291E+02  0.00000000000E+00 0.  1.
         11    1    4    4    0    0 -0.75559202006E+02  0.54164722292E+02 -0.27437493809E+03  0.28969745736E+03  0.00000000000E+00 0. -1.
</event>
<event>
 8    1  0.3654190E-009  0.1636290E+03  0.7561462E-02  0.1184660E+00
         -2   -1    0    0    0  501 -0.00000000000E+00  0.00000000000E+00  0.45751554792E+03  0.45751554792E+03  0.00000000000E+00 0. -1.
          2   -1    0    0  501    0  0.00000000000E+00 -0.00000000000E+00 -0.98533008609E+02  0.98533008609E+02  0.00000000000E+00 0.  1.
         25    2    1    2    0    0 -0.13769545137E+03 -0.82667606509E+02  0.30167935062E+03  0.36393887102E+03  0.12508837179E+03 0.  0.
         23    2    1    2    0    0  0.13769545137E+03  0.82667606509E+02  0.57303188689E+02  0.19210968551E+03  0.88478841185E+02 0.  0.
          5    1    3    3  502    0 -0.99032940777E+02 -0.80498711591E+02  0.11059910388E+03  0.16892957144E+03  0.41800000000E+01 0. -1.
         -5    1    3    3    0  502 -0.38662510592E+02 -0.21688949179E+01  0.19108024674E+03  0.19500929958E+03  0.41800000000E+01 0. -1.
        -11    1    4    4    0    0  0.10393556845E+03  0.61349991315E+02 -0.18937163557E+01  0.12070629638E+03  0.00000000000E+00 0.  1.
         11    1    4    4    0    0  0.33759882921E+02  0.21317615193E+02  0.59196905045E+02  0.71403389130E+02  0.00000000000E+00 0. -1.
</event>
<event>
 8    1  0.3654190E-009  0.1215536E+03  0.7561462E-02  0.1240556E+00
          2   -1    0    0  501    0  0.00000000000E+00  0.00000000000E+00  0.15315362534E+03  0.15315362534E+03  0.00000000000E+00 0. -1.
         -2   -1    0    0    0  501 -0.00000000000E+00 -0.00000000000E+00 -0.11444831195E+03  0.11444831195E+03  0.00000000000E+00 0.  1.
         25    2    1    2    0    0 -0.16653707661E+02 -0.74552983800E+02  0.11312795841E+02  0.14700065495E+03  0.12508285188E+03 0.  0.
         23    2    1    2    0    0  0.16653707661E+02  0.74552983800E+02  0.27392517554E+02  0.12060128234E+03  0.89212252026E+02 0.  0.
          5    1    3    3  502    0 -0.53215240445E+02  0.57120199011E+01 -0.13356373468E+02  0.55320467272E+02  0.41800000000E+01 0.  1.
         -5    1    3    3    0  502  0.36561532785E+02 -0.80265003701E+02  0.24669169309E+02  0.91680187680E+02  0.41800000000E+01 0.  1.
        -11    1    4    4    0    0 -0.19096791252E+02  0.74203517689E+00  0.33280070407E+02  0.38377091326E+02  0.00000000000E+00 0. -1.
         11    1    4    4    0    0  0.35750498913E+02  0.73810948623E+02 -0.58875528538E+01  0.82224191013E+02  0.00000000000E+00 0.  1.
</event>
<event>
 8    1  0.3654190E-009  0.7316351E+02  0.7561462E-02  0.1349654E+00
          3   -1    0    0  501    0  0.00000000000E+00  0.00000000000E+00  0.11271566368E+03  0.11271566368E+03  0.00000000000E+00 0. -1.
         -3   -1    0    0    0  501 -0.00000000000E+00 -0.00000000000E+00 -0.12331602603E+03  0.12331602603E+03  0.00000000000E+00 0.  1.
         25    2    1    2    0    0  0.32677758684E+01 -0.93919614346E+01 -0.50877390185E+02  0.13540924253E+03  0.12509303270E+03 0.  0.
         23    2    1    2    0    0 -0.32677758684E+01  0.93919614346E+01  0.40277027835E+02  0.10062244719E+03  0.91671972860E+02 0.  0.
          5    1    3    3  502    0 -0.34169444031E+02 -0.46331598643E+02 -0.58406259165E+02  0.82115354520E+02  0.41800000000E+01 0.  1.
         -5    1    3    3    0  502  0.37437219899E+02  0.36939637209E+02  0.75288689807E+01  0.53293888008E+02  0.41800000000E+01 0.  1.
        -11    1    4    4    0    0  0.13997168404E+02 -0.33463943683E+01 -0.26678771599E+02  0.30312966411E+02  0.00000000000E+00 0.  1.
         11    1    4    4    0    0 -0.17264944273E+02  0.12738355803E+02  0.66955799434E+02  0.70309480777E+02  0.00000000000E+00 0. -1.
</event>
<event>
 8    1  0.3654190E-009  0.1027820E+03  0.7561462E-02  0.1274552E+00
         -2   -1    0    0    0  501 -0.00000000000E+00  0.00000000000E+00  0.41802967341E+02  0.41802967341E+02  0.00000000000E+00 0.  1.
          2   -1    0    0  501    0  0.00000000000E+00 -0.00000000000E+00 -0.40755883818E+03  0.40755883818E+03  0.00000000000E+00 0. -1.
         25    2    1    2    0    0 -0.38573747181E+02 -0.52573404101E+02 -0.21849815747E+03  0.26007888936E+03  0.12509071541E+03 0.  0.
         23    2    1    2    0    0  0.38573747181E+02  0.52573404101E+02 -0.14725771337E+03  0.18928291616E+03  0.99454971793E+02 0.  0.
          5    1    3    3  502    0 -0.64418697957E+02  0.12483721008E+02 -0.14090978513E+03  0.15549486127E+03  0.41800000000E+01 0. -1.
         -5    1    3    3    0  502  0.25844950776E+02 -0.65057125109E+02 -0.77588372341E+02  0.10458402809E+03  0.41800000000E+01 0. -1.
        -11    1    4    4    0    0  0.15400866347E+02  0.40666707680E+01  0.12802757267E+02  0.20436122161E+02  0.00000000000E+00 0.  1.
         11    1    4    4    0    0  0.23172880835E+02  0.48506733333E+02 -0.16006047064E+03  0.16884679400E+03  0.00000000000E+00 0. -1.
</event>
<event>
 8    1  0.3654190E-009  0.1071240E+03  0.7561462E-02  0.1265990E+00
         -2   -1    0    0    0  501 -0.00000000000E+00  0.00000000000E+00  0.56674883203E+02  0.56674883203E+02  0.00000000000E+00 0.  1.
          2   -1    0    0  501    0  0.00000000000E+00 -0.00000000000E+00 -0.30924114828E+03  0.30924114828E+03  0.00000000000E+00 0. -1.
         25    2    1    2    0    0  0.63288917856E+02 -0.38697903867E+02 -0.15665462477E+03  0.21376236194E+03  0.12510260202E+03 0.  0.
         23    2    1    2    0    0 -0.63288917856E+02  0.38697903867E+02 -0.95911640309E+02  0.15215366955E+03  0.91916709706E+02 0.  0.
          5    1    3    3  502    0  0.40702248781E+02  0.39957573048E+02 -0.96266476244E+02  0.11197315548E+03  0.41800000000E+01 0.  1.
         -5    1    3    3    0  502  0.22586669075E+02 -0.78655476915E+02 -0.60388148525E+02  0.10178920646E+03  0.41800000000E+01 0.  1.
        -11    1    4    4    0    0 -0.34768400628E+02  0.28051959018E+02  0.66529324845E+01  0.45166531831E+02  0.00000000000E+00 0.  1.
         11    1    4    4    0    0 -0.28520517228E+02  0.10645944848E+02 -0.10256457279E+03  0.10698713772E+03  0.00000000000E+00 0. -1.
</event>
<event>
 8    1  0.3654190E-009  0.8627756E+02  0.7561462E-02  0.1312125E+00
         -1   -1    0    0    0  501 -0.00000000000E+00  0.00000000000E+00  0.50423746055E+03  0.50423746055E+03  0.00000000000E+00 0.  1.
          1   -1    0    0  501    0  0.00000000000E+00 -0.00000000000E+00 -0.31152576100E+02  0.31152576100E+02  0.00000000000E+00 0. -1.
         25    2    1    2    0    0 -0.28623826828E+02  0.52674463517E+02  0.30659180731E+03  0.33651314216E+03  0.12509450814E+03 0.  0.
         23    2    1    2    0    0  0.28623826828E+02 -0.52674463517E+02  0.16649307714E+03  0.19887689450E+03  0.90764265315E+02 0.  0.
          5    1    3    3  502    0  0.30720747927E+01  0.13629368941E+01 -0.11520049623E+02  0.12707446000E+02  0.41800000000E+01 0.  1.
         -5    1    3    3    0  502 -0.31695901621E+02  0.51311526623E+02  0.31811185693E+03  0.32380569616E+03  0.41800000000E+01 0.  1.
        -11    1    4    4    0    0 -0.23702806062E+02 -0.48816299149E+02  0.10376257319E+03  0.11709622399E+03  0.00000000000E+00 0. -1.
         11    1    4    4    0    0  0.52326632890E+02 -0.38581643682E+01  0.62730503954E+02  0.81780670505E+02  0.00000000000E+00 0.  1.
</event>
<event>
 8    1  0.3654190E-009  0.9613073E+02  0.7561462E-02  0.1288650E+00
          2   -1    0    0  501    0  0.00000000000E+00  0.00000000000E+00  0.29620539318E+03  0.29620539318E+03  0.00000000000E+00 0. -1.
         -2   -1    0    0    0  501 -0.00000000000E+00 -0.00000000000E+00 -0.64946502084E+02  0.64946502084E+02  0.00000000000E+00 0.  1.
         25    2    1    2    0    0 -0.46618345515E+02  0.94595661809E+01  0.32487837837E+02  0.13771861429E+03  0.12509277990E+03 0.  0.
         23    2    1    2    0    0  0.46618345515E+02 -0.94595661809E+01  0.19877105326E+03  0.22343328097E+03  0.90275943095E+02 0.  0.
          5    1    3    3  502    0 -0.16344528189E+02 -0.36713916768E+02  0.62738143360E+02  0.74623068273E+02  0.41800000000E+01 0. -1.
         -5    1    3    3    0  502 -0.30273817326E+02  0.46173482949E+02 -0.30250305523E+02  0.63095546018E+02  0.41800000000E+01 0. -1.
        -11    1    4    4    0    0  0.66109960427E+02  0.12330429985E+02  0.16813747692E+03  0.18108776192E+03  0.00000000000E+00 0.  1.
         11    1    4    4    0    0 -0.19491614912E+02 -0.21789996165E+02  0.30633576340E+02  0.42345519056E+02  0.00000000000E+00 0. -1.
</event>
<event>
 8    1  0.3654190E-009  0.1094833E+03  0.7561462E-02  0.1261530E+00
          1   -1    0    0  501    0  0.00000000000E+00  0.00000000000E+00  0.40000322954E+03  0.40000322954E+03  0.00000000000E+00 0. -1.
         -1   -1    0    0    0  501 -0.00000000000E+00 -0.00000000000E+00 -0.38835745714E+02  0.38835745714E+02  0.00000000000E+00 0.  1.
         25    2    1    2    0    0  0.46324949239E+02 -0.24559119114E+02  0.26162418214E+03  0.29469332252E+03  0.12509112840E+03 0.  0.
         23    2    1    2    0    0 -0.46324949239E+02  0.24559119114E+02  0.99543301691E+02  0.14414565274E+03  0.90110759837E+02 0.  0.
          5    1    3    3  502    0 -0.14341990419E+02  0.41715673510E+02  0.10698494609E+03  0.11579784625E+03  0.41800000000E+01 0.  1.
         -5    1    3    3    0  502  0.60666939658E+02 -0.66274792623E+02  0.15463923604E+03  0.17889547627E+03  0.41800000000E+01 0.  1.
        -11    1    4    4    0    0 -0.31491853463E+02  0.47739427850E+02  0.21006326171E+02  0.60926640685E+02  0.00000000000E+00 0.  1.
         11    1    4    4    0    0 -0.14833095776E+02 -0.23180308736E+02  0.78536975521E+02  0.83219012054E+02  0.00000000000E+00 0. -1.
</event>
<event>
 8    1  0.3654190E-009  0.1048295E+03  0.7561462E-02  0.1270456E+00
         -3   -1    0    0    0  501 -0.00000000000E+00  0.00000000000E+00  0.31261717961E+02  0.31261717961E+02  0.00000000000E+00 0.  1.
          3   -1    0    0  501    0  0.00000000000E+00 -0.00000000000E+00 -0.68779285603E+03  0.68779285603E+03  0.00000000000E+00 0. -1.
         25    2    1    2    0    0 -0.50170222602E+02 -0.22228109504E+02 -0.15545271244E+03  0.20694310929E+03  0.12509502224E+03 0.  0.
         23    2    1    2    0    0  0.50170222602E+02  0.22228109504E+02 -0.50107842563E+03  0.51211146470E+03  0.90373799084E+02 0.  0.
          5    1    3    3  502    0 -0.75892573498E+02 -0.19684291146E+02 -0.16193809166E+03  0.17996825264E+03  0.41800000000E+01 0. -1.
         -5    1    3    3    0  502  0.25722350897E+02 -0.25438183582E+01  0.64853792159E+01  0.26974856646E+02  0.41800000000E+01 0. -1.
        -11    1    4    4    0    0  0.70099352653E+01 -0.33639898261E+02 -0.13634935106E+03  0.14061268606E+03  0.00000000000E+00 0. -1.
         11    1    4    4    0    0  0.43160287336E+02  0.55868007764E+02 -0.36472907457E+03  0.37149877864E+03  0.00000000000E+00 0.  1.
</event>
<event>
 8    1  0.3654190E-009  0.1085025E+03  0.7561462E-02  0.1263368E+00
         -1   -1    0    0    0  501 -0.00000000000E+00  0.00000000000E+00  0.27000329177E+02  0.27000329177E+02  0.00000000000E+00 0.  1.
          1   -1    0    0  501    0  0.00000000000E+00 -0.00000000000E+00 -0.86068244944E+03  0.86068244944E+03  0.00000000000E+00 0. -1.
         25    2    1    2    0    0 -0.15905363690E+02 -0.68906426952E+02 -0.67781874942E+03  0.69288235579E+03  0.12508647260E+03 0.  0.
         23    2    1    2    0    0  0.15905363690E+02  0.68906426952E+02 -0.15586337084E+03  0.19480042283E+03  0.93020095113E+02 0.  0.
          5    1    3    3  502    0 -0.20376820329E+01  0.32316146034E+02 -0.80404838837E+02  0.86780734906E+02  0.41800000000E+01 0.  1.
         -5    1    3    3    0  502 -0.13867681657E+02 -0.10122257299E+03 -0.59741391058E+03  0.60610162088E+03  0.41800000000E+01 0.  1.
        -11    1    4    4    0    0  0.13123854585E+02 -0.16078581684E-01  0.91174251863E+01  0.15980089477E+02  0.00000000000E+00 0.  1.
         11    1    4    4    0    0  0.27815091056E+01  0.68922505533E+02 -0.16498079603E+03  0.17882033335E+03  0.00000000000E+00 0. -1.
</event>
<event>
 8    1  0.3654190E-009  0.1118957E+03  0.7561462E-02  0.1257099E+00
          3   -1    0    0  501    0  0.00000000000E+00  0.00000000000E+00  0.63594088820E+02  0.63594088820E+02  0.00000000000E+00 0.  1.
         -3   -1    0    0    0  501 -0.00000000000E+00 -0.00000000000E+00 -0.20586790501E+03  0.20586790501E+03  0.00000000000E+00 0. -1.
         25    2    1    2    0    0 -0.33623858696E+02 -0.21453258594E+02 -0.79465303607E+02  0.15347273559E+03  0.12509332481E+03 0.  0.
         23    2    1    2    0    0  0.33623858696E+02  0.21453258594E+02 -0.62808512585E+02  0.11598925825E+03  0.88981979059E+02 0.  0.
          5    1    3    3  502    0  0.85668293596E+01 -0.67245323748E+02 -0.50713960518E+02  0.84762623382E+02  0.41800000000E+01 0. -1.
         -5    1    3    3    0  502 -0.42190688056E+02  0.45792065154E+02 -0.28751343088E+02  0.68710112204E+02  0.41800000000E+01 0. -1.
        -11    1    4    4    0    0  0.52394454107E+02 -0.13223414707E+02 -0.19572099098E+02  0.57472642020E+02  0.00000000000E+00 0.  1.
         11    1    4    4    0    0 -0.18770595410E+02  0.34676673301E+02 -0.43236413487E+02  0.58516616225E+02  0.00000000000E+00 0. -1.
</event>
<event>
 8    1  0.3654190E-009  0.1132905E+03  0.7561462E-02  0.1254595E+00
          1   -1    0    0  501    0  0.00000000000E+00  0.00000000000E+00  0.34332511949E+02  0.34332511949E+02  0.00000000000E+00 0. -1.
         -1   -1    0    0    0  501 -0.00000000000E+00 -0.00000000000E+00 -0.42283287358E+03  0.42283287358E+03  0.00000000000E+00 0.  1.
         25    2    1    2    0    0  0.42241613802E+02  0.79856925209E+01 -0.27924242228E+03  0.30898572716E+03  0.12509086285E+03 0.  0.
         23    2    1    2    0    0 -0.42241613802E+02 -0.79856925209E+01 -0.10925793936E+03  0.14817965837E+03  0.90397945886E+02 0.  0.
          5    1    3    3  502    0 -0.17716769199E+02  0.50738867528E+02 -0.79429754737E+02  0.95994140063E+02  0.41800000000E+01 0. -1.
         -5    1    3    3    0  502  0.59958383001E+02 -0.42753175007E+02 -0.19981266754E+03  0.21299158710E+03  0.41800000000E+01 0. -1.
        -11    1    4    4    0    0 -0.21434796151E+02  0.40684660537E+02 -0.62209968015E+02  0.77361309512E+02  0.00000000000E+00 0.  1.
         11    1    4    4    0    0 -0.20806817652E+02 -0.48670353057E+02 -0.47047971341E+02  0.70818348857E+02  0.00000000000E+00 0. -1.
</event>
<event>
 8    1  0.3654190E-009  0.1103343E+03  0.7561462E-02  0.1259952E+00
         -1   -1    0    0    0  501 -0.00000000000E+00  0.00000000000E+00  0.24198620011E+02  0.24198620011E+02  0.00000000000E+00 0.  1.
          1   -1    0    0  501    0  0.00000000000E+00 -0.00000000000E+00 -0.70310193990E+03  0.70310193990E+03  0.00000000000E+00 0. -1.
         25    2    1    2    0    0  0.26840871696E+02 -0.43107030240E+02 -0.50691332618E+03  0.52458110780E+03  0.12508225275E+03 0.  0.
         23    2    1    2    0    0 -0.26840871696E+02  0.43107030240E+02 -0.17198999371E+03  0.20271945211E+03  0.94530259062E+02 0.  0.
          5    1    3    3  502    0  0.47003800951E+02  0.29110530194E+02 -0.28389794257E+03  0.28926163670E+03  0.41800000000E+01 0. -1.
         -5    1    3    3    0  502 -0.20162929255E+02 -0.72217560434E+02 -0.22301538361E+03  0.23531947110E+03  0.41800000000E+01 0. -1.
        -11    1    4    4    0    0  0.21924186135E+02 -0.40442668730E+01 -0.55309350150E+01  0.22969921079E+02  0.00000000000E+00 0.  1.
         11    1    4    4    0    0 -0.48765057831E+02  0.47151297113E+02 -0.16645905870E+03  0.17974953104E+03  0.00000000000E+00 0. -1.
</event>
<event>
 8    1  0.3654190E-009  0.1640392E+03  0.7561462E-02  0.1184211E+00
          3   -1    0    0  501    0  0.00000000000E+00  0.00000000000E+00  0.89695274720E+02  0.89695274720E+02  0.00000000000E+00 0. -1.
         -3   -1    0    0    0  501 -0.00000000000E+00 -0.00000000000E+00 -0.34926175328E+03  0.34926175328E+03  0.00000000000E+00 0.  1.
         25    2    1    2    0    0 -0.70553607463E+02  0.12003086097E+03 -0.11090239646E+03  0.21755697016E+03  0.12508586896E+03 0.  0.
         23    2    1    2    0    0  0.70553607463E+02 -0.12003086097E+03 -0.14866408210E+03  0.22140005783E+03  0.86785696944E+02 0.  0.
          5    1    3    3  502    0  0.27086549545E+02  0.53892736524E+02 -0.70387687670E+02  0.92790124430E+02  0.41800000000E+01 0.  1.
         -5    1    3    3    0  502 -0.97640157007E+02  0.66138124441E+02 -0.40514708791E+02  0.12476684573E+03  0.41800000000E+01 0.  1.
        -11    1    4    4    0    0  0.65467008773E+02 -0.58275378491E+02 -0.12981322502E+03  0.15663148587E+03  0.00000000000E+00 0.  1.
         11    1    4    4    0    0  0.50865986899E+01 -0.61755482474E+02 -0.18850857075E+02  0.64768571964E+02  0.00000000000E+00 0. -1.
</event>
<event>
 8    1  0.3654190E-009  0.1172899E+03  0.7561462E-02  0.1247636E+00
         -2   -1    0    0    0  501 -0.00000000000E+00  0.00000000000E+00  0.11906887210E+03  0.11906887210E+03  0.00000000000E+00 0.  1.
          2   -1    0    0  501    0  0.00000000000E+00 -0.00000000000E+00 -0.11747583296E+03  0.11747583296E+03  0.00000000000E+00 0. -1.
         25    2    1    2    0    0  0.25595725231E+02 -0.42903910221E+02 -0.56732810315E+01  0.13481082033E+03  0.12508351009E+03 0.  0.
         23    2    1    2    0    0 -0.25595725231E+02  0.42903910221E+02  0.72663201680E+01  0.10173388474E+03  0.88323820304E+02 0.  0.
          5    1    3    3  502    0 -0.31825321778E+02  0.28345384691E+02 -0.57556503379E+01  0.43207775346E+02  0.41800000000E+01 0.  1.
         -5    1    3    3    0  502  0.57421047008E+02 -0.71249294912E+02  0.82369306391E-01  0.91603044980E+02  0.41800000000E+01 0.  1.
        -11    1    4    4    0    0 -0.17989370647E+02 -0.25567226272E+02 -0.52912165831E+01  0.31706426611E+02  0.00000000000E+00 0. -1.
         11    1    4    4    0    0 -0.76063545833E+01  0.68471136493E+02  0.12557536751E+02  0.70027458129E+02  0.00000000000E+00 0.  1.
</event>
<event>
 8    1  0.3654190E-009  0.1030595E+03  0.7561462E-02  0.1273991E+00
          2   -1    0    0  501    0  0.00000000000E+00  0.00000000000E+00  0.28056930647E+03  0.28056930647E+03  0.00000000000E+00 0. -1.
         -2   -1    0    0    0  501 -0.00000000000E+00 -0.00000000000E+00 -0.65722221184E+02  0.65722221184E+02  0.00000000000E+00 0.  1.
         25    2    1    2    0    0 -0.62868899163E+02 -0.51222260741E+02  0.10812340988E+03  0.18415944138E+03  0.12509120515E+03 0.  0.
         23    2    1    2    0    0  0.62868899163E+02  0.51222260741E+02  0.10672367540E+03  0.16213208628E+03  0.91217608123E+02 0.  0.
          5    1    3    3  502    0 -0.52789801488E+02 -0.58907097803E+02  0.41351264031E+01  0.79318226046E+02  0.41800000000E+01 0. -1.
         -5    1    3    3    0  502 -0.10079097675E+02  0.76848370615E+01  0.10398828348E+03  0.10484121533E+03  0.41800000000E+01 0. -1.
        -11    1    4    4    0    0 -0.87844657576E+01 -0.14093546470E+02 -0.16846765764E+01  0.16692304392E+02  0.00000000000E+00 0.  1.
         11    1    4    4    0    0  0.71653364921E+02  0.65315807211E+02  0.10840835198E+03  0.14543978188E+03  0.00000000000E+00 0. -1.
</event>
<event>
 8    1  0.3654190E-009  0.1125994E+03  0.7561462E-02  0.1255830E+00
          1   -1    0    0  501    0  0.00000000000E+00  0.00000000000E+00  0.42641815693E+03  0.42641815693E+03  0.00000000000E+00 0. -1.
         -1   -1    0    0    0  501 -0.00000000000E+00 -0.00000000000E+00 -0.42079836599E+02  0.42079836599E+02  0.00000000000E+00 0.  1.
         25    2    1    2    0    0 -0.64096218818E+02  0.45188365919E+02  0.20852621947E+03  0.25550217964E+03  0.12509143021E+03 0.  0.
         23    2    1    2    0    0  0.64096218818E+02 -0.45188365919E+02  0.17581210086E+03  0.21299581389E+03  0.91142790417E+02 0.  0.
          5    1    3    3  502    0 -0.91130017481E+02 -0.29395627428E+01  0.14392181880E+03  0.17042383472E+03  0.41800000000E+01 0.  1.
         -5    1    3    3    0  502  0.27033798663E+02  0.48127928661E+02  0.64604400674E+02  0.85078344917E+02  0.41800000000E+01 0.  1.
        -11    1    4    4    0    0  0.28981092674E+02 -0.23325922940E+02  0.16648722725E+03  0.17059308090E+03  0.00000000000E+00 0. -1.
         11    1    4    4    0    0  0.35115126144E+02 -0.21862442978E+02  0.93248736087E+01  0.42402732989E+02  0.00000000000E+00 0.  1.
</event>
<event>
 8    1  0.3654190E-009  0.1331050E+03  0.7561462E-02  0.1222920E+00
         -1   -1    0    0    0  501 -0.00000000000E+00  0.00000000000E+00  0.25183758772E+02  0.25183758772E+02  0.00000000000E+00 0.  1.
          1   -1    0    0  501    0  0.00000000000E+00 -0.00000000000E+00 -0.91461597538E+03  0.91461597538E+03  0.00000000000E+00 0. -1.
         25    2    1    2    0    0  0.55578277940E+02 -0.87360173701E+02 -0.54633586821E+03  0.56995709075E+03  0.12508980567E+03 0.  0.
         23    2    1    2    0    0 -0.55578277940E+02  0.87360173701E+02 -0.34309634841E+03  0.36984264340E+03  0.91365921775E+02 0.  0.
          5    1    3    3  502    0  0.82510728889E+02 -0.10214309480E+03 -0.44369669254E+03  0.46273692264E+03  0.41800000000E+01 0.  1.
         -5    1    3    3    0  502 -0.26932450949E+02  0.14782921098E+02 -0.10263917566E+03  0.10722016812E+03  0.41800000000E+01 0.  1.
        -11    1    4    4    0    0 -0.11146725793E+02  0.23804681140E+02 -0.10465316004E+02  0.28291963155E+02  0.00000000000E+00 0.  1.
         11    1    4    4    0    0 -0.44431552147E+02  0.63555492561E+02 -0.33263103240E+03  0.34155068025E+03  0.00000000000E+00 0. -1.
</event>
<event>
 8    1  0.3654190E-009  0.1048631E+03  0.7561462E-02  0.1270390E+00
          1   -1    0    0  501    0  0.00000000000E+00  0.00000000000E+00  0.43015667343E+03  0.43015667343E+03  0.00000000000E+00 0. -1.
         -1   -1    0    0    0  501 -0.00000000000E+00 -0.00000000000E+00 -0.39521695868E+02  0.39521695868E+02  0.00000000000E+00 0.  1.
         25    2    1    2    0    0 -0.43363968334E+02  0.86475731570E+01  0.11502779046E+03  0.17559661100E+03  0.12509021922E+03 0.  0.
         23    2    1    2    0    0  0.43363968334E+02 -0.86475731570E+01  0.27560718709E+03  0.29408175829E+03  0.92571835415E+02 0.  0.
          5    1    3    3  502    0 -0.76592454508E+02  0.92788117659E+01  0.11898110510E+03  0.14186781244E+03  0.41800000000E+01 0. -1.
         -5    1    3    3    0  502  0.33228486174E+02 -0.63123860890E+00 -0.39533146382E+01  0.33728798559E+02  0.41800000000E+01 0. -1.
        -11    1    4    4    0    0  0.37339087119E+02  0.37208993955E+02  0.18484862010E+03  0.19221792063E+03  0.00000000000E+00 0. -1.
         11    1    4    4    0    0  0.60248812151E+01 -0.45856567112E+02  0.90758566993E+02  0.10186383766E+03  0.00000000000E+00 0.  1.
</event>
<event>
 8    1  0.3654190E-009  0.1002493E+03  0.7561462E-02  0.1279773E+00
          1   -1    0    0  501    0  0.00000000000E+00  0.00000000000E+00  0.26147774152E+03  0.26147774152E+03  0.00000000000E+00 0. -1.
         -1   -1    0    0    0  501 -0.00000000000E+00 -0.00000000000E+00 -0.60781395738E+02  0.60781395738E+02  0.00000000000E+00 0.  1.
         25    2    1    2    0    0  0.50141740416E+02  0.30946090968E+02  0.11271333848E+03  0.17839047257E+03  0.12508800644E+03 0.  0.
         23    2    1    2    0    0 -0.50141740416E+02 -0.30946090968E+02  0.87983007297E+02  0.14386866468E+03  0.97392650782E+02 0.  0.
          5    1    3    3  502    0 -0.24384335816E+02 -0.21725691907E+01 -0.13344876104E+02  0.28193510039E+02  0.41800000000E+01 0.  1.
         -5    1    3    3    0  502  0.74526076233E+02  0.33118660159E+02  0.12605821459E+03  0.15019696254E+03  0.41800000000E+01 0.  1.
        -11    1    4    4    0    0 -0.66794468884E+02 -0.10470297147E+02  0.19332785054E+02  0.70319874671E+02  0.00000000000E+00 0.  1.
         11    1    4    4    0    0  0.16652728468E+02 -0.20475793821E+02  0.68650222243E+02  0.73548790011E+02  0.00000000000E+00 0. -1.
</event>
<event>
 8    1  0.3654190E-009  0.1412592E+03  0.7561462E-02  0.1211645E+00
         -2   -1    0    0    0  501 -0.00000000000E+00  0.00000000000E+00  0.16859029419E+02  0.16859029419E+02  0.00000000000E+00 0.  1.
          2   -1    0    0  501    0  0.00000000000E+00 -0.00000000000E+00 -0.14186561634E+04  0.14186561634E+04  0.00000000000E+00 0. -1.
         25    2    1    2    0    0 -0.94654711166E+02  0.71991162811E+01 -0.99412796588E+03  0.10064538769E+04  0.12509057623E+03 0.  0.
         23    2    1    2    0    0  0.94654711166E+02 -0.71991162811E+01 -0.40766916806E+03  0.42906131583E+03  0.94276829238E+02 0.  0.
          5    1    3    3  502    0  0.26557431008E+02 -0.64272185633E+01 -0.33373775869E+03  0.33488053132E+03  0.41800000000E+01 0. -1.
         -5    1    3    3    0  502 -0.12121214217E+03  0.13626334844E+02 -0.66039020718E+03  0.67157334563E+03  0.41800000000E+01 0. -1.
        -11    1    4    4    0    0  0.10679775613E+03  0.14684124462E+02 -0.30889184261E+03  0.32716288704E+03  0.00000000000E+00 0.  1.
         11    1    4    4    0    0 -0.12143044960E+02 -0.21883240743E+02 -0.98777325447E+02  0.10189842878E+03  0.00000000000E+00 0. -1.
</event>
<event>
 8    1  0.3654190E-009  0.1116936E+03  0.7561462E-02  0.1257465E+00
         -2   -1    0    0    0  501 -0.00000000000E+00  0.00000000000E+00  0.21565083672E+03  0.21565083672E+03  0.00000000000E+00 0.  1.
          2   -1    0    0  501    0  0.00000000000E+00 -0.00000000000E+00 -0.80840330851E+02  0.80840330851E+02  0.00000000000E+00 0. -1.
         25    2    1    2    0    0  0.43135614192E+02  0.61845128601E+02  0.76776588688E+02  0.16499803368E+03  0.12507679802E+03 0.  0.
         23    2    1    2    0    0 -0.43135614192E+02 -0.61845128601E+02  0.58033917176E+02  0.13149313389E+03  0.90757961489E+02 0.  0.
          5    1    3    3  502    0  0.39316642400E+02  0.99672357389E+02  0.50028703642E+02  0.11832464150E+03  0.41800000000E+01 0. -1.
         -5    1    3    3    0  502  0.38189717922E+01 -0.37827228788E+02  0.26747885046E+02  0.46673392181E+02  0.41800000000E+01 0. -1.
        -11    1    4    4    0    0 -0.10218844149E+02 -0.32861826115E+01  0.63212533493E+02  0.64117455989E+02  0.00000000000E+00 0.  1.
         11    1    4    4    0    0 -0.32916770044E+02 -0.58558945990E+02 -0.51786163169E+01  0.67375677900E+02  0.00000000000E+00 0. -1.
</event>
<event>
 8    1  0.3654190E-009  0.1018077E+03  0.7561462E-02  0.1276540E+00
          1   -1    0    0  501    0  0.00000000000E+00  0.00000000000E+00  0.97174301257E+03  0.97174301257E+03  0.00000000000E+00 0. -1.
         -1   -1    0    0    0  501 -0.00000000000E+00 -0.00000000000E+00 -0.17972266365E+02  0.17972266365E+02  0.00000000000E+00 0.  1.
         25    2    1    2    0    0  0.90928716305E+01 -0.66436623477E+02  0.62669914617E+03  0.64257050162E+03  0.12509406254E+03 0.  0.
         23    2    1    2    0    0 -0.90928716305E+01  0.66436623477E+02  0.32707160003E+03  0.34714477732E+03  0.95063976443E+02 0.  0.
          5    1    3    3  502    0  0.48471893982E+02 -0.56252163836E+02  0.55557254566E+03  0.56052846166E+03  0.41800000000E+01 0.  1.
         -5    1    3    3    0  502 -0.39379022351E+02 -0.10184459641E+02  0.71126600514E+02  0.82042039956E+02  0.41800000000E+01 0.  1.
        -11    1    4    4    0    0  0.20421506019E+02  0.63104237990E+01  0.10970250564E+02  0.24025106743E+02  0.00000000000E+00 0.  1.
         11    1    4    4    0    0 -0.29514377649E+02  0.60126199678E+02  0.31610134947E+03  0.32311967057E+03  0.00000000000E+00 0. -1.
</event>
<event>
 8    1  0.3654190E-009  0.1477294E+03  0.7561462E-02  0.1203291E+00
          2   -1    0    0  501    0  0.00000000000E+00  0.00000000000E+00  0.93914459616E+03  0.93914459616E+03  0.00000000000E+00 0. -1.
         -2   -1    0    0    0  501 -0.00000000000E+00 -0.00000000000E+00 -0.23848141952E+02  0.23848141952E+02  0.00000000000E+00 0.  1.
         25    2    1    2    0    0 -0.76373808836E+02 -0.63628584661E+02  0.56823542136E+03  0.59027185093E+03  0.12509120051E+03 0.  0.
         23    2    1    2    0    0  0.76373808836E+02  0.63628584661E+02  0.34706103284E+03  0.37272088718E+03  0.92671159278E+02 0.  0.
          5    1    3    3  502    0  0.34386849992E+02 -0.22932009419E+02  0.13651393182E+03  0.14269498411E+03  0.41800000000E+01 0. -1.
         -5    1    3    3    0  502 -0.11076065883E+03 -0.40696575241E+02  0.43172148954E+03  0.44757686682E+03  0.41800000000E+01 0. -1.
        -11    1    4    4    0    0 -0.19868105988E+02  0.25489509236E+02  0.87409392660E+02  0.93192588986E+02  0.00000000000E+00 0.  1.
         11    1    4    4    0    0  0.96241914823E+02  0.38139075424E+02  0.25965164018E+03  0.27952829819E+03  0.00000000000E+00 0. -1.
</event>
<event>
 8    1  0.3654190E-009  0.1173326E+03  0.7561462E-02  0.1247563E+00
         -2   -1    0    0    0  501 -0.00000000000E+00  0.00000000000E+00  0.14803412198E+03  0.14803412198E+03  0.00000000000E+00 0.  1.
          2   -1    0    0  501    0  0.00000000000E+00 -0.00000000000E+00 -0.25496306851E+03  0.25496306851E+03  0.00000000000E+00 0. -1.
         25    2    1    2    0    0  0.22206864850E+02 -0.81473809691E+02 -0.19863802177E+03  0.24947068932E+03  0.12508970631E+03 0.  0.
         23    2    1    2    0    0 -0.22206864850E+02  0.81473809691E+02  0.91709075236E+02  0.15352650116E+03  0.89603044408E+02 0.  0.
          5    1    3    3  502    0  0.36391429227E+02 -0.10816736428E+03 -0.18159030110E+03  0.21451579119E+03  0.41800000000E+01 0.  1.
         -5    1    3    3    0  502 -0.14184564376E+02  0.26693554593E+02 -0.17047720676E+02  0.34954898134E+02  0.41800000000E+01 0.  1.
        -11    1    4    4    0    0  0.31444026062E+00  0.55779855298E+02  0.10334036594E+03  0.11743390636E+03  0.00000000000E+00 0.  1.
         11    1    4    4    0    0 -0.22521305111E+02  0.25693954392E+02 -0.11631290707E+02  0.36092594805E+02  0.00000000000E+00 0. -1.
</event>
<event>
 8    1  0.3654190E-009  0.1271535E+03  0.7561462E-02  0.1231742E+00
          1   -1    0    0  501    0  0.00000000000E+00  0.00000000000E+00  0.17859704482E+03  0.17859704482E+03  0.00000000000E+00 0. -1.
         -1   -1    0    0    0  501 -0.00000000000E+00 -0.00000000000E+00 -0.97709058058E+02  0.97709058058E+02  0.00000000000E+00 0.  1.
         25    2    1    2    0    0 -0.35101930648E+02 -0.61638711593E+02  0.73868190865E+02  0.16166551708E+03  0.12509098084E+03 0.  0.
         23    2    1    2    0    0  0.35101930648E+02  0.61638711593E+02  0.70197958951E+01  0.11464058580E+03  0.89787026213E+02 0.  0.
          5    1    3    3  502    0  0.42335475417E+02 -0.44690825549E+02  0.48011100629E+02  0.78179924218E+02  0.41800000000E+01 0.  1.
         -5    1    3    3    0  502 -0.77437406065E+02 -0.16947886044E+02  0.25857090236E+02  0.83485592859E+02  0.41800000000E+01 0.  1.
        -11    1    4    4    0    0  0.65020334251E+02  0.40710424713E+02  0.12482319722E+02  0.77722524740E+02  0.00000000000E+00 0. -1.
         11    1    4    4    0    0 -0.29918403603E+02  0.20928286880E+02 -0.54625238265E+01  0.36918061060E+02  0.00000000000E+00 0.  1.
</event>
<event>
 8    1  0.3654190E-009  0.1116503E+03  0.7561462E-02  0.1257544E+00
          1   -1    0    0  501    0  0.00000000000E+00  0.00000000000E+00  0.15812831488E+03  0.15812831488E+03  0.00000000000E+00 0. -1.
         -1   -1    0    0    0  501 -0.00000000000E+00 -0.00000000000E+00 -0.11071073792E+03  0.11071073792E+03  0.00000000000E+00 0.  1.
         25    2    1    2    0    0  0.44759722265E+02 -0.58400224170E+02  0.40236369102E+02  0.15059987311E+03  0.12508931794E+03 0.  0.
         23    2    1    2    0    0 -0.44759722265E+02  0.58400224170E+02  0.71812078579E+01  0.11823917968E+03  0.92276296765E+02 0.  0.
          5    1    3    3  502    0 -0.29353796532E+01 -0.80427969883E+02  0.52895650077E+02  0.96398635832E+02  0.41800000000E+01 0. -1.
         -5    1    3    3    0  502  0.47695101919E+02  0.22027745713E+02 -0.12659280975E+02  0.54201237283E+02  0.41800000000E+01 0. -1.
        -11    1    4    4    0    0 -0.37314419543E+01  0.47378993529E+02  0.41911999845E+02  0.63366461302E+02  0.00000000000E+00 0.  1.
         11    1    4    4    0    0 -0.41028280311E+02  0.11021230640E+02 -0.34730791987E+02  0.54872718378E+02  0.00000000000E+00 0. -1.
</event>
<event>
 8    1  0.3654190E-009  0.1047210E+03  0.7561462E-02  0.1270670E+00
          2   -1    0    0  501    0  0.00000000000E+00  0.00000000000E+00  0.55856496458E+03  0.55856496458E+03  0.00000000000E+00 0. -1.
         -2   -1    0    0    0  501 -0.00000000000E+00 -0.00000000000E+00 -0.22354081296E+02  0.22354081296E+02  0.00000000000E+00 0.  1.
         25    2    1    2    0    0  0.25381687845E+02 -0.22053396005E+01  0.26948001966E+03  0.29818911443E+03  0.12509265913E+03 0.  0.
         23    2    1    2    0    0 -0.25381687845E+02  0.22053396005E+01  0.26673086362E+03  0.28272993144E+03  0.90231740113E+02 0.  0.
          5    1    3    3  502    0  0.72558688259E+02  0.19644892394E+02  0.15061407372E+03  0.16838276825E+03  0.41800000000E+01 0. -1.
         -5    1    3    3    0  502 -0.47177000414E+02 -0.21850231994E+02  0.11886594594E+03  0.12980634618E+03  0.41800000000E+01 0. -1.
        -11    1    4    4    0    0 -0.46174613577E+02  0.23859735710E+02  0.22732646599E+03  0.23319241854E+03  0.00000000000E+00 0. -1.
         11    1    4    4    0    0  0.20792925732E+02 -0.21654396109E+02  0.39404397637E+02  0.49537512902E+02  0.00000000000E+00 0.  1.
</event>
<event>
 8    1  0.3654190E-009  0.1223081E+03  0.7561462E-02  0.1239337E+00
         -1   -1    0    0    0  501 -0.00000000000E+00  0.00000000000E+00  0.19951209609E+02  0.19951209609E+02  0.00000000000E+00 0.  1.
          1   -1    0    0  501    0  0.00000000000E+00 -0.00000000000E+00 -0.92035097147E+03  0.92035097147E+03  0.00000000000E+00 0. -1.
         25    2    1    2    0    0  0.74073434455E+02 -0.15220194604E+02 -0.39262470652E+03  0.41894960228E+03  0.12508429583E+03 0.  0.
         23    2    1    2    0    0 -0.74073434455E+02  0.15220194604E+02 -0.50777505533E+03  0.52135257880E+03  0.90854150050E+02 0.  0.
          5    1    3    3  502    0  0.10247240054E+03 -0.15755395124E+02 -0.21169689180E+03  0.23575807886E+03  0.41800000000E+01 0. -1.
         -5    1    3    3    0  502 -0.28398966084E+02  0.53520051979E+00 -0.18092781472E+03  0.18319152342E+03  0.41800000000E+01 0. -1.
        -11    1    4    4    0    0 -0.69820783228E+02  0.44344346705E+02 -0.43601423340E+03  0.44379023714E+03  0.00000000000E+00 0. -1.
         11    1    4    4    0    0 -0.42526512266E+01 -0.29124152101E+02 -0.71760821933E+02  0.77562341652E+02  0.00000000000E+00 0.  1.
</event>
<event>
 8    1  0.3654190E-009  0.8458621E+02  0.7561462E-02  0.1316518E+00
         -2   -1    0    0    0  501 -0.00000000000E+00  0.00000000000E+00  0.22805905216E+02  0.22805905216E+02  0.00000000000E+00 0.  1.
          2   -1    0    0  501    0  0.00000000000E+00 -0.00000000000E+00 -0.54852490123E+03  0.54852490123E+03  0.00000000000E+00 0. -1.
         25    2    1    2    0    0  0.79039411185E+01  0.30009075377E+02 -0.31803464900E+03  0.34315599549E+03  0.12508789864E+03 0.  0.
         23    2    1    2    0    0 -0.79039411185E+01 -0.30009075377E+02 -0.20768434701E+03  0.22817481096E+03  0.89263315368E+02 0.  0.
          5    1    3    3  502    0 -0.64856034047E+01  0.53858251000E+02 -0.30873813824E+03  0.31349558953E+03  0.41800000000E+01 0. -1.
         -5    1    3    3    0  502  0.14389544523E+02 -0.23849175623E+02 -0.92965107686E+01  0.29660405964E+02  0.41800000000E+01 0. -1.
        -11    1    4    4    0    0 -0.59294610092E+01  0.27967035942E+02 -0.30809854033E+02  0.42030473620E+02  0.00000000000E+00 0.  1.
         11    1    4    4    0    0 -0.19744801094E+01 -0.57976111318E+02 -0.17687449298E+03  0.18614433734E+03  0.00000000000E+00 0. -1.
</event>
<event>
 8    1  0.3654190E-009  0.1054097E+03  0.7561462E-02  0.1269315E+00
         -1   -1    0    0    0  501 -0.00000000000E+00  0.00000000000E+00  0.59442464327E+02  0.59442464327E+02  0.00000000000E+00 0.  1.
          1   -1    0    0  501    0  0.00000000000E+00 -0.00000000000E+00 -0.26601263497E+03  0.26601263497E+03  0.00000000000E+00 0. -1.
         25    2    1    2    0    0 -0.63693707566E+01 -0.51073113534E+02 -0.16307746934E+03  0.21187454533E+03  0.12509008810E+03 0.  0.
         23    2    1    2    0    0  0.63693707566E+01  0.51073113534E+02 -0.43492701296E+02  0.11358055396E+03  0.91432463396E+02 0.  0.
          5    1    3    3  502    0  0.29922822442E+02 -0.68782573419E+02 -0.15237652501E+03  0.16988965679E+03  0.41800000000E+01 0.  1.
         -5    1    3    3    0  502 -0.36292193199E+02  0.17709459885E+02 -0.10700944337E+02  0.41984888547E+02  0.41800000000E+01 0.  1.
        -11    1    4    4    0    0 -0.35504278750E+02  0.11083999736E+02  0.56692618351E+01  0.37623787548E+02  0.00000000000E+00 0.  1.
         11    1    4    4    0    0  0.41873649507E+02  0.39989113798E+02 -0.49161963132E+02  0.75956766416E+02  0.00000000000E+00 0. -1.
</event>
<event>
 8    1  0.3654190E-009  0.1100473E+03  0.7561462E-02  0.1260482E+00
          2   -1    0    0  501    0  0.00000000000E+00  0.00000000000E+00  0.10882494726E+02  0.10882494726E+02  0.00000000000E+00 0.  1.
         -2   -1    0    0    0  501 -0.00000000000E+00 -0.00000000000E+00 -0.11353926974E+04  0.11353926974E+04  0.00000000000E+00 0. -1.
         25    2    1    2    0    0 -0.10734354447E+02 -0.27011367559E+02 -0.69229727039E+03  0.70410850762E+03  0.12509372310E+03 0.  0.
         23    2    1    2    0    0  0.10734354447E+02  0.27011367559E+02 -0.43221293228E+03  0.44216668451E+03  0.88648280960E+02 0.  0.
          5    1    3    3  502    0 -0.41159460717E+02  0.37646694531E+02 -0.34578488979E+03  0.35027994122E+03  0.41800000000E+01 0.  1.
         -5    1    3    3    0  502  0.30425106270E+02 -0.64658062089E+02 -0.34651238060E+03  0.35382856639E+03  0.41800000000E+01 0.  1.
        -11    1    4    4    0    0 -0.28088952758E+02  0.42363085172E+02 -0.20980833217E+03  0.21587764243E+03  0.00000000000E+00 0.  1.
         11    1    4    4    0    0  0.38823307205E+02 -0.15351717614E+02 -0.22240460011E+03  0.22628904208E+03  0.00000000000E+00 0. -1.
</event>
<event>
 8    1  0.3654190E-009  0.1277795E+03  0.7561462E-02  0.1230788E+00
          2   -1    0    0  501    0  0.00000000000E+00  0.00000000000E+00  0.67276959575E+03  0.67276959575E+03  0.00000000000E+00 0.  1.
         -2   -1    0    0    0  501 -0.00000000000E+00 -0.00000000000E+00 -0.32183865444E+02  0.32183865444E+02  0.00000000000E+00 0. -1.
         25    2    1    2    0    0  0.68841844410E+02 -0.70510454611E+02  0.37821423077E+03  0.41037189268E+03  0.12509261445E+03 0.  0.
         23    2    1    2    0    0 -0.68841844410E+02  0.70510454611E+02  0.26237149953E+03  0.29458156851E+03  0.90711482129E+02 0.  0.
          5    1    3    3  502    0  0.49920963709E+02 -0.84371896783E+02  0.37338485921E+03  0.38606274758E+03  0.41800000000E+01 0. -1.
         -5    1    3    3    0  502  0.18920880701E+02  0.13861442173E+02  0.48293715642E+01  0.24309145096E+02  0.41800000000E+01 0. -1.
        -11    1    4    4    0    0 -0.50752977576E+02  0.92274506807E+02  0.21485039432E+03  0.23927210719E+03  0.00000000000E+00 0. -1.
         11    1    4    4    0    0 -0.18088866834E+02 -0.21764052197E+02  0.47521105208E+02  0.55309461321E+02  0.00000000000E+00 0.  1.
</event>
<event>
 8    1  0.3654190E-009  0.9116240E+02  0.7561462E-02  0.1300061E+00
          2   -1    0    0  501    0  0.00000000000E+00  0.00000000000E+00  0.87341637374E+02  0.87341637374E+02  0.00000000000E+00 0. -1.
         -2   -1    0    0    0  501 -0.00000000000E+00 -0.00000000000E+00 -0.16817783082E+03  0.16817783082E+03  0.00000000000E+00 0.  1.
         25    2    1    2    0    0  0.30383998103E+02 -0.12493033555E+02 -0.48106122554E+01  0.12941902190E+03  0.12508748143E+03 0.  0.
         23    2    1    2    0    0 -0.30383998103E+02  0.12493033555E+02 -0.76025581193E+02  0.12610044630E+03  0.95090327226E+02 0.  0.
          5    1    3    3  502    0  0.40014929937E+02 -0.58856016437E+02  0.22294332358E+02  0.74697623416E+02  0.41800000000E+01 0. -1.
         -5    1    3    3    0  502 -0.96309318339E+01  0.46362982882E+02 -0.27104944613E+02  0.54721398485E+02  0.41800000000E+01 0. -1.
        -11    1    4    4    0    0 -0.28641887761E+02  0.32552894768E+02  0.40347905585E+01  0.43546850944E+02  0.00000000000E+00 0. -1.
         11    1    4    4    0    0 -0.17421103415E+01 -0.20059861213E+02 -0.80060371752E+02  0.82553595351E+02  0.00000000000E+00 0.  1.
</event>
<event>
 8    1  0.3654190E-009  0.1562531E+03  0.7561462E-02  0.1192993E+00
          3   -1    0    0  501    0  0.00000000000E+00  0.00000000000E+00  0.58672315472E+02  0.58672315472E+02  0.00000000000E+00 0. -1.
         -3   -1    0    0    0  501 -0.00000000000E+00 -0.00000000000E+00 -0.43214331620E+03  0.43214331620E+03  0.00000000000E+00 0.  1.
         25    2    1    2    0    0  0.11366105917E+03  0.22616151765E+02 -0.20443830822E+03  0.26621833090E+03  0.12508737404E+03 0.  0.
         23    2    1    2    0    0 -0.11366105917E+03 -0.22616151765E+02 -0.16903269250E+03  0.22459730077E+03  0.91878015245E+02 0.  0.
          5    1    3    3  502    0  0.13720355900E+03  0.35201155036E+02 -0.18448670852E+03  0.23263008391E+03  0.41800000000E+01 0. -1.
         -5    1    3    3    0  502 -0.23542499825E+02 -0.12585003271E+02 -0.19951599705E+02  0.33588246994E+02  0.41800000000E+01 0. -1.
        -11    1    4    4    0    0 -0.36506735302E+01 -0.33069980042E+02 -0.64039514261E+02  0.72166546155E+02  0.00000000000E+00 0. -1.
         11    1    4    4    0    0 -0.11001038564E+03  0.10453828277E+02 -0.10499317824E+03  0.15243075461E+03  0.00000000000E+00 0.  1.
</event>
<event>
 8    1  0.3654190E-009  0.8788986E+02  0.7561462E-02  0.1308044E+00
         -2   -1    0    0    0  501 -0.00000000000E+00  0.00000000000E+00  0.18158525930E+03  0.18158525930E+03  0.00000000000E+00 0.  1.
          2   -1    0    0  501    0  0.00000000000E+00 -0.00000000000E+00 -0.83165764398E+02  0.83165764398E+02  0.00000000000E+00 0. -1.
         25    2    1    2    0    0  0.53900307673E+02  0.37922358748E+01  0.82865712817E+02  0.15947747081E+03  0.12508682231E+03 0.  0.
         23    2    1    2    0    0 -0.53900307673E+02 -0.37922358748E+01  0.15553782080E+02  0.10527355288E+03  0.88999868421E+02 0.  0.
          5    1    3    3  502    0  0.77024410500E+02  0.18614634162E+02  0.81572361897E+01  0.79770153065E+02  0.41800000000E+01 0. -1.
         -5    1    3    3    0  502 -0.23124102827E+02 -0.14822398287E+02  0.74708476627E+02  0.79707317748E+02  0.41800000000E+01 0. -1.
        -11    1    4    4    0    0 -0.53569916773E+02  0.10297821353E+02  0.46236020269E+02  0.71509095072E+02  0.00000000000E+00 0.  1.
         11    1    4    4    0    0 -0.33039089938E+00 -0.14090057228E+02 -0.30682238189E+02  0.33764457809E+02  0.00000000000E+00 0. -1.
</event>
<event>
 8    1  0.3654190E-009  0.1480777E+03  0.7561462E-02  0.1202855E+00
         -4   -1    0    0    0  501 -0.00000000000E+00  0.00000000000E+00  0.26569985162E+03  0.26569985162E+03  0.00000000000E+00 0.  1.
          4   -1    0    0  501    0  0.00000000000E+00 -0.00000000000E+00 -0.91610304635E+02  0.91610304635E+02  0.00000000000E+00 0. -1.
         25    2    1    2    0    0 -0.83440016492E+02  0.65627779983E+02  0.14762914153E+03  0.22070653719E+03  0.12509104792E+03 0.  0.
         23    2    1    2    0    0  0.83440016492E+02 -0.65627779983E+02  0.26460405459E+02  0.13660361907E+03  0.81799473280E+02 0.  0.
          5    1    3    3  502    0 -0.11601175163E+03  0.41381853912E+02  0.11042708721E+03  0.16547748589E+03  0.41800000000E+01 0. -1.
         -5    1    3    3    0  502  0.32571735135E+02  0.24245926071E+02  0.37202054325E+02  0.55229051293E+02  0.41800000000E+01 0. -1.
        -11    1    4    4    0    0  0.53785674502E+02  0.64334640982E+01 -0.42775897870E+00  0.54170759822E+02  0.00000000000E+00 0. -1.
         11    1    4    4    0    0  0.29654341990E+02 -0.72061244081E+02  0.26888164437E+02  0.82432859250E+02  0.00000000000E+00 0.  1.
</event>
<event>
 8    1  0.3654190E-009  0.8574889E+02  0.7561462E-02  0.1313486E+00
          3   -1    0    0  501    0  0.00000000000E+00  0.00000000000E+00  0.57698056005E+02  0.57698056005E+02  0.00000000000E+00 0. -1.
         -3   -1    0    0    0  501 -0.00000000000E+00 -0.00000000000E+00 -0.22233863348E+03  0.22233863348E+03  0.00000000000E+00 0.  1.
         25    2    1    2    0    0 -0.19749045846E+02 -0.77541481755E+01 -0.14040151003E+03  0.18923741563E+03  0.12509222130E+03 0.  0.
         23    2    1    2    0    0  0.19749045846E+02  0.77541481755E+01 -0.24239067446E+02  0.90799273852E+02  0.84893015706E+02 0.  0.
          5    1    3    3  502    0  0.30860466108E+02  0.16869713229E+02  0.25888808786E+01  0.35512396385E+02  0.41800000000E+01 0. -1.
         -5    1    3    3    0  502 -0.50609511954E+02 -0.24623861405E+02 -0.14299039090E+03  0.15372501924E+03  0.41800000000E+01 0. -1.
        -11    1    4    4    0    0  0.25787975718E+02  0.39585175958E+02 -0.32525244669E+02  0.57357627113E+02  0.00000000000E+00 0.  1.
         11    1    4    4    0    0 -0.60389298725E+01 -0.31831027782E+02  0.82861772231E+01  0.33441646739E+02  0.00000000000E+00 0. -1.
</event>
<event>
 8    1  0.3654190E-009  0.8226252E+02  0.7561462E-02  0.1322751E+00
         -4   -1    0    0    0  501 -0.00000000000E+00  0.00000000000E+00  0.43775933245E+02  0.43775933245E+02  0.00000000000E+00 0.  1.
          4   -1    0    0  501    0  0.00000000000E+00 -0.00000000000E+00 -0.27251940378E+03  0.27251940378E+03  0.00000000000E+00 0. -1.
         25    2    1    2    0    0  0.54484502142E+01 -0.65743168521E+01 -0.11540641293E+03  0.17039982232E+03  0.12507818375E+03 0.  0.
         23    2    1    2    0    0 -0.54484502142E+01  0.65743168521E+01 -0.11333705761E+03  0.14589551471E+03  0.91472975966E+02 0.  0.
          5    1    3    3  502    0 -0.39197324746E+02  0.16196231583E+02  0.20119429952E+01  0.42664604760E+02  0.41800000000E+01 0. -1.
         -5    1    3    3    0  502  0.44645774960E+02 -0.22770548435E+02 -0.11741835592E+03  0.12773521756E+03  0.41800000000E+01 0. -1.
        -11    1    4    4    0    0 -0.37999151345E+02 -0.16777226601E+01 -0.13173564484E+02  0.40252863966E+02  0.00000000000E+00 0.  1.
         11    1    4    4    0    0  0.32550701131E+02  0.82520395123E+01 -0.10016349313E+03  0.10564265074E+03  0.00000000000E+00 0. -1.
</event>
<event>
 8    1  0.3654190E-009  0.9025891E+02  0.7561462E-02  0.1302226E+00
          1   -1    0    0  501    0  0.00000000000E+00  0.00000000000E+00  0.20542184023E+03  0.20542184023E+03  0.00000000000E+00 0. -1.
         -1   -1    0    0    0  501 -0.00000000000E+00 -0.00000000000E+00 -0.67686363907E+02  0.67686363907E+02  0.00000000000E+00 0.  1.
         25    2    1    2    0    0 -0.35399766368E+02 -0.15615118780E+02  0.46069930036E+02  0.13880542818E+03  0.12509009971E+03 0.  0.
         23    2    1    2    0    0  0.35399766368E+02  0.15615118780E+02  0.91665546287E+02  0.13430277595E+03  0.90209134013E+02 0.  0.
          5    1    3    3  502    0 -0.45012704667E+02  0.22546068520E+02  0.74546172585E+02  0.90050391639E+02  0.41800000000E+01 0.  1.
         -5    1    3    3    0  502  0.96129382989E+01 -0.38161187300E+02 -0.28476242549E+02  0.48755036546E+02  0.41800000000E+01 0.  1.
        -11    1    4    4    0    0  0.45709672448E+02  0.42014406730E+02  0.84876483353E+02  0.10515988757E+03  0.00000000000E+00 0. -1.
         11    1    4    4    0    0 -0.10309906079E+02 -0.26399287950E+02  0.67890629343E+01  0.29142888380E+02  0.00000000000E+00 0.  1.
</event>
<event>
 8    1  0.3654190E-009  0.1088428E+03  0.7561462E-02  0.1262728E+00
          1   -1    0    0  501    0  0.00000000000E+00  0.00000000000E+00  0.25234094817E+03  0.25234094817E+03  0.00000000000E+00 0. -1.
         -1   -1    0    0    0  501 -0.00000000000E+00 -0.00000000000E+00 -0.77674858603E+02  0.77674858603E+02  0.00000000000E+00 0.  1.
         25    2    1    2    0    0  0.48027458721E+02  0.55207388509E+02  0.38213879198E+02  0.14987687928E+03  0.12509310869E+03 0.  0.
         23    2    1    2    0    0 -0.48027458721E+02 -0.55207388509E+02  0.13645221037E+03  0.18013892749E+03  0.92067013342E+02 0.  0.
          5    1    3    3  502    0  0.38711142045E+01 -0.34943938618E+02  0.34351566778E+02  0.49331196127E+02  0.41800000000E+01 0.  1.
         -5    1    3    3    0  502  0.44156344516E+02  0.90151327127E+02  0.38623124210E+01  0.10054568315E+03  0.41800000000E+01 0.  1.
        -11    1    4    4    0    0 -0.22904173081E+02 -0.20282952137E+01  0.11540203550E+03  0.11767049301E+03  0.00000000000E+00 0. -1.
         11    1    4    4    0    0 -0.25123285640E+02 -0.53179093296E+02  0.21050174866E+02  0.62468434485E+02  0.00000000000E+00 0.  1.
</event>
<event>
 8    1  0.3654190E-009  0.9417303E+02  0.7561462E-02  0.1293050E+00
          1   -1    0    0  501    0  0.00000000000E+00  0.00000000000E+00  0.29512389523E+03  0.29512389523E+03  0.00000000000E+00 0. -1.
         -1   -1    0    0    0  501 -0.00000000000E+00 -0.00000000000E+00 -0.42706812963E+02  0.42706812963E+02  0.00000000000E+00 0.  1.
         25    2    1    2    0    0 -0.35279101626E+02  0.74454729814E+01  0.18328610290E+03  0.22481461560E+03  0.12509103002E+03 0.  0.
         23    2    1    2    0    0  0.35279101626E+02 -0.74454729814E+01  0.69130979373E+02  0.11301609260E+03  0.81813781220E+02 0.  0.
          5    1    3    3  502    0 -0.36925703822E+02  0.46606130181E+02  0.30367954711E+02  0.66897862795E+02  0.41800000000E+01 0.  1.
         -5    1    3    3    0  502  0.16466021963E+01 -0.39160657200E+02  0.15291814819E+03  0.15791675280E+03  0.41800000000E+01 0.  1.
        -11    1    4    4    0    0 -0.13673275827E+02  0.26452395984E+02  0.20731435121E+02  0.36283331260E+02  0.00000000000E+00 0. -1.
         11    1    4    4    0    0  0.48952377453E+02 -0.33897868966E+02  0.48399544252E+02  0.76732761338E+02  0.00000000000E+00 0.  1.
</event>
<event>
 8    1  0.3654190E-009  0.2203714E+03  0.7561462E-02  0.1133606E+00
         -1   -1    0    0    0  501 -0.00000000000E+00  0.00000000000E+00  0.70422866661E+02  0.70422866661E+02  0.00000000000E+00 0.  1.
          1   -1    0    0  501    0  0.00000000000E+00 -0.00000000000E+00 -0.92376877232E+03  0.92376877232E+03  0.00000000000E+00 0. -1.
         25    2    1    2    0    0  0.18777460454E+03 -0.68753437468E+02 -0.66212769416E+03  0.70288427319E+03  0.12508749280E+03 0.  0.
         23    2    1    2    0    0 -0.18777460454E+03  0.68753437468E+02 -0.19121821150E+03  0.29130736579E+03  0.91155031031E+02 0.  0.
          5    1    3    3  502    0  0.77016778369E+02 -0.79974200641E+02 -0.21408925209E+03  0.24120351818E+03  0.41800000000E+01 0. -1.
         -5    1    3    3    0  502  0.11075782617E+03  0.11220763173E+02 -0.44803844207E+03  0.46168075502E+03  0.41800000000E+01 0. -1.
        -11    1    4    4    0    0 -0.16080172729E+03  0.19372393057E+02 -0.12622725137E+03  0.20534313746E+03  0.00000000000E+00 0.  1.
         11    1    4    4    0    0 -0.26972877242E+02  0.49381044411E+02 -0.64990960131E+02  0.85964228331E+02  0.00000000000E+00 0. -1.
</event>
<event>
 8    1  0.3654190E-009  0.1808606E+03  0.7561462E-02  0.1166973E+00
          2   -1    0    0  501    0  0.00000000000E+00  0.00000000000E+00  0.55875083417E+03  0.55875083417E+03  0.00000000000E+00 0. -1.
         -2   -1    0    0    0  501 -0.00000000000E+00 -0.00000000000E+00 -0.71591475532E+02  0.71591475532E+02  0.00000000000E+00 0.  1.
         25    2    1    2    0    0 -0.15239588898E+03 -0.35418647357E+02  0.16090617081E+03  0.25694478752E+03  0.12510331918E+03 0.  0.
         23    2    1    2    0    0  0.15239588898E+03  0.35418647357E+02  0.32625318782E+03  0.37339752218E+03  0.92225698397E+02 0.  0.
          5    1    3    3  502    0 -0.15474090100E+03 -0.58274164656E+02  0.16454639526E+03  0.23331012259E+03  0.41800000000E+01 0. -1.
         -5    1    3    3    0  502  0.23450120213E+01  0.22855517300E+02 -0.36402244469E+01  0.23634664932E+02  0.41800000000E+01 0. -1.
        -11    1    4    4    0    0  0.69901758760E+02  0.54089402326E+02  0.10945909627E+03  0.14068835445E+03  0.00000000000E+00 0.  1.
         11    1    4    4    0    0  0.82494130224E+02 -0.18670754969E+02  0.21679409155E+03  0.23270916773E+03  0.00000000000E+00 0. -1.
</event>
<event>
 8    1  0.3654190E-009  0.1574679E+03  0.7561462E-02  0.1191586E+00
          1   -1    0    0  501    0  0.00000000000E+00  0.00000000000E+00  0.34117975297E+03  0.34117975297E+03  0.00000000000E+00 0. -1.
         -1   -1    0    0    0  501 -0.00000000000E+00 -0.00000000000E+00 -0.94320131885E+02  0.94320131885E+02  0.00000000000E+00 0.  1.
         25    2    1    2    0    0  0.11222540043E+03  0.42168642410E+02  0.35420348783E+02  0.17684596108E+03  0.12508860035E+03 0.  0.
         23    2    1    2    0    0 -0.11222540043E+03 -0.42168642410E+02  0.21143927230E+03  0.25865392377E+03  0.88445189278E+02 0.  0.
          5    1    3    3  502    0  0.22058445238E+02 -0.40796495968E+02  0.27297009086E+02  0.53977108061E+02  0.41800000000E+01 0.  1.
         -5    1    3    3    0  502  0.90166955193E+02  0.82965138378E+02  0.81233396975E+01  0.12286885302E+03  0.41800000000E+01 0.  1.
        -11    1    4    4    0    0 -0.10424472677E+03 -0.14278459692E+01  0.12505798416E+03  0.16281431511E+03  0.00000000000E+00 0.  1.
         11    1    4    4    0    0 -0.79806736592E+01 -0.40740796441E+02  0.86381288137E+02  0.95839608653E+02  0.00000000000E+00 0. -1.
</event>
<event>
 8    1  0.3654190E-009  0.1261439E+03  0.7561462E-02  0.1233292E+00
         -2   -1    0    0    0  501 -0.00000000000E+00  0.00000000000E+00  0.91738038838E+02  0.91738038838E+02  0.00000000000E+00 0.  1.
          2   -1    0    0  501    0  0.00000000000E+00 -0.00000000000E+00 -0.25500181191E+03  0.25500181191E+03  0.00000000000E+00 0. -1.
         25    2    1    2    0    0 -0.50103733926E+02 -0.82510636414E+02 -0.34897758607E+02  0.16181886994E+03  0.12509637820E+03 0.  0.
         23    2    1    2    0    0  0.50103733926E+02  0.82510636414E+02 -0.12836601447E+03  0.18492098081E+03  0.91649038174E+02 0.  0.
          5    1    3    3  502    0  0.15896096592E+01 -0.71425434387E+02  0.30351470180E+02  0.77735472458E+02  0.41800000000E+01 0. -1.
         -5    1    3    3    0  502 -0.51693343585E+02 -0.11085202027E+02 -0.65249228787E+02  0.84083397483E+02  0.41800000000E+01 0. -1.
        -11    1    4    4    0    0  0.77149103472E+01  0.84883917573E+02 -0.59240691294E+02  0.10379912721E+03  0.00000000000E+00 0.  1.
         11    1    4    4    0    0  0.42388823579E+02 -0.23732811587E+01 -0.69125323171E+02  0.81121853599E+02  0.00000000000E+00 0. -1.
</event>
<event>
 8    1  0.3654190E-009  0.8254524E+02  0.7561462E-02  0.1321980E+00
         -4   -1    0    0    0  501 -0.00000000000E+00  0.00000000000E+00  0.39810340295E+03  0.39810340295E+03  0.00000000000E+00 0.  1.
          4   -1    0    0  501    0  0.00000000000E+00 -0.00000000000E+00 -0.30613459737E+02  0.30613459737E+02  0.00000000000E+00 0. -1.
         25    2    1    2    0    0  0.80699964852E+00  0.18966473389E+02  0.23165230889E+03  0.26395191546E+03  0.12508974019E+03 0.  0.
         23    2    1    2    0    0 -0.80699964852E+00 -0.18966473389E+02  0.13583763432E+03  0.16476494723E+03  0.91297571573E+02 0.  0.
          5    1    3    3  502    0  0.12368316081E+02 -0.24136630996E+02 -0.56632989955E+00  0.27447136974E+02  0.41800000000E+01 0.  1.
         -5    1    3    3    0  502 -0.11561316433E+02  0.43103104385E+02  0.23221863879E+03  0.23650477849E+03  0.41800000000E+01 0.  1.
        -11    1    4    4    0    0  0.34185724676E+02  0.20674266103E+02  0.50783705189E+02  0.64614810711E+02  0.00000000000E+00 0. -1.
         11    1    4    4    0    0 -0.34992724324E+02 -0.39640739492E+02  0.85053929134E+02  0.10015013652E+03  0.00000000000E+00 0.  1.
</event>
<event>
 8    1  0.3654190E-009  0.1455102E+03  0.7561462E-02  0.1206101E+00
         -2   -1    0    0    0  501 -0.00000000000E+00  0.00000000000E+00  0.36179016049E+03  0.36179016049E+03  0.00000000000E+00 0.  1.
          2   -1    0    0  501    0  0.00000000000E+00 -0.00000000000E+00 -0.74598871309E+02  0.74598871309E+02  0.00000000000E+00 0. -1.
         25    2    1    2    0    0  0.71418488829E+02  0.95057195815E+02  0.19374804385E+03  0.25946688291E+03  0.12509311655E+03 0.  0.
         23    2    1    2    0    0 -0.71418488829E+02 -0.95057195815E+02  0.93443245331E+02  0.17692214889E+03  0.91833194687E+02 0.  0.
          5    1    3    3  502    0  0.98832907440E+02  0.36047633900E+02  0.13871228448E+03  0.17414346318E+03  0.41800000000E+01 0.  1.
         -5    1    3    3    0  502 -0.27414418611E+02  0.59009561915E+02  0.55035759375E+02  0.85323419735E+02  0.41800000000E+01 0.  1.
        -11    1    4    4    0    0 -0.10038452879E+02 -0.41865890777E+01 -0.17708660343E+02  0.20782076784E+02  0.00000000000E+00 0. -1.
         11    1    4    4    0    0 -0.61380035949E+02 -0.90870606737E+02  0.11115190567E+03  0.15614007210E+03  0.00000000000E+00 0.  1.
</event>
<event>
 8    1  0.3654190E-009  0.1463563E+03  0.7561462E-02  0.1205023E+00
         -1   -1    0    0    0  501 -0.00000000000E+00  0.00000000000E+00  0.29143464060E+03  0.29143464060E+03  0.00000000000E+00 0.  1.
          1   -1    0    0  501    0  0.00000000000E+00 -0.00000000000E+00 -0.92237062632E+02  0.92237062632E+02  0.00000000000E+00 0. -1.
         25    2    1    2    0    0 -0.58925764643E+02 -0.10755835495E+03  0.12379428760E+03  0.21450970753E+03  0.12509333924E+03 0.  0.
         23    2    1    2    0    0  0.58925764643E+02  0.10755835495E+03  0.75403290367E+02  0.16916199570E+03  0.88820488246E+02 0.  0.
          5    1    3    3  502    0 -0.22891789996E+02  0.95848688524E+01 -0.15002239717E+02  0.29299204028E+02  0.41800000000E+01 0. -1.
         -5    1    3    3    0  502 -0.36033974647E+02 -0.11714322381E+03  0.13879652732E+03  0.18521050350E+03  0.41800000000E+01 0. -1.
        -11    1    4    4    0    0 -0.17368596912E+02  0.37527619871E+02  0.50696566442E+00  0.41355137844E+02  0.00000000000E+00 0. -1.
         11    1    4    4    0    0  0.76294361556E+02  0.70030735082E+02  0.74896324702E+02  0.12780685786E+03  0.00000000000E+00 0.  1.
</event>
<event>
 8    1  0.3654190E-009  0.9863700E+02  0.7561462E-02  0.1283189E+00
          2   -1    0    0  501    0  0.00000000000E+00  0.00000000000E+00  0.48803383756E+02  0.48803383756E+02  0.00000000000E+00 0. -1.
         -2   -1    0    0    0  501 -0.00000000000E+00 -0.00000000000E+00 -0.24313152202E+03  0.24313152202E+03  0.00000000000E+00 0.  1.
         25    2    1    2    0    0  0.99300064315E+01 -0.45815248909E+01 -0.12682199427E+03  0.17846475808E+03  0.12508499609E+03 0.  0.
         23    2    1    2    0    0 -0.99300064315E+01  0.45815248909E+01 -0.67506143993E+02  0.11347014770E+03  0.90547222727E+02 0.  0.
          5    1    3    3  502    0  0.13082805029E+02  0.49988169943E+02 -0.10920219199E+03  0.12088245554E+03  0.41800000000E+01 0.  1.
         -5    1    3    3    0  502 -0.31527985977E+01 -0.54569694834E+02 -0.17619802278E+02  0.57582302538E+02  0.41800000000E+01 0.  1.
        -11    1    4    4    0    0  0.39993882886E+02  0.71287855643E+01 -0.23889518352E+02  0.47127904038E+02  0.00000000000E+00 0. -1.
         11    1    4    4    0    0 -0.49923889317E+02 -0.25472606733E+01 -0.43616625641E+02  0.66342243660E+02  0.00000000000E+00 0.  1.
</event>
<event>
 8    1  0.3654190E-009  0.8379076E+02  0.7561462E-02  0.1318625E+00
          2   -1    0    0  501    0  0.00000000000E+00  0.00000000000E+00  0.68826435916E+03  0.68826435916E+03  0.00000000000E+00 0. -1.
         -2   -1    0    0    0  501 -0.00000000000E+00 -0.00000000000E+00 -0.27152919401E+02  0.27152919401E+02  0.00000000000E+00 0.  1.
         25    2    1    2    0    0  0.38900694801E+01 -0.58363483185E+02  0.52314499382E+03  0.54106324040E+03  0.12508923511E+03 0.  0.
         23    2    1    2    0    0 -0.38900694801E+01  0.58363483185E+02  0.13796644594E+03  0.17435403816E+03  0.89124416453E+02 0.  0.
          5    1    3    3  502    0  0.97905905794E+01 -0.25094498118E+02  0.49798268587E+03  0.49872819985E+03  0.41800000000E+01 0. -1.
         -5    1    3    3    0  502 -0.59005210993E+01 -0.33268985068E+02  0.25162307946E+02  0.42335040543E+02  0.41800000000E+01 0. -1.
        -11    1    4    4    0    0  0.39109640814E+02  0.77616535277E+01  0.58488108336E+02  0.70786058562E+02  0.00000000000E+00 0.  1.
         11    1    4    4    0    0 -0.42999710294E+02  0.50601829658E+02  0.79478337601E+02  0.10356797960E+03  0.00000000000E+00 0. -1.
</event>
<event>
 8    1  0.3654190E-009  0.5662385E+02  0.7561462E-02  0.1412572E+00
         -2   -1    0    0    0  501 -0.00000000000E+00  0.00000000000E+00  0.98184379787E+02  0.98184379787E+02  0.00000000000E+00 0.  1.
          2   -1    0    0  501    0  0.00000000000E+00 -0.00000000000E+00 -0.16870013294E+03  0.16870013294E+03  0.00000000000E+00 0. -1.
         25    2    1    2    0    0 -0.24096953996E+02  0.19195214533E+02  0.25610313419E+02  0.13134735230E+03  0.12508844611E+03 0.  0.
         23    2    1    2    0    0  0.24096953996E+02 -0.19195214533E+02 -0.96126066574E+02  0.13553716043E+03  0.90448779589E+02 0.  0.
          5    1    3    3  502    0 -0.30706463679E+02  0.34458856798E+02 -0.41420976898E+02  0.62156813389E+02  0.41800000000E+01 0.  1.
         -5    1    3    3    0  502  0.66095096832E+01 -0.15263642264E+02  0.67031290317E+02  0.69190538912E+02  0.41800000000E+01 0.  1.
        -11    1    4    4    0    0 -0.71364884640E+01 -0.17006507144E+02  0.12636941431E+02  0.22357169802E+02  0.00000000000E+00 0.  1.
         11    1    4    4    0    0  0.31233442460E+02 -0.21887073892E+01 -0.10876300800E+03  0.11317999063E+03  0.00000000000E+00 0. -1.
</event>
<event>
 8    1  0.3654190E-009  0.1245937E+03  0.7561462E-02  0.1235706E+00
          2   -1    0    0  501    0  0.00000000000E+00  0.00000000000E+00  0.91482266884E+03  0.91482266884E+03  0.00000000000E+00 0. -1.
         -2   -1    0    0    0  501 -0.00000000000E+00 -0.00000000000E+00 -0.21657767249E+02  0.21657767249E+02  0.00000000000E+00 0.  1.
         25    2    1    2    0    0 -0.78814507206E+02 -0.24033541974E+02  0.36564580589E+03  0.39513847552E+03  0.12509285265E+03 0.  0.
         23    2    1    2    0    0  0.78814507206E+02  0.24033541974E+02  0.52751909571E+03  0.54134196058E+03  0.89360977270E+02 0.  0.
          5    1    3    3  502    0 -0.10470530633E+03  0.50511412214E+01  0.21142302610E+03  0.23602093883E+03  0.41800000000E+01 0. -1.
         -5    1    3    3    0  502  0.25890799121E+02 -0.29084683195E+02  0.15422277979E+03  0.15911753669E+03  0.41800000000E+01 0. -1.
        -11    1    4    4    0    0  0.71774314145E+02  0.43832879820E+02  0.49832320696E+03  0.50537005463E+03  0.00000000000E+00 0. -1.
         11    1    4    4    0    0  0.70401930616E+01 -0.19799337846E+02  0.29195888749E+02  0.35971905945E+02  0.00000000000E+00 0.  1.
</event>
<event>
 8    1  0.3654190E-009  0.1023406E+03  0.7561462E-02  0.1275450E+00
          2   -1    0    0  501    0  0.00000000000E+00  0.00000000000E+00  0.14323556256E+04  0.14323556256E+04  0.00000000000E+00 0.  1.
         -2   -1    0    0    0  501 -0.00000000000E+00 -0.00000000000E+00 -0.99834639154E+01  0.99834639154E+01  0.00000000000E+00 0. -1.
         25    2    1    2    0    0 -0.22055772501E+01  0.19993187878E+02  0.10880537337E+04  0.10954054431E+04  0.12509022835E+03 0.  0.
         23    2    1    2    0    0  0.22055772501E+01 -0.19993187878E+02  0.33431842797E+03  0.34693364640E+03  0.90496141300E+02 0.  0.
          5    1    3    3  502    0 -0.54195696008E+02  0.37105176932E+02  0.42290176313E+03  0.42799222105E+03  0.41800000000E+01 0.  1.
         -5    1    3    3    0  502  0.51990118757E+02 -0.17111989054E+02  0.66515197062E+03  0.66741322210E+03  0.41800000000E+01 0.  1.
        -11    1    4    4    0    0  0.41789651870E+02 -0.74343731712E+01  0.24214243281E+03  0.24583450261E+03  0.00000000000E+00 0.  1.
         11    1    4    4    0    0 -0.39584074620E+02 -0.12558814706E+02  0.92175995164E+02  0.10109914379E+03  0.00000000000E+00 0. -1.
</event>
<event>
 8    1  0.3654190E-009  0.3788143E+03  0.7561462E-02  0.1051373E+00
          2   -1    0    0  501    0  0.00000000000E+00  0.00000000000E+00  0.19077878970E+04  0.19077878970E+04  0.00000000000E+00 0. -1.
         -2   -1    0    0    0  501 -0.00000000000E+00 -0.00000000000E+00 -0.87673696119E+02  0.87673696119E+02  0.00000000000E+00 0.  1.
         25    2    1    2    0    0 -0.53831416813E+02 -0.36941260147E+03  0.12402764522E+04  0.13012672239E+04  0.12508884201E+03 0.  0.
         23    2    1    2    0    0  0.53831416813E+02  0.36941260147E+03  0.57983774869E+03  0.69419436929E+03  0.79564539777E+02 0.  0.
          5    1    3    3  502    0 -0.55284796223E+01 -0.19169407422E+03  0.43882491515E+03  0.47891748844E+03  0.41800000000E+01 0.  1.
         -5    1    3    3    0  502 -0.48302937190E+02 -0.17771852725E+03  0.80145153708E+03  0.82234973542E+03  0.41800000000E+01 0.  1.
        -11    1    4    4    0    0  0.80056248020E+01  0.28847242610E+03  0.44534565382E+03  0.53067238672E+03  0.00000000000E+00 0.  1.
         11    1    4    4    0    0  0.45825792011E+02  0.80940175362E+02  0.13449209487E+03  0.16352198257E+03  0.00000000000E+00 0. -1.
</event>
<event>
 8    1  0.3654190E-009  0.1524673E+03  0.7561462E-02  0.1197474E+00
          2   -1    0    0  501    0  0.00000000000E+00  0.00000000000E+00  0.20058762098E+04  0.20058762098E+04  0.00000000000E+00 0. -1.
         -2   -1    0    0    0  501 -0.00000000000E+00 -0.00000000000E+00 -0.12592841803E+02  0.12592841803E+02  0.00000000000E+00 0.  1.
         25    2    1    2    0    0 -0.79659090572E+02 -0.80902927304E+02  0.12404478601E+04  0.12518993608E+04  0.12510100593E+03 0.  0.
         23    2    1    2    0    0  0.79659090572E+02  0.80902927304E+02  0.75283550794E+03  0.76656969081E+03  0.89313685917E+02 0.  0.
          5    1    3    3  502    0 -0.74747744127E+01 -0.88856833052E+02  0.50180581409E+03  0.50968417327E+03  0.41800000000E+01 0. -1.
         -5    1    3    3    0  502 -0.72184316159E+02  0.79539057483E+01  0.73864204597E+03  0.74221518752E+03  0.41800000000E+01 0. -1.
        -11    1    4    4    0    0  0.93417378365E+02  0.87202147445E+02  0.70171868132E+03  0.71326021115E+03  0.00000000000E+00 0. -1.
         11    1    4    4    0    0 -0.13758287794E+02 -0.62992201406E+01  0.51116826619E+02  0.53309479654E+02  0.00000000000E+00 0.  1.
</event>
<event>
 8    1  0.3654190E-009  0.2861306E+03  0.7561462E-02  0.1092387E+00
         -1   -1    0    0    0  501 -0.00000000000E+00  0.00000000000E+00  0.10715009901E+03  0.10715009901E+03  0.00000000000E+00 0.  1.
          1   -1    0    0  501    0  0.00000000000E+00 -0.00000000000E+00 -0.79899055483E+03  0.79899055483E+03  0.00000000000E+00 0. -1.
         25    2    1    2    0    0  0.25198408479E+03 -0.96915106983E+02 -0.39344255247E+03  0.49328556862E+03  0.12508034683E+03 0.  0.
         23    2    1    2    0    0 -0.25198408479E+03  0.96915106983E+02 -0.29839790335E+03  0.41285508522E+03  0.92301114372E+02 0.  0.
          5    1    3    3  502    0  0.25957952245E+02  0.28662227560E+02 -0.48462578397E+02  0.62140425476E+02  0.41800000000E+01 0.  1.
         -5    1    3    3    0  502  0.22602613255E+03 -0.12557733454E+03 -0.34497997408E+03  0.43114514315E+03  0.41800000000E+01 0.  1.
        -11    1    4    4    0    0 -0.35254757033E+02 -0.43909158529E+01 -0.76649777892E+01  0.36344599599E+02  0.00000000000E+00 0.  1.
         11    1    4    4    0    0 -0.21672932776E+03  0.10130602284E+03 -0.29073292556E+03  0.37651048562E+03  0.00000000000E+00 0. -1.
</event>
<event>
 8    1  0.3654190E-009  0.7446423E+02  0.7561462E-02  0.1345538E+00
         -1   -1    0    0    0  501 -0.00000000000E+00  0.00000000000E+00  0.55665520858E+02  0.55665520858E+02  0.00000000000E+00 0.  1.
          1   -1    0    0  501    0  0.00000000000E+00 -0.00000000000E+00 -0.25814467188E+03  0.25814467188E+03  0.00000000000E+00 0. -1.
         25    2    1    2    0    0 -0.10273215662E+02  0.11944482142E+02 -0.17558463765E+03  0.21616199888E+03  0.12509130732E+03 0.  0.
         23    2    1    2    0    0  0.10273215662E+02 -0.11944482142E+02 -0.26894513370E+02  0.97648193856E+02  0.92539965962E+02 0.  0.
          5    1    3    3  502    0 -0.16378284779E+02 -0.20251109488E+02 -0.18080335188E+03  0.18271748711E+03  0.41800000000E+01 0. -1.
         -5    1    3    3    0  502  0.61050691167E+01  0.32195591630E+02  0.52187142233E+01  0.33444511769E+02  0.41800000000E+01 0. -1.
        -11    1    4    4    0    0 -0.38991557360E+02 -0.97970221799E+01  0.24286222320E+01  0.40276809641E+02  0.00000000000E+00 0.  1.
         11    1    4    4    0    0  0.49264773022E+02 -0.21474599620E+01 -0.29323135602E+02  0.57371384215E+02  0.00000000000E+00 0. -1.
</event>
<event>
 8    1  0.3654190E-009  0.1148091E+03  0.7561462E-02  0.1251915E+00
         -2   -1    0    0    0  501 -0.00000000000E+00  0.00000000000E+00  0.11071162827E+03  0.11071162827E+03  0.00000000000E+00 0.  1.
          2   -1    0    0  501    0  0.00000000000E+00 -0.00000000000E+00 -0.13877847864E+03  0.13877847864E+03  0.00000000000E+00 0. -1.
         25    2    1    2    0    0  0.57134793766E+02 -0.19903897927E+02 -0.12435117499E+02  0.13950537055E+03  0.12508623606E+03 0.  0.
         23    2    1    2    0    0 -0.57134793766E+02  0.19903897927E+02 -0.15631732872E+02  0.10998473636E+03  0.90508239113E+02 0.  0.
          5    1    3    3  502    0  0.51062887967E+02  0.43987699354E+02 -0.28372264303E+02  0.73244754103E+02  0.41800000000E+01 0.  1.
         -5    1    3    3    0  502  0.60719057993E+01 -0.63891597281E+02  0.15937146804E+02  0.66260616443E+02  0.41800000000E+01 0.  1.
        -11    1    4    4    0    0  0.43860654134E+01 -0.22586539491E+02  0.16796686249E+02  0.28487155087E+02  0.00000000000E+00 0.  1.
         11    1    4    4    0    0 -0.61520859179E+02  0.42490437418E+02 -0.32428419121E+02  0.81497581270E+02  0.00000000000E+00 0. -1.
</event>
<event>
 8    1  0.3654190E-009  0.1532248E+03  0.7561462E-02  0.1196566E+00
          1   -1    0    0  501    0  0.00000000000E+00  0.00000000000E+00  0.28192906636E+02  0.28192906636E+02  0.00000000000E+00 0. -1.
         -1   -1    0    0    0  501 -0.00000000000E+00 -0.00000000000E+00 -0.11522927063E+04  0.11522927063E+04  0.00000000000E+00 0.  1.
         25    2    1    2    0    0 -0.10067192854E+03 -0.97003130041E+02 -0.48994289594E+03  0.52462899555E+03  0.12508835779E+03 0.  0.
         23    2    1    2    0    0  0.10067192854E+03  0.97003130041E+02 -0.63415690371E+03  0.65585661738E+03  0.91915611266E+02 0.  0.
          5    1    3    3  502    0  0.24896146879E+00 -0.84263509932E+01 -0.24567092813E+03  0.24585105796E+03  0.41800000000E+01 0. -1.
         -5    1    3    3    0  502 -0.10092089001E+03 -0.88576779047E+02 -0.24427196781E+03  0.27877793758E+03  0.41800000000E+01 0. -1.
        -11    1    4    4    0    0  0.31129907411E+02 -0.12029924190E+02 -0.77595551079E+02  0.84468099060E+02  0.00000000000E+00 0. -1.
         11    1    4    4    0    0  0.69542021133E+02  0.10903305423E+03 -0.55656135263E+03  0.57138851832E+03  0.00000000000E+00 0.  1.
</event>
<event>
 8    1  0.3654190E-009  0.1190819E+03  0.7561462E-02  0.1244619E+00
         -2   -1    0    0    0  501 -0.00000000000E+00  0.00000000000E+00  0.18829636455E+03  0.18829636455E+03  0.00000000000E+00 0.  1.
          2   -1    0    0  501    0  0.00000000000E+00 -0.00000000000E+00 -0.99624726682E+02  0.99624726682E+02  0.00000000000E+00 0. -1.
         25    2    1    2    0    0  0.15725632046E+02 -0.50406802845E+02  0.11793814691E+03  0.17984894957E+03  0.12509235344E+03 0.  0.
         23    2    1    2    0    0 -0.15725632046E+02  0.50406802845E+02 -0.29266509044E+02  0.10807214166E+03  0.89637703981E+02 0.  0.
          5    1    3    3  502    0 -0.26622774602E+02 -0.78731289647E+02  0.85476023326E+02  0.11929380143E+03  0.41800000000E+01 0.  1.
         -5    1    3    3    0  502  0.42348406648E+02  0.28324486802E+02  0.32462123584E+02  0.60555148136E+02  0.41800000000E+01 0.  1.
        -11    1    4    4    0    0 -0.26582772822E+02  0.73582155846E+02 -0.19100613502E+02  0.80534532382E+02  0.00000000000E+00 0.  1.
         11    1    4    4    0    0  0.10857140777E+02 -0.23175353001E+02 -0.10165895542E+02  0.27537609278E+02  0.00000000000E+00 0. -1.
</event>
<event>
 8    1  0.3654190E-009  0.1097113E+03  0.7561462E-02  0.1261105E+00
          2   -1    0    0  501    0  0.00000000000E+00  0.00000000000E+00  0.29716425660E+03  0.29716425660E+03  0.00000000000E+00 0. -1.
         -2   -1    0    0    0  501 -0.00000000000E+00 -0.00000000000E+00 -0.54180775102E+02  0.54180775102E+02  0.00000000000E+00 0.  1.
         25    2    1    2    0    0  0.13294418253E+02 -0.62934155386E+02  0.10995405251E+03  0.17853812385E+03  0.12509403877E+03 0.  0.
         23    2    1    2    0    0 -0.13294418253E+02  0.62934155386E+02  0.13302942899E+03  0.17280690785E+03  0.89598822272E+02 0.  0.
          5    1    3    3  502    0  0.68575959389E+02 -0.33590869084E+02  0.47522616088E+02  0.90038214842E+02  0.41800000000E+01 0. -1.
         -5    1    3    3    0  502 -0.55281541136E+02 -0.29343286302E+02  0.62431436422E+02  0.88499909011E+02  0.41800000000E+01 0. -1.
        -11    1    4    4    0    0  0.15208628610E+02  0.56253550026E+01 -0.78896857061E+01  0.18033140149E+02  0.00000000000E+00 0.  1.
         11    1    4    4    0    0 -0.28503046863E+02  0.57308800384E+02  0.14091911470E+03  0.15477376770E+03  0.00000000000E+00 0. -1.
</event>
<event>
 8    1  0.3654190E-009  0.1526060E+03  0.7561462E-02  0.1197307E+00
         -1   -1    0    0    0  501 -0.00000000000E+00  0.00000000000E+00  0.22948378544E+03  0.22948378544E+03  0.00000000000E+00 0.  1.
          1   -1    0    0  501    0  0.00000000000E+00 -0.00000000000E+00 -0.12948236815E+03  0.12948236815E+03  0.00000000000E+00 0. -1.
         25    2    1    2    0    0  0.12693955007E+03 -0.47372906504E+02  0.39857572904E+02  0.18866321440E+03  0.12508933091E+03 0.  0.
         23    2    1    2    0    0 -0.12693955007E+03  0.47372906504E+02  0.60143844389E+02  0.17030293919E+03  0.83832973433E+02 0.  0.
          5    1    3    3  502    0  0.13219764910E+03 -0.32039521898E+02  0.70858511302E+02  0.15343125632E+03  0.41800000000E+01 0. -1.
         -5    1    3    3    0  502 -0.52580990265E+01 -0.15333384606E+02 -0.31000938398E+02  0.35231958084E+02  0.41800000000E+01 0. -1.
        -11    1    4    4    0    0 -0.70696975629E+02  0.62259451118E+02  0.60799425269E+02  0.11211989890E+03  0.00000000000E+00 0.  1.
         11    1    4    4    0    0 -0.56242574443E+02 -0.14886544614E+02 -0.65558088024E+00  0.58183040285E+02  0.00000000000E+00 0. -1.
</event>
<event>
 8    1  0.3654190E-009  0.1609372E+03  0.7561462E-02  0.1187643E+00
         -2   -1    0    0    0  501 -0.00000000000E+00  0.00000000000E+00  0.58422950941E+02  0.58422950941E+02  0.00000000000E+00 0.  1.
          2   -1    0    0  501    0  0.00000000000E+00 -0.00000000000E+00 -0.57653106417E+03  0.57653106417E+03  0.00000000000E+00 0. -1.
         25    2    1    2    0    0  0.56485000752E+02  0.13478632436E+03 -0.23870941156E+03  0.30657410230E+03  0.12509032133E+03 0.  0.
         23    2    1    2    0    0 -0.56485000752E+02 -0.13478632436E+03 -0.27939870167E+03  0.32837991281E+03  0.91715996968E+02 0.  0.
          5    1    3    3  502    0  0.48244536923E+02  0.58086276995E+02 -0.25512574287E+02  0.79811745782E+02  0.41800000000E+01 0. -1.
         -5    1    3    3    0  502  0.82404638288E+01  0.76700047364E+02 -0.21319683728E+03  0.22676235652E+03  0.41800000000E+01 0. -1.
        -11    1    4    4    0    0 -0.48652149122E+02 -0.17889961269E+02 -0.57256106572E+02  0.77235639884E+02  0.00000000000E+00 0. -1.
         11    1    4    4    0    0 -0.78328516299E+01 -0.11689636309E+03 -0.22214259510E+03  0.25114427293E+03  0.00000000000E+00 0.  1.
</event>
<event>
 8    1  0.3654190E-009  0.1584951E+03  0.7561462E-02  0.1190406E+00
          1   -1    0    0  501    0  0.00000000000E+00  0.00000000000E+00  0.93592865179E+03  0.93592865179E+03  0.00000000000E+00 0. -1.
         -1   -1    0    0    0  501 -0.00000000000E+00 -0.00000000000E+00 -0.28142167664E+02  0.28142167664E+02  0.00000000000E+00 0.  1.
         25    2    1    2    0    0  0.64828238497E+02 -0.97457284128E+02  0.56121383175E+03  0.58677869813E+03  0.12509057873E+03 0.  0.
         23    2    1    2    0    0 -0.64828238497E+02  0.97457284128E+02  0.34657265237E+03  0.37729212133E+03  0.92391118126E+02 0.  0.
          5    1    3    3  502    0 -0.16805600330E+02 -0.85675528222E+02  0.32477713877E+03  0.33633374289E+03  0.41800000000E+01 0. -1.
         -5    1    3    3    0  502  0.81633838827E+02 -0.11781755905E+02  0.23643669298E+03  0.25044495523E+03  0.41800000000E+01 0. -1.
        -11    1    4    4    0    0 -0.87003912306E+02  0.84645519731E+02  0.25868427651E+03  0.28574831528E+03  0.00000000000E+00 0. -1.
         11    1    4    4    0    0  0.22175673809E+02  0.12811764396E+02  0.87888375855E+02  0.91543806051E+02  0.00000000000E+00 0.  1.
</event>
<event>
 8    1  0.3654190E-009  0.1032128E+03  0.7561462E-02  0.1273681E+00
         -2   -1    0    0    0  501 -0.00000000000E+00  0.00000000000E+00  0.39517503257E+02  0.39517503257E+02  0.00000000000E+00 0.  1.
          2   -1    0    0  501    0  0.00000000000E+00 -0.00000000000E+00 -0.36031055294E+03  0.36031055294E+03  0.00000000000E+00 0. -1.
         25    2    1    2    0    0 -0.46535310069E+02 -0.44266613812E+00 -0.23618036604E+03  0.27128511531E+03  0.12509483383E+03 0.  0.
         23    2    1    2    0    0  0.46535310069E+02  0.44266613812E+00 -0.84612683644E+02  0.12854294089E+03  0.84842503392E+02 0.  0.
          5    1    3    3  502    0  0.12552169240E+01 -0.57980165761E+02 -0.92715369304E+02  0.10943896608E+03  0.41800000000E+01 0.  1.
         -5    1    3    3    0  502 -0.47790526993E+02  0.57537499623E+02 -0.14346499673E+03  0.16184614923E+03  0.41800000000E+01 0.  1.
        -11    1    4    4    0    0  0.25796049564E+02 -0.28062103457E+02 -0.85145185679E+02  0.93287836655E+02  0.00000000000E+00 0. -1.
         11    1    4    4    0    0  0.20739260505E+02  0.28504769595E+02  0.53250203436E+00  0.35255104232E+02  0.00000000000E+00 0.  1.
</event>
<event>
 8    1  0.3654190E-009  0.1045098E+03  0.7561462E-02  0.1271088E+00
         -1   -1    0    0    0  501 -0.00000000000E+00  0.00000000000E+00  0.42765239237E+03  0.42765239237E+03  0.00000000000E+00 0.  1.
          1   -1    0    0  501    0  0.00000000000E+00 -0.00000000000E+00 -0.34063420240E+02  0.34063420240E+02  0.00000000000E+00 0. -1.
         25    2    1    2    0    0 -0.27530625426E+02 -0.15835191360E+00  0.30812808509E+03  0.33368988247E+03  0.12509220773E+03 0.  0.
         23    2    1    2    0    0  0.27530625426E+02  0.15835191360E+00  0.85460887049E+02  0.12802593014E+03  0.91263986114E+02 0.  0.
          5    1    3    3  502    0  0.39395362255E+02 -0.22009566932E+02  0.19642448398E+03  0.20158488512E+03  0.41800000000E+01 0.  1.
         -5    1    3    3    0  502 -0.66925987681E+02  0.21851215018E+02  0.11170360111E+03  0.13210499735E+03  0.41800000000E+01 0.  1.
        -11    1    4    4    0    0 -0.14102335213E+02  0.35730446060E+02  0.22239944783E+02  0.44386436870E+02  0.00000000000E+00 0.  1.
         11    1    4    4    0    0  0.41632960639E+02 -0.35572094146E+02  0.63220942266E+02  0.83639493270E+02  0.00000000000E+00 0. -1.
</event>
<event>
 8    1  0.3654190E-009  0.2232033E+03  0.7561462E-02  0.1131517E+00
         -3   -1    0    0    0  501 -0.00000000000E+00  0.00000000000E+00  0.11410942884E+04  0.11410942884E+04  0.00000000000E+00 0. -1.
          3   -1    0    0  501    0  0.00000000000E+00 -0.00000000000E+00 -0.47948961088E+02  0.47948961088E+02  0.00000000000E+00 0.  1.
         25    2    1    2    0    0  0.14238490633E+03 -0.14491519300E+03  0.46559092261E+03  0.52315961260E+03  0.12508876177E+03 0.  0.
         23    2    1    2    0    0 -0.14238490633E+03  0.14491519300E+03  0.62755440475E+03  0.66588363694E+03  0.91118671573E+02 0.  0.
          5    1    3    3  502    0  0.36198915611E+02  0.20592412245E+02  0.78141921687E+02  0.88645593565E+02  0.41800000000E+01 0.  1.
         -5    1    3    3    0  502  0.10618599072E+03 -0.16550760525E+03  0.38744900092E+03  0.43451401903E+03  0.41800000000E+01 0.  1.
        -11    1    4    4    0    0 -0.10512637999E+03  0.76683544899E+02  0.49867457007E+03  0.51537195176E+03  0.00000000000E+00 0. -1.
         11    1    4    4    0    0 -0.37258526341E+02  0.68231648104E+02  0.12887983468E+03  0.15051168518E+03  0.00000000000E+00 0.  1.
</event>
<event>
 8    1  0.3654190E-009  0.1099533E+03  0.7561462E-02  0.1260656E+00
          2   -1    0    0  501    0  0.00000000000E+00  0.00000000000E+00  0.64300275733E+03  0.64300275733E+03  0.00000000000E+00 0. -1.
         -2   -1    0    0    0  501 -0.00000000000E+00 -0.00000000000E+00 -0.52252658545E+02  0.52252658545E+02  0.00000000000E+00 0.  1.
         25    2    1    2    0    0  0.99738735445E+02 -0.26119047037E+02  0.50993816065E+03  0.53508376627E+03  0.12509072416E+03 0.  0.
         23    2    1    2    0    0 -0.99738735445E+02  0.26119047037E+02  0.80811938133E+02  0.16017164960E+03  0.92164895842E+02 0.  0.
          5    1    3    3  502    0  0.36158197939E+02  0.12855252937E-01  0.42113794935E+03  0.42270800824E+03  0.41800000000E+01 0. -1.
         -5    1    3    3    0  502  0.63580537506E+02 -0.26131902290E+02  0.88800211301E+02  0.11237575803E+03  0.41800000000E+01 0. -1.
        -11    1    4    4    0    0 -0.95211456644E+02  0.75319878507E+01  0.21565708067E+02  0.97913390717E+02  0.00000000000E+00 0.  1.
         11    1    4    4    0    0 -0.45272788003E+01  0.18587059186E+02  0.59246230065E+02  0.62258258885E+02  0.00000000000E+00 0. -1.
</event>
<event>
 8    1  0.3654190E-009  0.1136675E+03  0.7561462E-02  0.1253925E+00
          1   -1    0    0  501    0  0.00000000000E+00  0.00000000000E+00  0.31939907040E+03  0.31939907040E+03  0.00000000000E+00 0. -1.
         -1   -1    0    0    0  501 -0.00000000000E+00 -0.00000000000E+00 -0.84139579301E+02  0.84139579301E+02  0.00000000000E+00 0.  1.
         25    2    1    2    0    0 -0.92243102982E+02  0.39022556025E+02  0.37708367291E+02  0.16462412990E+03  0.12509050026E+03 0.  0.
         23    2    1    2    0    0  0.92243102982E+02 -0.39022556025E+02  0.19755112380E+03  0.23891451980E+03  0.89566463189E+02 0.  0.
          5    1    3    3  502    0 -0.11332197197E+02  0.37364719472E+02  0.67660470099E+02  0.78230125710E+02  0.41800000000E+01 0.  1.
         -5    1    3    3    0  502 -0.80910905785E+02  0.16578365527E+01 -0.29952102808E+02  0.86394004187E+02  0.41800000000E+01 0.  1.
        -11    1    4    4    0    0  0.13578738478E+01 -0.12192817806E+02 -0.65355645975E+01  0.13900439994E+02  0.00000000000E+00 0.  1.
         11    1    4    4    0    0  0.90885229134E+02 -0.26829738219E+02  0.20408668840E+03  0.22501407980E+03  0.00000000000E+00 0. -1.
</event>
<event>
 8    1  0.3654190E-009  0.2244670E+03  0.7561462E-02  0.1130596E+00
         -2   -1    0    0    0  501 -0.00000000000E+00  0.00000000000E+00  0.27433885032E+03  0.27433885032E+03  0.00000000000E+00 0. -1.
          2   -1    0    0  501    0  0.00000000000E+00 -0.00000000000E+00 -0.21180310864E+03  0.21180310864E+03  0.00000000000E+00 0.  1.
         25    2    1    2    0    0 -0.19792542967E+03 -0.14047004646E+02 -0.50590733915E+02  0.23995523930E+03  0.12508917003E+03 0.  0.
         23    2    1    2    0    0  0.19792542967E+03  0.14047004646E+02  0.11312647560E+03  0.24618671967E+03  0.91861348838E+02 0.  0.
          5    1    3    3  502    0 -0.15228678861E+03 -0.64763438024E+02 -0.27516525063E+02  0.16781001294E+03  0.41800000000E+01 0.  1.
         -5    1    3    3    0  502 -0.45638641057E+02  0.50716433378E+02 -0.23074208852E+02  0.72145226358E+02  0.41800000000E+01 0.  1.
        -11    1    4    4    0    0  0.11990510172E+03  0.49021338749E+02  0.45930013194E+02  0.13744050052E+03  0.00000000000E+00 0.  1.
         11    1    4    4    0    0  0.78020327946E+02 -0.34974334103E+02  0.67196462405E+02  0.10874621915E+03  0.00000000000E+00 0. -1.
</event>
<event>
 8    1  0.3654190E-009  0.2409593E+03  0.7561462E-02  0.1119155E+00
         -2   -1    0    0    0  501 -0.00000000000E+00  0.00000000000E+00  0.54043862614E+03  0.54043862614E+03  0.00000000000E+00 0.  1.
          2   -1    0    0  501    0  0.00000000000E+00 -0.00000000000E+00 -0.12986310413E+03  0.12986310413E+03  0.00000000000E+00 0. -1.
         25    2    1    2    0    0 -0.11817668918E+03 -0.19794611898E+03  0.11975362741E+03  0.28833597570E+03  0.12509319614E+03 0.  0.
         23    2    1    2    0    0  0.11817668918E+03  0.19794611898E+03  0.29082189459E+03  0.38196575456E+03  0.90399487839E+02 0.  0.
          5    1    3    3  502    0 -0.11709677230E+03 -0.16998129782E+03  0.49077550956E+02  0.21220597093E+03  0.41800000000E+01 0. -1.
         -5    1    3    3    0  502 -0.10799168854E+01 -0.27964821165E+02  0.70676076459E+02  0.76130004774E+02  0.41800000000E+01 0. -1.
        -11    1    4    4    0    0 -0.83025174648E+01  0.57785500408E+02  0.78864265647E+02  0.98120682069E+02  0.00000000000E+00 0. -1.
         11    1    4    4    0    0  0.12647920665E+03  0.14016061857E+03  0.21195762894E+03  0.28384507250E+03  0.00000000000E+00 0.  1.
</event>
<event>
 8    1  0.3654190E-009  0.1711112E+03  0.7561462E-02  0.1176694E+00
         -1   -1    0    0    0  501 -0.00000000000E+00  0.00000000000E+00  0.20392794923E+03  0.20392794923E+03  0.00000000000E+00 0.  1.
          1   -1    0    0  501    0  0.00000000000E+00 -0.00000000000E+00 -0.18261806610E+03  0.18261806610E+03  0.00000000000E+00 0. -1.
         25    2    1    2    0    0  0.15007202113E+03 -0.47803177615E+02 -0.12185519489E+02  0.20150239049E+03  0.12509185093E+03 0.  0.
         23    2    1    2    0    0 -0.15007202113E+03  0.47803177615E+02  0.33495402618E+02  0.18504362485E+03  0.91172615312E+02 0.  0.
          5    1    3    3  502    0  0.44993363905E+01 -0.25035355100E+02 -0.43730947505E+02  0.50762990482E+02  0.41800000000E+01 0.  1.
         -5    1    3    3    0  502  0.14557268474E+03 -0.22767822514E+02  0.31545428016E+02  0.15073940000E+03  0.41800000000E+01 0.  1.
        -11    1    4    4    0    0 -0.13675759964E+03  0.19994729580E+02  0.53594847201E+02  0.14823912411E+03  0.00000000000E+00 0.  1.
         11    1    4    4    0    0 -0.13314421491E+02  0.27808448035E+02 -0.20099444584E+02  0.36804500735E+02  0.00000000000E+00 0. -1.
</event>
<event>
 8    1  0.3654190E-009  0.9617268E+02  0.7561462E-02  0.1288557E+00
         -3   -1    0    0    0  501 -0.00000000000E+00  0.00000000000E+00  0.97439634496E+02  0.97439634496E+02  0.00000000000E+00 0.  1.
          3   -1    0    0  501    0  0.00000000000E+00 -0.00000000000E+00 -0.22328108136E+03  0.22328108136E+03  0.00000000000E+00 0. -1.
         25    2    1    2    0    0 -0.65963720496E+02 -0.10663256065E+02 -0.14867310262E+03  0.20545625852E+03  0.12507463881E+03 0.  0.
         23    2    1    2    0    0  0.65963720496E+02  0.10663256065E+02  0.22831655751E+02  0.11526445733E+03  0.91102651818E+02 0.  0.
          5    1    3    3  502    0 -0.68338825056E+02 -0.20756717629E+02 -0.16829616672E+03  0.18287183618E+03  0.41800000000E+01 0. -1.
         -5    1    3    3    0  502  0.23751045600E+01  0.10093461564E+02  0.19623064099E+02  0.22584422344E+02  0.41800000000E+01 0. -1.
        -11    1    4    4    0    0  0.69719519933E+02  0.39775793768E+02  0.28859228073E+02  0.85298184474E+02  0.00000000000E+00 0. -1.
         11    1    4    4    0    0 -0.37557994374E+01 -0.29112537703E+02 -0.60275723221E+01  0.29966272859E+02  0.00000000000E+00 0.  1.
</event>
<event>
 8    1  0.3654190E-009  0.9315579E+02  0.7561462E-02  0.1295385E+00
         -2   -1    0    0    0  501 -0.00000000000E+00  0.00000000000E+00  0.17144857296E+03  0.17144857296E+03  0.00000000000E+00 0.  1.
          2   -1    0    0  501    0  0.00000000000E+00 -0.00000000000E+00 -0.71794774701E+02  0.71794774701E+02  0.00000000000E+00 0. -1.
         25    2    1    2    0    0  0.19270006763E+02 -0.14003599148E+02  0.63999807955E+02  0.14252080919E+03  0.12509505060E+03 0.  0.
         23    2    1    2    0    0 -0.19270006763E+02  0.14003599148E+02  0.35653990304E+02  0.10072253847E+03  0.91139392041E+02 0.  0.
          5    1    3    3  502    0  0.19963853402E+02  0.42808088374E+02 -0.10665531834E+02  0.48603640215E+02  0.41800000000E+01 0.  1.
         -5    1    3    3    0  502 -0.69384663920E+00 -0.56811687522E+02  0.74665339789E+02  0.93917168974E+02  0.41800000000E+01 0.  1.
        -11    1    4    4    0    0 -0.38664357582E+02  0.35837970792E+02 -0.23765499092E+01  0.52772537244E+02  0.00000000000E+00 0. -1.
         11    1    4    4    0    0  0.19394350819E+02 -0.21834371643E+02  0.38030540213E+02  0.47950001227E+02  0.00000000000E+00 0.  1.
</event>
<event>
 8    1  0.3654190E-009  0.1010520E+03  0.7561462E-02  0.1278099E+00
         -2   -1    0    0    0  501 -0.00000000000E+00  0.00000000000E+00  0.13932720607E+02  0.13932720607E+02  0.00000000000E+00 0.  1.
          2   -1    0    0  501    0  0.00000000000E+00 -0.00000000000E+00 -0.10221964487E+04  0.10221964487E+04  0.00000000000E+00 0. -1.
         25    2    1    2    0    0  0.15528501034E+02 -0.26788609399E+02 -0.73563482541E+03  0.74683689489E+03  0.12509191533E+03 0.  0.
         23    2    1    2    0    0 -0.15528501034E+02  0.26788609399E+02 -0.27262890271E+03  0.28929227444E+03  0.91677355541E+02 0.  0.
          5    1    3    3  502    0 -0.40644553310E+02 -0.28670951767E+02 -0.14170689298E+03  0.15024087030E+03  0.41800000000E+01 0.  1.
         -5    1    3    3    0  502  0.56173054344E+02  0.18823423679E+01 -0.59392793243E+03  0.59659602459E+03  0.41800000000E+01 0.  1.
        -11    1    4    4    0    0  0.16590589715E+02  0.52263914457E+02 -0.13575924224E+03  0.14641494553E+03  0.00000000000E+00 0. -1.
         11    1    4    4    0    0 -0.32119090749E+02 -0.25475305058E+02 -0.13686966047E+03  0.14287732890E+03  0.00000000000E+00 0.  1.
</event>
<event>
 8    1  0.3654190E-009  0.1372251E+03  0.7561462E-02  0.1217112E+00
         -3   -1    0    0    0  501 -0.00000000000E+00  0.00000000000E+00  0.29735367079E+03  0.29735367079E+03  0.00000000000E+00 0.  1.
          3   -1    0    0  501    0  0.00000000000E+00 -0.00000000000E+00 -0.94746101203E+02  0.94746101203E+02  0.00000000000E+00 0. -1.
         25    2    1    2    0    0  0.79482625586E+02  0.76222218330E+02  0.18055354719E+03  0.24571463352E+03  0.12509509737E+03 0.  0.
         23    2    1    2    0    0 -0.79482625586E+02 -0.76222218330E+02  0.22054022401E+02  0.14638513847E+03  0.93887776227E+02 0.  0.
          5    1    3    3  502    0  0.30598500598E+02  0.10308452525E+03  0.95266279918E+02  0.14372134175E+03  0.41800000000E+01 0.  1.
         -5    1    3    3    0  502  0.48884124988E+02 -0.26862306915E+02  0.85287267268E+02  0.10199329177E+03  0.41800000000E+01 0.  1.
        -11    1    4    4    0    0 -0.67477832277E+02 -0.57449211913E+02 -0.26887149658E+02  0.92609873205E+02  0.00000000000E+00 0. -1.
         11    1    4    4    0    0 -0.12004793309E+02 -0.18773006417E+02  0.48941172059E+02  0.53775265269E+02  0.00000000000E+00 0.  1.
</event>
<event>
 8    1  0.3654190E-009  0.8621307E+02  0.7561462E-02  0.1312290E+00
          2   -1    0    0  501    0  0.00000000000E+00  0.00000000000E+00  0.40844079724E+03  0.40844079724E+03  0.00000000000E+00 0. -1.
         -2   -1    0    0    0  501 -0.00000000000E+00 -0.00000000000E+00 -0.39586300288E+02  0.39586300288E+02  0.00000000000E+00 0.  1.
         25    2    1    2    0    0 -0.15488039864E+02  0.66684061153E+02  0.18535722638E+03  0.23386437752E+03  0.12509437363E+03 0.  0.
         23    2    1    2    0    0  0.15488039864E+02 -0.66684061153E+02  0.18349727058E+03  0.21416272001E+03  0.86647440478E+02 0.  0.
          5    1    3    3  502    0  0.91782647113E+01  0.76311726298E+02  0.41340503024E+02  0.87374079131E+02  0.41800000000E+01 0. -1.
         -5    1    3    3    0  502 -0.24666304575E+02 -0.96276651454E+01  0.14401672335E+03  0.14649029839E+03  0.41800000000E+01 0. -1.
        -11    1    4    4    0    0  0.84997688998E+01 -0.46858599078E+02  0.18689654582E+03  0.19286859054E+03  0.00000000000E+00 0. -1.
         11    1    4    4    0    0  0.69882709642E+01 -0.19825462075E+02 -0.33992752410E+01  0.21294129466E+02  0.00000000000E+00 0.  1.
</event>
<event>
 8    1  0.3654190E-009  0.1244079E+03  0.7561462E-02  0.1235998E+00
          3   -1    0    0  501    0  0.00000000000E+00  0.00000000000E+00  0.26224492721E+03  0.26224492721E+03  0.00000000000E+00 0. -1.
         -3   -1    0    0    0  501 -0.00000000000E+00 -0.00000000000E+00 -0.82614937820E+02  0.82614937820E+02  0.00000000000E+00 0.  1.
         25    2    1    2    0    0 -0.35174800028E+02  0.90878464430E+02  0.77574334638E+02  0.17652690262E+03  0.12509119913E+03 0.  0.
         23    2    1    2    0    0  0.35174800028E+02 -0.90878464430E+02  0.10205565475E+03  0.16833296241E+03  0.91784899152E+02 0.  0.
          5    1    3    3  502    0 -0.74353393858E+02  0.79284347359E+02  0.80543556162E+02  0.13534833488E+03  0.41800000000E+01 0. -1.
         -5    1    3    3    0  502  0.39178593830E+02  0.11594117071E+02 -0.29692215236E+01  0.41178567746E+02  0.41800000000E+01 0. -1.
        -11    1    4    4    0    0  0.80321083614E+01 -0.44612173219E+02  0.10525118308E+03  0.11459743585E+03  0.00000000000E+00 0. -1.
         11    1    4    4    0    0  0.27142691667E+02 -0.46266291211E+02 -0.31955283253E+01  0.53735526559E+02  0.00000000000E+00 0.  1.
</event>
<event>
 8    1  0.3654190E-009  0.6519188E+02  0.7561462E-02  0.1377251E+00
          1   -1    0    0  501    0  0.00000000000E+00  0.00000000000E+00  0.12265599630E+03  0.12265599630E+03  0.00000000000E+00 0. -1.
         -1   -1    0    0    0  501 -0.00000000000E+00 -0.00000000000E+00 -0.11109608645E+03  0.11109608645E+03  0.00000000000E+00 0.  1.
         25    2    1    2    0    0  0.69795638440E+01 -0.55777278555E+01  0.49700146954E+02  0.13489610638E+03  0.12508808716E+03 0.  0.
         23    2    1    2    0    0 -0.69795638440E+01  0.55777278555E+01 -0.38140237106E+02  0.98855976366E+02  0.90763434362E+02 0.  0.
          5    1    3    3  502    0 -0.22978923786E+02 -0.96693826295E+01  0.84737367905E+02  0.88427494696E+02  0.41800000000E+01 0.  1.
         -5    1    3    3    0  502  0.29958487630E+02  0.40916547739E+01 -0.35037220951E+02  0.46468611683E+02  0.41800000000E+01 0.  1.
        -11    1    4    4    0    0 -0.34576019700E+02  0.23381864031E+02  0.77215637050E+01  0.42448029989E+02  0.00000000000E+00 0. -1.
         11    1    4    4    0    0  0.27596455856E+02 -0.17804136176E+02 -0.45861800811E+02  0.56407946377E+02  0.00000000000E+00 0.  1.
</event>
<event>
 8    1  0.3654190E-009  0.9659766E+02  0.7561462E-02  0.1287618E+00
         -1   -1    0    0    0  501 -0.00000000000E+00  0.00000000000E+00  0.26499655006E+03  0.26499655006E+03  0.00000000000E+00 0.  1.
          1   -1    0    0  501    0  0.00000000000E+00 -0.00000000000E+00 -0.56055017466E+02  0.56055017466E+02  0.00000000000E+00 0. -1.
         25    2    1    2    0    0  0.33291789477E+01  0.23558907678E+02  0.49931186993E+02  0.13677059432E+03  0.12508783503E+03 0.  0.
         23    2    1    2    0    0 -0.33291789477E+01 -0.23558907678E+02  0.15901034560E+03  0.18428097321E+03  0.90050438728E+02 0.  0.
          5    1    3    3  502    0 -0.16458254097E+02  0.69420929415E+02  0.48975209303E+02  0.86638231140E+02  0.41800000000E+01 0.  1.
         -5    1    3    3    0  502  0.19787433045E+02 -0.45862021737E+02  0.95597768983E+00  0.50132363177E+02  0.41800000000E+01 0.  1.
        -11    1    4    4    0    0 -0.18072162098E+02  0.19204698629E+02  0.94225917796E+01  0.28003727041E+02  0.00000000000E+00 0. -1.
         11    1    4    4    0    0  0.14742983150E+02 -0.42763606307E+02  0.14958775382E+03  0.15627724617E+03  0.00000000000E+00 0.  1.
</event>
<event>
 8    1  0.3654190E-009  0.8503161E+02  0.7561462E-02  0.1315350E+00
         -4   -1    0    0    0  501 -0.00000000000E+00  0.00000000000E+00  0.46774197489E+03  0.46774197489E+03  0.00000000000E+00 0.  1.
          4   -1    0    0  501    0  0.00000000000E+00 -0.00000000000E+00 -0.33501900262E+02  0.33501900262E+02  0.00000000000E+00 0. -1.
         25    2    1    2    0    0 -0.28871944063E+02 -0.19815507815E+01  0.35380050336E+03  0.37637748315E+03  0.12509075884E+03 0.  0.
         23    2    1    2    0    0  0.28871944063E+02  0.19815507815E+01  0.80439571266E+02  0.12486639200E+03  0.91014150154E+02 0.  0.
          5    1    3    3  502    0 -0.35703198533E+02  0.41687883475E+02  0.30689277541E+03  0.31179038794E+03  0.41800000000E+01 0.  1.
         -5    1    3    3    0  502  0.68312544705E+01 -0.43669434256E+02  0.46907727946E+02  0.64587095205E+02  0.41800000000E+01 0.  1.
        -11    1    4    4    0    0 -0.20142221166E+02 -0.58705527477E+01 -0.87991775888E+01  0.22750779971E+02  0.00000000000E+00 0. -1.
         11    1    4    4    0    0  0.49014165229E+02  0.78521035292E+01  0.89238748855E+02  0.10211561203E+03  0.00000000000E+00 0.  1.
</event>
<event>
 8    1  0.3654190E-009  0.1496395E+03  0.7561462E-02  0.1200917E+00
          1   -1    0    0  501    0  0.00000000000E+00  0.00000000000E+00  0.84851730910E+03  0.84851730910E+03  0.00000000000E+00 0. -1.
         -1   -1    0    0    0  501 -0.00000000000E+00 -0.00000000000E+00 -0.31957045374E+02  0.31957045374E+02  0.00000000000E+00 0.  1.
         25    2    1    2    0    0 -0.48724404260E+02  0.10199577975E+03  0.30953237021E+03  0.35247043820E+03  0.12509162620E+03 0.  0.
         23    2    1    2    0    0  0.48724404260E+02 -0.10199577975E+03  0.50702789352E+03  0.52800391627E+03  0.94517956671E+02 0.  0.
          5    1    3    3  502    0  0.41719665316E+02  0.30867718603E+02  0.76374309073E+02  0.92432970374E+02  0.41800000000E+01 0. -1.
         -5    1    3    3    0  502 -0.90444069576E+02  0.71128061143E+02  0.23315806113E+03  0.26003746783E+03  0.41800000000E+01 0. -1.
        -11    1    4    4    0    0  0.54711619121E+02 -0.35299656509E+02  0.13362605308E+03  0.14864504391E+03  0.00000000000E+00 0.  1.
         11    1    4    4    0    0 -0.59872148617E+01 -0.66696123237E+02  0.37340184044E+03  0.37935887236E+03  0.00000000000E+00 0. -1.
</event>
<event>
 8    1  0.3654190E-009  0.1443285E+03  0.7561462E-02  0.1207621E+00
         -1   -1    0    0    0  501 -0.00000000000E+00  0.00000000000E+00  0.11452346329E+03  0.11452346329E+03  0.00000000000E+00 0.  1.
          1   -1    0    0  501    0  0.00000000000E+00 -0.00000000000E+00 -0.33685577633E+03  0.33685577633E+03  0.00000000000E+00 0. -1.
         25    2    1    2    0    0  0.13221469715E+03 -0.23625488746E+02 -0.96838879115E+01  0.18379498075E+03  0.12509167599E+03 0.  0.
         23    2    1    2    0    0 -0.13221469715E+03  0.23625488746E+02 -0.21264842512E+03  0.26758425887E+03  0.91340533327E+02 0.  0.
          5    1    3    3  502    0  0.10857322044E+03  0.11956829871E+02  0.41564479021E+02  0.11694523630E+03  0.41800000000E+01 0.  1.
         -5    1    3    3    0  502  0.23641476705E+02 -0.35582318617E+02 -0.51248366932E+02  0.66849744444E+02  0.41800000000E+01 0.  1.
        -11    1    4    4    0    0 -0.11566382873E+03  0.12186652915E+02 -0.21771869013E+03  0.24683610720E+03  0.00000000000E+00 0. -1.
         11    1    4    4    0    0 -0.16550868423E+02  0.11438835831E+02  0.50702650061E+01  0.20748151675E+02  0.00000000000E+00 0.  1.
</event>
<event>
 8    1  0.3654190E-009  0.1099796E+03  0.7561462E-02  0.1260608E+00
          2   -1    0    0  501    0  0.00000000000E+00  0.00000000000E+00  0.82087685352E+03  0.82087685352E+03  0.00000000000E+00 0. -1.
         -2   -1    0    0    0  501 -0.00000000000E+00 -0.00000000000E+00 -0.18141886638E+02  0.18141886638E+02  0.00000000000E+00 0.  1.
         25    2    1    2    0    0  0.36641278634E+02 -0.28303451029E+02  0.46812732785E+03  0.48675882085E+03  0.12508911206E+03 0.  0.
         23    2    1    2    0    0 -0.36641278634E+02  0.28303451029E+02  0.33460763903E+03  0.35225991930E+03  0.99905505412E+02 0.  0.
          5    1    3    3  502    0 -0.11336365744E+02  0.36989505771E+02  0.66755161357E+02  0.77268756255E+02  0.41800000000E+01 0. -1.
         -5    1    3    3    0  502  0.47977644378E+02 -0.65292956800E+02  0.40137216650E+03  0.40949006460E+03  0.41800000000E+01 0. -1.
        -11    1    4    4    0    0  0.12053090456E+02 -0.24977398916E+02  0.38295721567E+02  0.47283292361E+02  0.00000000000E+00 0.  1.
         11    1    4    4    0    0 -0.48694369090E+02  0.53280849945E+02  0.29631191746E+03  0.30497662694E+03  0.00000000000E+00 0. -1.
</event>
<event>
 8    1  0.3654190E-009  0.1500983E+03  0.7561462E-02  0.1200352E+00
          1   -1    0    0  501    0  0.00000000000E+00  0.00000000000E+00  0.63502465696E+03  0.63502465696E+03  0.00000000000E+00 0. -1.
         -1   -1    0    0    0  501 -0.00000000000E+00 -0.00000000000E+00 -0.50363295901E+02  0.50363295901E+02  0.00000000000E+00 0.  1.
         25    2    1    2    0    0  0.95227581301E+02 -0.77174039797E+02  0.17234195044E+03  0.24571275253E+03  0.12509550039E+03 0.  0.
         23    2    1    2    0    0 -0.95227581301E+02  0.77174039797E+02  0.41231941061E+03  0.43967520032E+03  0.91010223326E+02 0.  0.
          5    1    3    3  502    0  0.10763667971E+03 -0.52621720553E+02  0.68216764905E+02  0.13793367866E+03  0.41800000000E+01 0. -1.
         -5    1    3    3    0  502 -0.12409098410E+02 -0.24552319244E+02  0.10412518554E+03  0.10777907388E+03  0.41800000000E+01 0. -1.
        -11    1    4    4    0    0 -0.11329535271E+03  0.63962302603E+02  0.35900635360E+03  0.38185412794E+03  0.00000000000E+00 0. -1.
         11    1    4    4    0    0  0.18067771406E+02  0.13211737194E+02  0.53313057012E+02  0.57821072381E+02  0.00000000000E+00 0.  1.
</event>
<event>
 8    1  0.3654190E-009  0.1135990E+03  0.7561462E-02  0.1254047E+00
         -1   -1    0    0    0  501 -0.00000000000E+00  0.00000000000E+00  0.24344055739E+03  0.24344055739E+03  0.00000000000E+00 0.  1.
          1   -1    0    0  501    0  0.00000000000E+00 -0.00000000000E+00 -0.58418900773E+02  0.58418900773E+02  0.00000000000E+00 0. -1.
         25    2    1    2    0    0 -0.48074975177E+01 -0.49250896917E+02  0.95023361684E+02  0.16469920812E+03  0.12509047529E+03 0.  0.
         23    2    1    2    0    0  0.48074975177E+01  0.49250896917E+02  0.89998294929E+02  0.13716025004E+03  0.90909175676E+02 0.  0.
          5    1    3    3  502    0 -0.60287863436E+02 -0.40619552680E+02  0.30176547822E+02  0.78820498451E+02  0.41800000000E+01 0. -1.
         -5    1    3    3    0  502  0.55480365918E+02 -0.86313442367E+01  0.64846813862E+02  0.85878709666E+02  0.41800000000E+01 0. -1.
        -11    1    4    4    0    0 -0.33083410554E+02 -0.33499050556E+01  0.11124598112E+02  0.35064092758E+02  0.00000000000E+00 0. -1.
         11    1    4    4    0    0  0.37890908072E+02  0.52600801972E+02  0.78873696817E+02  0.10209615728E+03  0.00000000000E+00 0.  1.
</event>
<event>
 8    1  0.3654190E-009  0.1160489E+03  0.7561462E-02  0.1249761E+00
          2   -1    0    0  501    0  0.00000000000E+00  0.00000000000E+00  0.44637997112E+03  0.44637997112E+03  0.00000000000E+00 0.  1.
         -2   -1    0    0    0  501 -0.00000000000E+00 -0.00000000000E+00 -0.50788496524E+02  0.50788496524E+02  0.00000000000E+00 0. -1.
         25    2    1    2    0    0  0.69672106546E+02 -0.19838862397E+02  0.91248952716E+02  0.17094259555E+03  0.12508883527E+03 0.  0.
         23    2    1    2    0    0 -0.69672106546E+02  0.19838862397E+02  0.30434252188E+03  0.32622587210E+03  0.92472515430E+02 0.  0.
          5    1    3    3  502    0  0.66092860940E+00 -0.51219673337E+02 -0.10784151352E+01  0.51405516655E+02  0.41800000000E+01 0. -1.
         -5    1    3    3    0  502  0.69011177936E+02  0.31380810939E+02  0.92327367851E+02  0.11953707889E+03  0.41800000000E+01 0. -1.
        -11    1    4    4    0    0  0.21295671613E+01  0.31899036485E+02  0.17413135267E+03  0.17704183564E+03  0.00000000000E+00 0.  1.
         11    1    4    4    0    0 -0.71801673707E+02 -0.12060174088E+02  0.13021116921E+03  0.14918403646E+03  0.00000000000E+00 0. -1.
</event>
<event>
 8    1  0.3654190E-009  0.1383663E+03  0.7561462E-02  0.1215544E+00
         -2   -1    0    0    0  501 -0.00000000000E+00  0.00000000000E+00  0.12155272531E+03  0.12155272531E+03  0.00000000000E+00 0.  1.
          2   -1    0    0  501    0  0.00000000000E+00 -0.00000000000E+00 -0.17563994402E+03  0.17563994402E+03  0.00000000000E+00 0. -1.
         25    2    1    2    0    0  0.75581672625E+02 -0.57778476024E+02 -0.21035821103E+02  0.15855632710E+03  0.12508661625E+03 0.  0.
         23    2    1    2    0    0 -0.75581672625E+02  0.57778476024E+02 -0.33051397610E+02  0.13863634223E+03  0.95271711299E+02 0.  0.
          5    1    3    3  502    0  0.10577790572E+03 -0.64321766134E+02 -0.27085058051E+02  0.12679640257E+03  0.41800000000E+01 0.  1.
         -5    1    3    3    0  502 -0.30196233090E+02  0.65432901101E+01  0.60492369488E+01  0.31759924527E+02  0.41800000000E+01 0.  1.
        -11    1    4    4    0    0 -0.82177293635E+02  0.69899913935E+02 -0.57408001110E+01  0.10803731922E+03  0.00000000000E+00 0. -1.
         11    1    4    4    0    0  0.65956210100E+01 -0.12121437911E+02 -0.27310597499E+02  0.30599023012E+02  0.00000000000E+00 0.  1.
</event>
<event>
 8    1  0.3654190E-009  0.1012654E+03  0.7561462E-02  0.1277657E+00
          1   -1    0    0  501    0  0.00000000000E+00  0.00000000000E+00  0.24898652291E+02  0.24898652291E+02  0.00000000000E+00 0. -1.
         -1   -1    0    0    0  501 -0.00000000000E+00 -0.00000000000E+00 -0.10162736531E+04  0.10162736531E+04  0.00000000000E+00 0.  1.
         25    2    1    2    0    0  0.40571688858E+02 -0.59065784593E+02 -0.82542932070E+03  0.83792420236E+03  0.12509427076E+03 0.  0.
         23    2    1    2    0    0 -0.40571688858E+02  0.59065784593E+02 -0.16594568013E+03  0.20324810306E+03  0.92935428098E+02 0.  0.
          5    1    3    3  502    0  0.34766798358E+02 -0.66417534292E+01 -0.54117875926E+02  0.64800154717E+02  0.41800000000E+01 0.  1.
         -5    1    3    3    0  502  0.58048905008E+01 -0.52424031163E+02 -0.77131144477E+03  0.77312404764E+03  0.41800000000E+01 0.  1.
        -11    1    4    4    0    0 -0.59434446573E+02  0.85367206045E+01 -0.11132835356E+03  0.12648846328E+03  0.00000000000E+00 0.  1.
         11    1    4    4    0    0  0.18862757715E+02  0.50529063988E+02 -0.54617326577E+02  0.76759639776E+02  0.00000000000E+00 0. -1.
</event>
<event>
 8    1  0.3654190E-009  0.1110408E+03  0.7561462E-02  0.1258655E+00
         -2   -1    0    0    0  501 -0.00000000000E+00  0.00000000000E+00  0.11130716171E+03  0.11130716171E+03  0.00000000000E+00 0.  1.
          2   -1    0    0  501    0  0.00000000000E+00 -0.00000000000E+00 -0.15995214401E+03  0.15995214401E+03  0.00000000000E+00 0. -1.
         25    2    1    2    0    0 -0.24437910935E+02 -0.45153652442E+02 -0.87239964186E+02  0.16091908072E+03  0.12509226742E+03 0.  0.
         23    2    1    2    0    0  0.24437910935E+02  0.45153652442E+02  0.38594981887E+02  0.11034022500E+03  0.89718051728E+02 0.  0.
          5    1    3    3  502    0  0.44895085662E+02 -0.41852341015E+02 -0.21339335470E+02  0.65115488198E+02  0.41800000000E+01 0. -1.
         -5    1    3    3    0  502 -0.69332996596E+02 -0.33013114267E+01 -0.65900628716E+02  0.95803592518E+02  0.41800000000E+01 0. -1.
        -11    1    4    4    0    0 -0.10249067813E+02  0.54213702964E+02 -0.32111211183E+01  0.55267352741E+02  0.00000000000E+00 0. -1.
         11    1    4    4    0    0  0.34686978748E+02 -0.90600505222E+01  0.41806103005E+02  0.55072872257E+02  0.00000000000E+00 0.  1.
</event>
<event>
 8    1  0.3654190E-009  0.1255898E+03  0.7561462E-02  0.1234150E+00
         -1   -1    0    0    0  501 -0.00000000000E+00  0.00000000000E+00  0.65510782545E+02  0.65510782545E+02  0.00000000000E+00 0.  1.
          1   -1    0    0  501    0  0.00000000000E+00 -0.00000000000E+00 -0.33159332578E+03  0.33159332578E+03  0.00000000000E+00 0. -1.
         25    2    1    2    0    0  0.84598403761E+02 -0.41983955369E+02 -0.10226197806E+03  0.18714577422E+03  0.12508591537E+03 0.  0.
         23    2    1    2    0    0 -0.84598403761E+02  0.41983955369E+02 -0.16382056517E+03  0.20995833411E+03  0.91245723514E+02 0.  0.
          5    1    3    3  502    0  0.77117267552E+01 -0.72998109384E+02 -0.43313491729E+02  0.85333028008E+02  0.41800000000E+01 0. -1.
         -5    1    3    3    0  502  0.76886677006E+02  0.31014154015E+02 -0.58948486335E+02  0.10181274621E+03  0.41800000000E+01 0. -1.
        -11    1    4    4    0    0 -0.54628748472E+02  0.30372903610E+02 -0.16636329742E+03  0.17771764168E+03  0.00000000000E+00 0. -1.
         11    1    4    4    0    0 -0.29969655290E+02  0.11611051759E+02  0.25427322497E+01  0.32240692431E+02  0.00000000000E+00 0.  1.
</event>
<event>
 8    1  0.3654190E-009  0.1174975E+03  0.7561462E-02  0.1247283E+00
          1   -1    0    0  501    0  0.00000000000E+00  0.00000000000E+00  0.26671424059E+02  0.26671424059E+02  0.00000000000E+00 0. -1.
         -1   -1    0    0    0  501 -0.00000000000E+00 -0.00000000000E+00 -0.57481062073E+03  0.57481062073E+03  0.00000000000E+00 0.  1.
         25    2    1    2    0    0 -0.21236381548E+02 -0.53932454912E+02 -0.27971981029E+03  0.31184970600E+03  0.12508946107E+03 0.  0.
         23    2    1    2    0    0  0.21236381548E+02  0.53932454912E+02 -0.26841938639E+03  0.28963233879E+03  0.92077310414E+02 0.  0.
          5    1    3    3  502    0  0.22818404873E+02  0.29315168906E+02 -0.12686537742E+03  0.13225866746E+03  0.41800000000E+01 0.  1.
         -5    1    3    3    0  502 -0.44054786421E+02 -0.83247623818E+02 -0.15285443286E+03  0.17959103854E+03  0.41800000000E+01 0.  1.
        -11    1    4    4    0    0 -0.32776038228E+02  0.11815769261E+02 -0.13790125127E+03  0.14223444093E+03  0.00000000000E+00 0.  1.
         11    1    4    4    0    0  0.54012419776E+02  0.42116685651E+02 -0.13051813512E+03  0.14739789787E+03  0.00000000000E+00 0. -1.
</event>
<event>
 8    1  0.3654190E-009  0.1207605E+03  0.7561462E-02  0.1241848E+00
          1   -1    0    0  501    0  0.00000000000E+00  0.00000000000E+00  0.10446911701E+03  0.10446911701E+03  0.00000000000E+00 0. -1.
         -1   -1    0    0    0  501 -0.00000000000E+00 -0.00000000000E+00 -0.16954439047E+03  0.16954439047E+03  0.00000000000E+00 0.  1.
         25    2    1    2    0    0 -0.77251322465E+02  0.11245967776E+02 -0.53370259731E+02  0.15681227631E+03  0.12508983478E+03 0.  0.
         23    2    1    2    0    0  0.77251322465E+02 -0.11245967776E+02 -0.11705013727E+02  0.11720123118E+03  0.86630725663E+02 0.  0.
          5    1    3    3  502    0  0.16024290516E+01  0.53646758917E+02 -0.37955171408E+02  0.65868125507E+02  0.41800000000E+01 0.  1.
         -5    1    3    3    0  502 -0.78853751517E+02 -0.42400791141E+02 -0.15415088323E+02  0.90944150805E+02  0.41800000000E+01 0.  1.
        -11    1    4    4    0    0  0.68342904174E+02 -0.32008105927E+02 -0.36352202184E+02  0.83766067113E+02  0.00000000000E+00 0.  1.
         11    1    4    4    0    0  0.89084182914E+01  0.20762138151E+02  0.24647188457E+02  0.33435164062E+02  0.00000000000E+00 0. -1.
</event>
<event>
 8    1  0.3654190E-009  0.1041883E+03  0.7561462E-02  0.1271727E+00
         -1   -1    0    0    0  501 -0.00000000000E+00  0.00000000000E+00  0.30110257196E+02  0.30110257196E+02  0.00000000000E+00 0.  1.
          1   -1    0    0  501    0  0.00000000000E+00 -0.00000000000E+00 -0.53906980599E+03  0.53906980599E+03  0.00000000000E+00 0. -1.
         25    2    1    2    0    0 -0.20160273957E+02  0.53387491324E+02 -0.30417212007E+03  0.33380361889E+03  0.12509003351E+03 0.  0.
         23    2    1    2    0    0  0.20160273957E+02 -0.53387491324E+02 -0.20478742873E+03  0.23537644430E+03  0.10103226558E+03 0.  0.
          5    1    3    3  502    0 -0.65636515798E+02  0.58743925107E+02 -0.16290631044E+03  0.18524291977E+03  0.41800000000E+01 0. -1.
         -5    1    3    3    0  502  0.45476241841E+02 -0.53564337822E+01 -0.14126580963E+03  0.14856069912E+03  0.41800000000E+01 0. -1.
        -11    1    4    4    0    0  0.15120932239E+02 -0.62226175154E+02 -0.21292626371E+03  0.22234732569E+03  0.00000000000E+00 0. -1.
         11    1    4    4    0    0  0.50393417188E+01  0.88386838294E+01  0.81388349780E+01  0.13029118604E+02  0.00000000000E+00 0.  1.
</event>
<event>
 8    1  0.3654190E-009  0.1360712E+03  0.7561462E-02  0.1218715E+00
         -2   -1    0    0    0  501 -0.00000000000E+00  0.00000000000E+00  0.22220837120E+02  0.22220837120E+02  0.00000000000E+00 0.  1.
          2   -1    0    0  501    0  0.00000000000E+00 -0.00000000000E+00 -0.95111796562E+03  0.95111796562E+03  0.00000000000E+00 0. -1.
         25    2    1    2    0    0  0.20971594199E+02  0.85978705895E+02 -0.64486908673E+03  0.66282394459E+03  0.12508915568E+03 0.  0.
         23    2    1    2    0    0 -0.20971594199E+02 -0.85978705895E+02 -0.28402804177E+03  0.31051485815E+03  0.88968550574E+02 0.  0.
          5    1    3    3  502    0 -0.38915734683E+02  0.83088181823E+02 -0.34681473990E+03  0.35877014449E+03  0.41800000000E+01 0. -1.
         -5    1    3    3    0  502  0.59887328882E+02  0.28905240722E+01 -0.29805434683E+03  0.30405380010E+03  0.41800000000E+01 0. -1.
        -11    1    4    4    0    0  0.31362830184E+02 -0.27435147376E+02 -0.59409513292E+02  0.72565864553E+02  0.00000000000E+00 0.  1.
         11    1    4    4    0    0 -0.52334424383E+02 -0.58543558519E+02 -0.22461852848E+03  0.23794899360E+03  0.00000000000E+00 0. -1.
</event>
<event>
 8    1  0.3654190E-009  0.1326150E+03  0.7561462E-02  0.1223626E+00
          1   -1    0    0  501    0  0.00000000000E+00  0.00000000000E+00  0.25971501430E+03  0.25971501430E+03  0.00000000000E+00 0. -1.
         -1   -1    0    0    0  501 -0.00000000000E+00 -0.00000000000E+00 -0.94232094644E+02  0.94232094644E+02  0.00000000000E+00 0.  1.
         25    2    1    2    0    0 -0.11285251039E+03  0.90834622632E+00  0.10102162431E+03  0.19644213458E+03  0.12509048511E+03 0.  0.
         23    2    1    2    0    0  0.11285251039E+03 -0.90834622632E+00  0.64461295349E+02  0.15750497437E+03  0.88972153836E+02 0.  0.
          5    1    3    3  502    0 -0.11726798655E+03 -0.27979476566E+02  0.11232606709E+03  0.16483097260E+03  0.41800000000E+01 0. -1.
         -5    1    3    3    0  502  0.44154761648E+01  0.28887822792E+02 -0.11304442778E+02  0.31611161983E+02  0.41800000000E+01 0. -1.
        -11    1    4    4    0    0  0.42145576771E+02 -0.11241835035E+02 -0.19047036205E+02  0.47596408316E+02  0.00000000000E+00 0.  1.
         11    1    4    4    0    0  0.70706933619E+02  0.10333488809E+02  0.83508331554E+02  0.10990856605E+03  0.00000000000E+00 0. -1.
</event>
<event>
 8    1  0.3654190E-009  0.2703146E+03  0.7561462E-02  0.1101100E+00
         -2   -1    0    0    0  501 -0.00000000000E+00  0.00000000000E+00  0.63346200253E+02  0.63346200253E+02  0.00000000000E+00 0.  1.
          2   -1    0    0  501    0  0.00000000000E+00 -0.00000000000E+00 -0.14741259804E+04  0.14741259804E+04  0.00000000000E+00 0. -1.
         25    2    1    2    0    0 -0.25584080901E+03 -0.15608979150E+00 -0.10389384445E+04  0.10772625170E+04  0.12508754953E+03 0.  0.
         23    2    1    2    0    0  0.25584080901E+03  0.15608979150E+00 -0.37184133565E+03  0.46020966371E+03  0.89846601224E+02 0.  0.
          5    1    3    3  502    0 -0.23243266549E+03 -0.41397873161E+02 -0.82744609800E+03  0.86047849792E+03  0.41800000000E+01 0.  1.
         -5    1    3    3    0  502 -0.23408143525E+02  0.41241783370E+02 -0.21149234653E+03  0.21678401906E+03  0.41800000000E+01 0.  1.
        -11    1    4    4    0    0  0.62709582614E+02 -0.99808888001E+01 -0.16618463346E+03  0.17790290130E+03  0.00000000000E+00 0. -1.
         11    1    4    4    0    0  0.19313122640E+03  0.10136978592E+02 -0.20565670219E+03  0.28230676241E+03  0.00000000000E+00 0.  1.
</event>
<event>
 8    1  0.3654190E-009  0.9030275E+02  0.7561462E-02  0.1302120E+00
          4   -1    0    0  501    0  0.00000000000E+00  0.00000000000E+00  0.53253172655E+02  0.53253172655E+02  0.00000000000E+00 0.  1.
         -4   -1    0    0    0  501 -0.00000000000E+00 -0.00000000000E+00 -0.24273881233E+03  0.24273881233E+03  0.00000000000E+00 0. -1.
         25    2    1    2    0    0  0.16526952252E+02  0.31575655435E+01 -0.68149289587E+02  0.14344093782E+03  0.12509143296E+03 0.  0.
         23    2    1    2    0    0 -0.16526952252E+02 -0.31575655435E+01 -0.12133635008E+03  0.15255104716E+03  0.90918654670E+02 0.  0.
          5    1    3    3  502    0  0.69514675721E+02  0.92650008414E+01 -0.52480859423E+02  0.87691752103E+02  0.41800000000E+01 0.  1.
         -5    1    3    3    0  502 -0.52987723469E+02 -0.61074352979E+01 -0.15668430164E+02  0.55749185717E+02  0.41800000000E+01 0.  1.
        -11    1    4    4    0    0 -0.19733983279E+02 -0.26637875244E+02 -0.12432135618E+03  0.12866548137E+03  0.00000000000E+00 0. -1.
         11    1    4    4    0    0  0.32070310271E+01  0.23480309701E+02  0.29850060979E+01  0.23885565789E+02  0.00000000000E+00 0.  1.
</event>
<event>
 8    1  0.3654190E-009  0.1092036E+03  0.7561462E-02  0.1262052E+00
         -2   -1    0    0    0  501 -0.00000000000E+00  0.00000000000E+00  0.16014197561E+03  0.16014197561E+03  0.00000000000E+00 0.  1.
          2   -1    0    0  501    0  0.00000000000E+00 -0.00000000000E+00 -0.24891402264E+03  0.24891402264E+03  0.00000000000E+00 0. -1.
         25    2    1    2    0    0 -0.64669269446E+02  0.44767918659E+02 -0.19734689204E+03  0.24653529197E+03  0.12509026117E+03 0.  0.
         23    2    1    2    0    0  0.64669269446E+02 -0.44767918659E+02  0.10857484501E+03  0.16252070627E+03  0.91859686732E+02 0.  0.
          5    1    3    3  502    0 -0.53359297106E+01  0.60128600265E+02 -0.28548907281E+02  0.66906152352E+02  0.41800000000E+01 0.  1.
         -5    1    3    3    0  502 -0.59333339735E+02 -0.15360681606E+02 -0.16879798476E+03  0.17962913962E+03  0.41800000000E+01 0.  1.
        -11    1    4    4    0    0  0.53681033662E+02 -0.35387790774E+01  0.10707039516E+03  0.11982589809E+03  0.00000000000E+00 0.  1.
         11    1    4    4    0    0  0.10988235784E+02 -0.41229139581E+02  0.15044498431E+01  0.42694808181E+02  0.00000000000E+00 0. -1.
</event>
<event>
 8    1  0.3654190E-009  0.2795004E+03  0.7561462E-02  0.1095962E+00
         -2   -1    0    0    0  501 -0.00000000000E+00  0.00000000000E+00  0.24687540345E+03  0.24687540345E+03  0.00000000000E+00 0.  1.
          2   -1    0    0  501    0  0.00000000000E+00 -0.00000000000E+00 -0.34134269657E+03  0.34134269657E+03  0.00000000000E+00 0. -1.
         25    2    1    2    0    0  0.18338680442E+03  0.19659024388E+03 -0.60286692251E+02  0.30258739473E+03  0.12508477992E+03 0.  0.
         23    2    1    2    0    0 -0.18338680442E+03 -0.19659024388E+03 -0.34180600874E+02  0.28563070529E+03  0.90211652818E+02 0.  0.
          5    1    3    3  502    0  0.13935672327E+03  0.19741907265E+03 -0.79406677566E+02  0.25439630384E+03  0.41800000000E+01 0. -1.
         -5    1    3    3    0  502  0.44030081148E+02 -0.82882876961E+00  0.19119985316E+02  0.48191090894E+02  0.41800000000E+01 0. -1.
        -11    1    4    4    0    0 -0.56146220294E+02 -0.94604257204E+02 -0.51832055482E+02  0.12160972621E+03  0.00000000000E+00 0. -1.
         11    1    4    4    0    0 -0.12724058412E+03 -0.10198598667E+03  0.17651454609E+02  0.16402097907E+03  0.00000000000E+00 0.  1.
</event>
<event>
 8    1  0.3654190E-009  0.8643172E+02  0.7561462E-02  0.1311730E+00
          1   -1    0    0  501    0  0.00000000000E+00  0.00000000000E+00  0.31375051884E+03  0.31375051884E+03  0.00000000000E+00 0. -1.
         -1   -1    0    0    0  501 -0.00000000000E+00 -0.00000000000E+00 -0.75031000585E+02  0.75031000585E+02  0.00000000000E+00 0.  1.
         25    2    1    2    0    0  0.32556833771E+02  0.50256972081E+02  0.24028756412E+03  0.27743759006E+03  0.12509113573E+03 0.  0.
         23    2    1    2    0    0 -0.32556833771E+02 -0.50256972081E+02 -0.15680458713E+01  0.11134392936E+03  0.93857877505E+02 0.  0.
          5    1    3    3  502    0  0.49381228027E+02 -0.67392587651E+01  0.19841128134E+03  0.20461777110E+03  0.41800000000E+01 0. -1.
         -5    1    3    3    0  502 -0.16824394256E+02  0.56996230846E+02  0.41876282785E+02  0.72819818955E+02  0.41800000000E+01 0. -1.
        -11    1    4    4    0    0 -0.34406575082E+02 -0.39601782466E+02  0.41530283553E+02  0.66909476424E+02  0.00000000000E+00 0. -1.
         11    1    4    4    0    0  0.18497413117E+01 -0.10655189615E+02 -0.43098329424E+02  0.44434452937E+02  0.00000000000E+00 0.  1.
</event>
<event>
 8    1  0.3654190E-009  0.1107507E+03  0.7561462E-02  0.1259186E+00
         -2   -1    0    0    0  501 -0.00000000000E+00  0.00000000000E+00  0.80936131505E+01  0.80936131505E+01  0.00000000000E+00 0.  1.
          2   -1    0    0  501    0  0.00000000000E+00 -0.00000000000E+00 -0.18139058142E+04  0.18139058142E+04  0.00000000000E+00 0. -1.
         25    2    1    2    0    0  0.23084450656E+02 -0.28013119714E+02 -0.13351598690E+04  0.13414982101E+04  0.12509174732E+03 0.  0.
         23    2    1    2    0    0 -0.23084450656E+02  0.28013119714E+02 -0.47065233202E+03  0.48050121719E+03  0.89722769411E+02 0.  0.
          5    1    3    3  502    0 -0.49567863302E+02 -0.61924278731E+00 -0.66086105281E+03  0.66273083530E+03  0.41800000000E+01 0. -1.
         -5    1    3    3    0  502  0.72652313959E+02 -0.27393876927E+02 -0.67429881620E+03  0.67876737484E+03  0.41800000000E+01 0. -1.
        -11    1    4    4    0    0 -0.33170787361E+02 -0.24045546602E+02 -0.15002006724E+03  0.15551369721E+03  0.00000000000E+00 0.  1.
         11    1    4    4    0    0  0.10086336704E+02  0.52058666316E+02 -0.32063226478E+03  0.32498751999E+03  0.00000000000E+00 0. -1.
</event>
<event>
 8    1  0.3654190E-009  0.1030102E+03  0.7561462E-02  0.1274090E+00
         -1   -1    0    0    0  501 -0.00000000000E+00  0.00000000000E+00  0.52491365535E+03  0.52491365535E+03  0.00000000000E+00 0.  1.
          1   -1    0    0  501    0  0.00000000000E+00 -0.00000000000E+00 -0.33668478548E+02  0.33668478548E+02  0.00000000000E+00 0. -1.
         25    2    1    2    0    0 -0.43787651035E+02  0.25139832792E+02  0.14770706867E+03  0.20003524064E+03  0.12508936720E+03 0.  0.
         23    2    1    2    0    0  0.43787651035E+02 -0.25139832792E+02  0.34353810813E+03  0.35854689326E+03  0.89376022220E+02 0.  0.
          5    1    3    3  502    0 -0.76309619291E+02  0.35676362312E+01  0.42001770364E+02  0.87278331436E+02  0.41800000000E+01 0. -1.
         -5    1    3    3    0  502  0.32521968256E+02  0.21572196561E+02  0.10570529830E+03  0.11275690920E+03  0.41800000000E+01 0. -1.
        -11    1    4    4    0    0 -0.35916353821E+01 -0.40344963527E+02  0.24318009866E+03  0.24653027464E+03  0.00000000000E+00 0.  1.
         11    1    4    4    0    0  0.47379286417E+02  0.15205130735E+02  0.10035800947E+03  0.11201661862E+03  0.00000000000E+00 0. -1.
</event>
<event>
 8    1  0.3654190E-009  0.1147820E+03  0.7561462E-02  0.1251962E+00
          2   -1    0    0  501    0  0.00000000000E+00  0.00000000000E+00  0.52932566259E+02  0.52932566259E+02  0.00000000000E+00 0. -1.
         -2   -1    0    0    0  501 -0.00000000000E+00 -0.00000000000E+00 -0.28055529426E+03  0.28055529426E+03  0.00000000000E+00 0.  1.
         25    2    1    2    0    0  0.25988091290E+02 -0.44467001310E+02 -0.15080173525E+03  0.20258689487E+03  0.12509033346E+03 0.  0.
         23    2    1    2    0    0 -0.25988091290E+02  0.44467001310E+02 -0.76820992755E+02  0.13090096565E+03  0.92633162455E+02 0.  0.
          5    1    3    3  502    0  0.37958422388E+02  0.36406625887E+02 -0.68987959389E+02  0.86850994118E+02  0.41800000000E+01 0. -1.
         -5    1    3    3    0  502 -0.11970331098E+02 -0.80873627197E+02 -0.81813775859E+02  0.11573590075E+03  0.41800000000E+01 0. -1.
        -11    1    4    4    0    0 -0.54871215971E+02  0.31618628504E+02 -0.20945763206E+02  0.66703170891E+02  0.00000000000E+00 0. -1.
         11    1    4    4    0    0  0.28883124681E+02  0.12848372806E+02 -0.55875229549E+02  0.64197794762E+02  0.00000000000E+00 0.  1.
</event>
<event>
 8    1  0.3654190E-009  0.1217529E+03  0.7561462E-02  0.1240233E+00
         -2   -1    0    0    0  501 -0.00000000000E+00  0.00000000000E+00  0.37690219977E+02  0.37690219977E+02  0.00000000000E+00 0.  1.
          2   -1    0    0  501    0  0.00000000000E+00 -0.00000000000E+00 -0.47612841362E+03  0.47612841362E+03  0.00000000000E+00 0. -1.
         25    2    1    2    0    0  0.31285854238E+02 -0.65115795857E+02 -0.30962191837E+03  0.34166334883E+03  0.12509692264E+03 0.  0.
         23    2    1    2    0    0 -0.31285854238E+02  0.65115795857E+02 -0.12881627527E+03  0.17215528476E+03  0.88458678216E+02 0.  0.
          5    1    3    3  502    0  0.64709048522E+02 -0.88248454851E+01 -0.82759882295E+02  0.10550739015E+03  0.41800000000E+01 0. -1.
         -5    1    3    3    0  502 -0.33423194285E+02 -0.56290950371E+02 -0.22686203607E+03  0.23615595868E+03  0.41800000000E+01 0. -1.
        -11    1    4    4    0    0  0.27691235045E+02  0.39322093826E+02 -0.40534184626E+02  0.62897151640E+02  0.00000000000E+00 0.  1.
         11    1    4    4    0    0 -0.58977089283E+02  0.25793702030E+02 -0.88282090648E+02  0.10925813312E+03  0.00000000000E+00 0. -1.
</event>
<event>
 8    1  0.3654190E-009  0.2611172E+03  0.7561462E-02  0.1106474E+00
          1   -1    0    0  501    0  0.00000000000E+00  0.00000000000E+00  0.27220917379E+03  0.27220917379E+03  0.00000000000E+00 0. -1.
         -1   -1    0    0    0  501 -0.00000000000E+00 -0.00000000000E+00 -0.30912725454E+03  0.30912725454E+03  0.00000000000E+00 0.  1.
         25    2    1    2    0    0 -0.19242215475E+03 -0.17215748788E+03 -0.93962527202E+02  0.30189634135E+03  0.12509179881E+03 0.  0.
         23    2    1    2    0    0  0.19242215475E+03  0.17215748788E+03  0.57044446450E+02  0.27944008699E+03  0.90378133821E+02 0.  0.
          5    1    3    3  502    0 -0.33999694873E+02 -0.24719509254E+02  0.30596961572E+02  0.52160136566E+02  0.41800000000E+01 0. -1.
         -5    1    3    3    0  502 -0.15842245988E+03 -0.14743797863E+03 -0.12455948877E+03  0.24973620478E+03  0.41800000000E+01 0. -1.
        -11    1    4    4    0    0  0.77506029868E+02  0.10475564845E+03  0.65697115643E+02  0.14593505936E+03  0.00000000000E+00 0.  1.
         11    1    4    4    0    0  0.11491612488E+03  0.67401839433E+02 -0.86526691934E+01  0.13350502762E+03  0.00000000000E+00 0. -1.
</event>
<event>
 8    1  0.3654190E-009  0.1385737E+03  0.7561462E-02  0.1215261E+00
         -1   -1    0    0    0  501 -0.00000000000E+00  0.00000000000E+00  0.15950754335E+02  0.15950754335E+02  0.00000000000E+00 0.  1.
          1   -1    0    0  501    0  0.00000000000E+00 -0.00000000000E+00 -0.20842586091E+04  0.20842586091E+04  0.00000000000E+00 0. -1.
         25    2    1    2    0    0 -0.10674175088E+03  0.56402877884E+02 -0.15171494248E+04  0.15270771731E+04  0.12508888631E+03 0.  0.
         23    2    1    2    0    0  0.10674175088E+03 -0.56402877884E+02 -0.55115843001E+03  0.57313219036E+03  0.10064694055E+03 0.  0.
          5    1    3    3  502    0 -0.16565810041E+02  0.11202056231E+02 -0.99763771952E+03  0.99784688401E+03  0.41800000000E+01 0. -1.
         -5    1    3    3    0  502 -0.90175940842E+02  0.45200821653E+02 -0.51951170528E+03  0.52923028910E+03  0.41800000000E+01 0. -1.
        -11    1    4    4    0    0  0.24880938688E+02 -0.68621407159E+02 -0.29691907445E+03  0.30575953853E+03  0.00000000000E+00 0. -1.
         11    1    4    4    0    0  0.81860812194E+02  0.12218529275E+02 -0.25423935556E+03  0.26737265183E+03  0.00000000000E+00 0.  1.
</event>
<event>
 8    1  0.3654190E-009  0.9476079E+02  0.7561462E-02  0.1291716E+00
         -2   -1    0    0    0  501 -0.00000000000E+00  0.00000000000E+00  0.81108549655E+02  0.81108549655E+02  0.00000000000E+00 0. -1.
          2   -1    0    0  501    0  0.00000000000E+00 -0.00000000000E+00 -0.17429889576E+03  0.17429889576E+03  0.00000000000E+00 0.  1.
         25    2    1    2    0    0 -0.24842614740E+02 -0.32629092182E+02 -0.25317028662E+02  0.13405344375E+03  0.12509021016E+03 0.  0.
         23    2    1    2    0    0  0.24842614740E+02  0.32629092182E+02 -0.67873317442E+02  0.12135400166E+03  0.91859639313E+02 0.  0.
          5    1    3    3  502    0 -0.50172443727E+02 -0.60310179040E+02  0.13714787568E+02  0.79750608797E+02  0.41800000000E+01 0.  1.
         -5    1    3    3    0  502  0.25329828987E+02  0.27681086858E+02 -0.39031816230E+02  0.54302834957E+02  0.41800000000E+01 0.  1.
        -11    1    4    4    0    0 -0.19067270509E+02  0.10058842569E+01  0.13674893728E+02  0.23485640853E+02  0.00000000000E+00 0. -1.
         11    1    4    4    0    0  0.43909885249E+02  0.31623207925E+02 -0.81548211170E+02  0.97868360808E+02  0.00000000000E+00 0.  1.
</event>
<event>
 8    1  0.3654190E-009  0.1067816E+03  0.7561462E-02  0.1266649E+00
         -1   -1    0    0    0  501 -0.00000000000E+00  0.00000000000E+00  0.54341009267E+02  0.54341009267E+02  0.00000000000E+00 0.  1.
          1   -1    0    0  501    0  0.00000000000E+00 -0.00000000000E+00 -0.25205018631E+03  0.25205018631E+03  0.00000000000E+00 0. -1.
         25    2    1    2    0    0 -0.27410589815E+02 -0.33984216658E+02 -0.12049272743E+03  0.17908532318E+03  0.12508712244E+03 0.  0.
         23    2    1    2    0    0  0.27410589815E+02  0.33984216658E+02 -0.77216449619E+02  0.12730587240E+03  0.91313403397E+02 0.  0.
          5    1    3    3  502    0 -0.58612695745E+02  0.26375733919E+02 -0.59086787201E+02  0.87406225545E+02  0.41800000000E+01 0. -1.
         -5    1    3    3    0  502  0.31202105930E+02 -0.60359950577E+02 -0.61405940228E+02  0.91679097636E+02  0.41800000000E+01 0. -1.
        -11    1    4    4    0    0  0.32239274992E+02 -0.12326610140E+02  0.29048573090E+01  0.34637470541E+02  0.00000000000E+00 0.  1.
         11    1    4    4    0    0 -0.48286851762E+01  0.46310826798E+02 -0.80121306928E+02  0.92668401859E+02  0.00000000000E+00 0. -1.
</event>
<event>
 8    1  0.3654190E-009  0.1463772E+03  0.7561462E-02  0.1204997E+00
          2   -1    0    0  501    0  0.00000000000E+00  0.00000000000E+00  0.62574511577E+03  0.62574511577E+03  0.00000000000E+00 0. -1.
         -2   -1    0    0    0  501 -0.00000000000E+00 -0.00000000000E+00 -0.51624836634E+02  0.51624836634E+02  0.00000000000E+00 0.  1.
         25    2    1    2    0    0  0.14445916454E+02 -0.13156137453E+03  0.40513894252E+03  0.44419109357E+03  0.12510429686E+03 0.  0.
         23    2    1    2    0    0 -0.14445916454E+02  0.13156137453E+03  0.16898133662E+03  0.23317885883E+03  0.91107674275E+02 0.  0.
          5    1    3    3  502    0 -0.76516453581E+01 -0.12138043374E+03  0.40112748569E+03  0.41918073613E+03  0.41800000000E+01 0. -1.
         -5    1    3    3    0  502  0.22097561812E+02 -0.10180940785E+02  0.40114568336E+01  0.25010357439E+02  0.41800000000E+01 0. -1.
        -11    1    4    4    0    0  0.21644782485E+02  0.21342334622E+02  0.27959309736E+01  0.30525548086E+02  0.00000000000E+00 0.  1.
         11    1    4    4    0    0 -0.36090698939E+02  0.11021903991E+03  0.16618540564E+03  0.20265331075E+03  0.00000000000E+00 0. -1.
</event>
<event>
 8    1  0.3654190E-009  0.2023240E+03  0.7561462E-02  0.1147793E+00
          2   -1    0    0  501    0  0.00000000000E+00  0.00000000000E+00  0.83061490151E+02  0.83061490151E+02  0.00000000000E+00 0. -1.
         -2   -1    0    0    0  501 -0.00000000000E+00 -0.00000000000E+00 -0.55471614718E+03  0.55471614718E+03  0.00000000000E+00 0.  1.
         25    2    1    2    0    0  0.18441825422E+03  0.76771953589E+01 -0.24211750465E+03  0.32914758099E+03  0.12509281433E+03 0.  0.
         23    2    1    2    0    0 -0.18441825422E+03 -0.76771953589E+01 -0.22953715238E+03  0.30863005634E+03  0.92174701179E+02 0.  0.
          5    1    3    3  502    0  0.16158720932E+03 -0.40371048317E+02 -0.20491607070E+03  0.26409906510E+03  0.41800000000E+01 0.  1.
         -5    1    3    3    0  502  0.22831044899E+02  0.48048243675E+02 -0.37201433955E+02  0.65048515892E+02  0.41800000000E+01 0.  1.
        -11    1    4    4    0    0 -0.58467324565E+02 -0.53051875941E+01 -0.16242924126E+02  0.60913099095E+02  0.00000000000E+00 0.  1.
         11    1    4    4    0    0 -0.12595092965E+03 -0.23720077648E+01 -0.21329422825E+03  0.24771695724E+03  0.00000000000E+00 0. -1.
</event>
<event>
 8    1  0.3654190E-009  0.2829207E+03  0.7561462E-02  0.1094104E+00
         -2   -1    0    0    0  501 -0.00000000000E+00  0.00000000000E+00  0.81877222077E+02  0.81877222077E+02  0.00000000000E+00 0.  1.
          2   -1    0    0  501    0  0.00000000000E+00 -0.00000000000E+00 -0.10288341690E+04  0.10288341690E+04  0.00000000000E+00 0. -1.
         25    2    1    2    0    0  0.80053802283E+02  0.25141693933E+03 -0.57243681215E+03  0.64261209157E+03  0.12508919892E+03 0.  0.
         23    2    1    2    0    0 -0.80053802283E+02 -0.25141693933E+03 -0.37452013475E+03  0.46809929949E+03  0.96086077027E+02 0.  0.
          5    1    3    3  502    0  0.11397275433E+03  0.19084522669E+03 -0.42774728775E+03  0.48207562048E+03  0.41800000000E+01 0. -1.
         -5    1    3    3    0  502 -0.33918952050E+02  0.60571712640E+02 -0.14468952440E+03  0.16053647109E+03  0.41800000000E+01 0. -1.
        -11    1    4    4    0    0 -0.42906377451E+02 -0.37917637806E+02 -0.12577841059E+03  0.13819881712E+03  0.00000000000E+00 0.  1.
         11    1    4    4    0    0 -0.37147424832E+02 -0.21349930153E+03 -0.24874172416E+03  0.32990048236E+03  0.00000000000E+00 0. -1.
</event>
<event>
 8    1  0.3654190E-009  0.1255014E+03  0.7561462E-02  0.1234288E+00
         -2   -1    0    0    0  501 -0.00000000000E+00  0.00000000000E+00  0.64278747796E+02  0.64278747796E+02  0.00000000000E+00 0.  1.
          2   -1    0    0  501    0  0.00000000000E+00 -0.00000000000E+00 -0.49985854432E+03  0.49985854432E+03  0.00000000000E+00 0. -1.
         25    2    1    2    0    0 -0.93639435082E+02  0.51832720144E+02 -0.38025572656E+03  0.41436409491E+03  0.12509280910E+03 0.  0.
         23    2    1    2    0    0  0.93639435082E+02 -0.51832720144E+02 -0.55324069961E+02  0.14977319720E+03  0.88973497198E+02 0.  0.
          5    1    3    3  502    0 -0.37444739774E+02  0.45577039097E+02 -0.33932015116E+03  0.34443433687E+03  0.41800000000E+01 0.  1.
         -5    1    3    3    0  502 -0.56194695308E+02  0.62556810469E+01 -0.40935575395E+02  0.69929758037E+02  0.41800000000E+01 0.  1.
        -11    1    4    4    0    0  0.63391377834E+02 -0.74171475395E+02 -0.23136036476E+02  0.10027537449E+03  0.00000000000E+00 0. -1.
         11    1    4    4    0    0  0.30248057249E+02  0.22338755251E+02 -0.32188033485E+02  0.49497822711E+02  0.00000000000E+00 0.  1.
</event>
<event>
 8    1  0.3654190E-009  0.1049924E+03  0.7561462E-02  0.1270135E+00
          1   -1    0    0  501    0  0.00000000000E+00  0.00000000000E+00  0.14650834484E+03  0.14650834484E+03  0.00000000000E+00 0. -1.
         -1   -1    0    0    0  501 -0.00000000000E+00 -0.00000000000E+00 -0.11559101634E+03  0.11559101634E+03  0.00000000000E+00 0.  1.
         25    2    1    2    0    0  0.42414845966E+02 -0.18349187264E+02 -0.38726011652E+02  0.13887059020E+03  0.12509846127E+03 0.  0.
         23    2    1    2    0    0 -0.42414845966E+02  0.18349187264E+02  0.69643340151E+02  0.12322877098E+03  0.90550667244E+02 0.  0.
          5    1    3    3  502    0  0.66769238983E+02  0.19338949439E+02 -0.57244726470E+02  0.90147420088E+02  0.41800000000E+01 0. -1.
         -5    1    3    3    0  502 -0.24354393017E+02 -0.37688136704E+02  0.18518714818E+02  0.48723170114E+02  0.41800000000E+01 0. -1.
        -11    1    4    4    0    0 -0.63624096055E+02 -0.48957559126E+01  0.24833559231E+02  0.68474080416E+02  0.00000000000E+00 0.  1.
         11    1    4    4    0    0  0.21209250089E+02  0.23244943177E+02  0.44809780920E+02  0.54754690564E+02  0.00000000000E+00 0. -1.
</event>
<event>
 8    1  0.3654190E-009  0.1250044E+03  0.7561462E-02  0.1235062E+00
          2   -1    0    0  501    0  0.00000000000E+00  0.00000000000E+00  0.24686672735E+03  0.24686672735E+03  0.00000000000E+00 0. -1.
         -2   -1    0    0    0  501 -0.00000000000E+00 -0.00000000000E+00 -0.11893611898E+03  0.11893611898E+03  0.00000000000E+00 0.  1.
         25    2    1    2    0    0  0.10114104952E+03  0.33898430396E+01 -0.21050899999E+02  0.16226545383E+03  0.12508370870E+03 0.  0.
         23    2    1    2    0    0 -0.10114104952E+03 -0.33898430396E+01  0.14898150838E+03  0.20353739250E+03  0.94820764472E+02 0.  0.
          5    1    3    3  502    0 -0.32578850728E+01 -0.15564059609E+02 -0.49643602927E+02  0.52295444144E+02  0.41800000000E+01 0. -1.
         -5    1    3    3    0  502  0.10439893459E+03  0.18953902649E+02  0.28592702927E+02  0.10997000968E+03  0.41800000000E+01 0. -1.
        -11    1    4    4    0    0 -0.96164677282E+02  0.24347575895E+02  0.14409056578E+03  0.17493581896E+03  0.00000000000E+00 0. -1.
         11    1    4    4    0    0 -0.49763722348E+01 -0.27737418935E+02  0.48909426029E+01  0.28601573546E+02  0.00000000000E+00 0.  1.
</event>
<event>
 8    1  0.3654190E-009  0.1245945E+03  0.7561462E-02  0.1235704E+00
          1   -1    0    0  501    0  0.00000000000E+00  0.00000000000E+00  0.49064638440E+02  0.49064638440E+02  0.00000000000E+00 0. -1.
         -1   -1    0    0    0  501 -0.00000000000E+00 -0.00000000000E+00 -0.56547725657E+03  0.56547725657E+03  0.00000000000E+00 0.  1.
         25    2    1    2    0    0  0.31351522599E+02 -0.76748278970E+02 -0.10081212215E+03  0.18079770433E+03  0.12510599356E+03 0.  0.
         23    2    1    2    0    0 -0.31351522599E+02  0.76748278970E+02 -0.41560049598E+03  0.43374419068E+03  0.92396073472E+02 0.  0.
          5    1    3    3  502    0  0.93564938922E+01 -0.95961718260E+02 -0.11323936799E+03  0.14878448243E+03  0.41800000000E+01 0. -1.
         -5    1    3    3    0  502  0.21995028707E+02  0.19213439290E+02  0.12427245843E+02  0.32013221900E+02  0.41800000000E+01 0. -1.
        -11    1    4    4    0    0  0.24832147602E+02 -0.36457064808E+01 -0.64810294982E+02  0.69500367380E+02  0.00000000000E+00 0. -1.
         11    1    4    4    0    0 -0.56183670201E+02  0.80393985451E+02 -0.35079020100E+03  0.36424382330E+03  0.00000000000E+00 0.  1.
</event>
<event>
 8    1  0.3654190E-009  0.1114641E+03  0.7561462E-02  0.1257882E+00
         -1   -1    0    0    0  501 -0.00000000000E+00  0.00000000000E+00  0.71825029817E+03  0.71825029817E+03  0.00000000000E+00 0.  1.
          1   -1    0    0  501    0  0.00000000000E+00 -0.00000000000E+00 -0.23861055263E+02  0.23861055263E+02  0.00000000000E+00 0. -1.
         25    2    1    2    0    0  0.33751688474E+02  0.53484699908E+02  0.28475153900E+03  0.31738150513E+03  0.12509113171E+03 0.  0.
         23    2    1    2    0    0 -0.33751688474E+02 -0.53484699908E+02  0.40963770391E+03  0.42472984831E+03  0.92696310515E+02 0.  0.
          5    1    3    3  502    0  0.25808563808E+02 -0.22409901287E+02  0.15991492308E+02  0.37966904901E+02  0.41800000000E+01 0. -1.
         -5    1    3    3    0  502  0.79431246662E+01  0.75894601195E+02  0.26876004670E+03  0.27941460023E+03  0.41800000000E+01 0. -1.
        -11    1    4    4    0    0 -0.39557587501E+02  0.15760453101E+02  0.16628937125E+03  0.17165473952E+03  0.00000000000E+00 0. -1.
         11    1    4    4    0    0  0.58058990275E+01 -0.69245153009E+02  0.24334833266E+03  0.25307510879E+03  0.00000000000E+00 0.  1.
</event>
<event>
 8    1  0.3654190E-009  0.6436601E+02  0.7561462E-02  0.1380372E+00
         -2   -1    0    0    0  501 -0.00000000000E+00  0.00000000000E+00  0.24474724337E+02  0.24474724337E+02  0.00000000000E+00 0.  1.
          2   -1    0    0  501    0  0.00000000000E+00 -0.00000000000E+00 -0.60665103677E+03  0.60665103677E+03  0.00000000000E+00 0. -1.
         25    2    1    2    0    0 -0.29146165524E+02 -0.67099884379E+01 -0.44054928607E+03  0.45893952162E+03  0.12508912079E+03 0.  0.
         23    2    1    2    0    0  0.29146165524E+02  0.67099884379E+01 -0.14162702636E+03  0.17218623948E+03  0.93248933303E+02 0.  0.
          5    1    3    3  502    0 -0.23014793673E+02 -0.37217154844E+01 -0.61558206389E+01  0.24472401224E+02  0.41800000000E+01 0. -1.
         -5    1    3    3    0  502 -0.61313718509E+01 -0.29882729535E+01 -0.43439346543E+03  0.43446712040E+03  0.41800000000E+01 0. -1.
        -11    1    4    4    0    0 -0.25795315769E+02 -0.23023377312E+02 -0.39776957045E+02  0.52703705090E+02  0.00000000000E+00 0. -1.
         11    1    4    4    0    0  0.54941481293E+02  0.29733365750E+02 -0.10185006931E+03  0.11948253439E+03  0.00000000000E+00 0.  1.
</event>
<event>
 8    1  0.3654190E-009  0.2041953E+03  0.7561462E-02  0.1146247E+00
         -2   -1    0    0    0  501 -0.00000000000E+00  0.00000000000E+00  0.30284559803E+02  0.30284559803E+02  0.00000000000E+00 0.  1.
          2   -1    0    0  501    0  0.00000000000E+00 -0.00000000000E+00 -0.25040378536E+04  0.25040378536E+04  0.00000000000E+00 0. -1.
         25    2    1    2    0    0  0.18064595582E+03  0.42689759647E+02 -0.20550691769E+04  0.20672235317E+04  0.12509369122E+03 0.  0.
         23    2    1    2    0    0 -0.18064595582E+03 -0.42689759647E+02 -0.41868411695E+03  0.46709888167E+03  0.91812845175E+02 0.  0.
          5    1    3    3  502    0 -0.57679102544E+01  0.17182152689E+02 -0.50104065756E+02  0.53445158481E+02  0.41800000000E+01 0. -1.
         -5    1    3    3    0  502  0.18641386608E+03  0.25507606957E+02 -0.20049651111E+04  0.20137783733E+04  0.41800000000E+01 0. -1.
        -11    1    4    4    0    0 -0.13842363769E+03 -0.66011580946E+02 -0.26674870139E+03  0.30769059457E+03  0.00000000000E+00 0.  1.
         11    1    4    4    0    0 -0.42222318133E+02  0.23321821299E+02 -0.15193541556E+03  0.15940828711E+03  0.00000000000E+00 0. -1.
</event>
<event>
 8    1  0.3654190E-009  0.1102049E+03  0.7561462E-02  0.1260191E+00
          3   -1    0    0  501    0  0.00000000000E+00  0.00000000000E+00  0.19579824863E+03  0.19579824863E+03  0.00000000000E+00 0. -1.
         -3   -1    0    0    0  501 -0.00000000000E+00 -0.00000000000E+00 -0.70813216001E+02  0.70813216001E+02  0.00000000000E+00 0.  1.
         25    2    1    2    0    0  0.26397129115E+02  0.31613968720E+02  0.53316914231E+02  0.14207339144E+03  0.12508358713E+03 0.  0.
         23    2    1    2    0    0 -0.26397129115E+02 -0.31613968720E+02  0.71668118396E+02  0.12453807319E+03  0.93151280375E+02 0.  0.
          5    1    3    3  502    0  0.96793995100E+01 -0.48333969245E+02  0.25731645966E+02  0.55762472703E+02  0.41800000000E+01 0. -1.
         -5    1    3    3    0  502  0.16717729605E+02  0.79947937965E+02  0.27585268265E+02  0.86310918737E+02  0.41800000000E+01 0. -1.
        -11    1    4    4    0    0 -0.51161386639E+02 -0.29087013613E+01  0.69786688883E+02  0.86580193877E+02  0.00000000000E+00 0. -1.
         11    1    4    4    0    0  0.24764257524E+02 -0.28705267359E+02  0.18814295124E+01  0.37957879312E+02  0.00000000000E+00 0.  1.
</event>
<event>
 8    1  0.3654190E-009  0.1493393E+03  0.7561462E-02  0.1201287E+00
         -2   -1    0    0    0  501 -0.00000000000E+00  0.00000000000E+00  0.16753517844E+03  0.16753517844E+03  0.00000000000E+00 0. -1.
          2   -1    0    0  501    0  0.00000000000E+00 -0.00000000000E+00 -0.16492376072E+03  0.16492376072E+03  0.00000000000E+00 0.  1.
         25    2    1    2    0    0  0.91718095850E+02 -0.71355295500E+02 -0.46377311587E+02  0.17692508910E+03  0.12509134591E+03 0.  0.
         23    2    1    2    0    0 -0.91718095850E+02  0.71355295500E+02  0.48988729310E+02  0.15553385006E+03  0.91033486208E+02 0.  0.
          5    1    3    3  502    0  0.19126118111E+02 -0.78779019383E+02 -0.62048741880E+02  0.10217368085E+03  0.41800000000E+01 0.  1.
         -5    1    3    3    0  502  0.72591977740E+02  0.74237238826E+01  0.15671430294E+02  0.74751408254E+02  0.41800000000E+01 0.  1.
        -11    1    4    4    0    0 -0.31808500130E+02 -0.18214654465E+02 -0.11702005727E+01  0.36673201213E+02  0.00000000000E+00 0.  1.
         11    1    4    4    0    0 -0.59909595720E+02  0.89569949965E+02  0.50158929883E+02  0.11886064884E+03  0.00000000000E+00 0. -1.
</event>
<event>
 8    1  0.3654190E-009  0.2185489E+03  0.7561462E-02  0.1134970E+00
         -3   -1    0    0    0  501 -0.00000000000E+00  0.00000000000E+00  0.57141779113E+03  0.57141779113E+03  0.00000000000E+00 0.  1.
          3   -1    0    0  501    0  0.00000000000E+00 -0.00000000000E+00 -0.12282421156E+03  0.12282421156E+03  0.00000000000E+00 0. -1.
         25    2    1    2    0    0 -0.20594979408E+03  0.50493919313E+02  0.78340659560E+02  0.25836012739E+03  0.12509093857E+03 0.  0.
         23    2    1    2    0    0  0.20594979408E+03 -0.50493919313E+02  0.37025292001E+03  0.43588187530E+03  0.89111339742E+02 0.  0.
          5    1    3    3  502    0 -0.33006852608E+02  0.27813479627E+02  0.71658523103E+02  0.83758332728E+02  0.41800000000E+01 0.  1.
         -5    1    3    3    0  502 -0.17294294147E+03  0.22680439685E+02  0.66821364563E+01  0.17460179466E+03  0.41800000000E+01 0.  1.
        -11    1    4    4    0    0  0.58202257909E+02  0.10987000262E+02  0.48592780455E+02  0.76612501022E+02  0.00000000000E+00 0. -1.
         11    1    4    4    0    0  0.14774753617E+03 -0.61480919575E+02  0.32166013955E+03  0.35926937428E+03  0.00000000000E+00 0.  1.
</event>
<event>
 8    1  0.3654190E-009  0.1048572E+03  0.7561462E-02  0.1270401E+00
         -2   -1    0    0    0  501 -0.00000000000E+00  0.00000000000E+00  0.16947152571E+02  0.16947152571E+02  0.00000000000E+00 0.  1.
          2   -1    0    0  501    0  0.00000000000E+00 -0.00000000000E+00 -0.69090244423E+03  0.69090244423E+03  0.00000000000E+00 0. -1.
         25    2    1    2    0    0 -0.16683043001E+02 -0.24087677182E+01 -0.38496397823E+03  0.40512684812E+03  0.12508546056E+03 0.  0.
         23    2    1    2    0    0  0.16683043001E+02  0.24087677182E+01 -0.28899131342E+03  0.30272274868E+03  0.88549179826E+02 0.  0.
          5    1    3    3  502    0 -0.64779916971E+02 -0.26162384499E+02 -0.17751917547E+03  0.19081781380E+03  0.41800000000E+01 0. -1.
         -5    1    3    3    0  502  0.48096873969E+02  0.23753616781E+02 -0.20744480276E+03  0.21430903432E+03  0.41800000000E+01 0. -1.
        -11    1    4    4    0    0  0.23630343344E+02 -0.38093174631E+02 -0.10447747294E+03  0.11368828185E+03  0.00000000000E+00 0.  1.
         11    1    4    4    0    0 -0.69473003428E+01  0.40501942349E+02 -0.18451384049E+03  0.18903446682E+03  0.00000000000E+00 0. -1.
</event>
<event>
 8    1  0.3654190E-009  0.1185711E+03  0.7561462E-02  0.1245473E+00
         -1   -1    0    0    0  501 -0.00000000000E+00  0.00000000000E+00  0.49141626548E+03  0.49141626548E+03  0.00000000000E+00 0.  1.
          1   -1    0    0  501    0  0.00000000000E+00 -0.00000000000E+00 -0.36117558547E+02  0.36117558547E+02  0.00000000000E+00 0. -1.
         25    2    1    2    0    0  0.65154479025E+02 -0.99377126065E+01  0.33384895969E+03  0.36255785597E+03  0.12509678962E+03 0.  0.
         23    2    1    2    0    0 -0.65154479025E+02  0.99377126065E+01  0.12144974724E+03  0.16497596805E+03  0.90128600681E+02 0.  0.
          5    1    3    3  502    0  0.70223255022E+02 -0.51935689636E+02  0.14792977544E+03  0.17184095049E+03  0.41800000000E+01 0. -1.
         -5    1    3    3    0  502 -0.50687759966E+01  0.41997977030E+02  0.18591918425E+03  0.19071690548E+03  0.41800000000E+01 0. -1.
        -11    1    4    4    0    0  0.15854076430E+02  0.20042841821E+02  0.51411820871E+02  0.57412912946E+02  0.00000000000E+00 0.  1.
         11    1    4    4    0    0 -0.81008555455E+02 -0.10105129214E+02  0.70037926367E+02  0.10756305510E+03  0.00000000000E+00 0. -1.
</event>
<event>
 8    1  0.3654190E-009  0.1510304E+03  0.7561462E-02  0.1199213E+00
          2   -1    0    0  501    0  0.00000000000E+00  0.00000000000E+00  0.58648365819E+03  0.58648365819E+03  0.00000000000E+00 0. -1.
         -2   -1    0    0    0  501 -0.00000000000E+00 -0.00000000000E+00 -0.55206049822E+02  0.55206049822E+02  0.00000000000E+00 0.  1.
         25    2    1    2    0    0 -0.89858850162E+02 -0.90780690937E+02  0.16511727265E+03  0.24336487877E+03  0.12508798381E+03 0.  0.
         23    2    1    2    0    0  0.89858850162E+02  0.90780690937E+02  0.36616033572E+03  0.39832482924E+03  0.90958954129E+02 0.  0.
          5    1    3    3  502    0 -0.83492856450E+01  0.25388499883E+02  0.20138270394E+01  0.27125898998E+02  0.41800000000E+01 0. -1.
         -5    1    3    3    0  502 -0.81509564517E+02 -0.11616919082E+03  0.16310344561E+03  0.21623897977E+03  0.41800000000E+01 0. -1.
        -11    1    4    4    0    0  0.14377605498E+02 -0.74941010876E+00  0.10642605076E+01  0.14436405570E+02  0.00000000000E+00 0.  1.
         11    1    4    4    0    0  0.75481244664E+02  0.91530101046E+02  0.36509607521E+03  0.38388842367E+03  0.00000000000E+00 0. -1.
</event>
<event>
 8    1  0.3654190E-009  0.1012925E+03  0.7561462E-02  0.1277601E+00
          1   -1    0    0  501    0  0.00000000000E+00  0.00000000000E+00  0.17551019674E+03  0.17551019674E+03  0.00000000000E+00 0. -1.
         -1   -1    0    0    0  501 -0.00000000000E+00 -0.00000000000E+00 -0.98025041174E+02  0.98025041174E+02  0.00000000000E+00 0.  1.
         25    2    1    2    0    0 -0.43172035331E+02  0.53412770026E+02  0.61322530607E+02  0.15532226244E+03  0.12509118199E+03 0.  0.
         23    2    1    2    0    0  0.43172035331E+02 -0.53412770026E+02  0.16162624962E+02  0.11821297548E+03  0.94848977271E+02 0.  0.
          5    1    3    3  502    0 -0.50458649356E+02 -0.13091937483E+02 -0.14349584485E+02  0.54229669894E+02  0.41800000000E+01 0.  1.
         -5    1    3    3    0  502  0.72866140253E+01  0.66504707510E+02  0.75672115093E+02  0.10109259255E+03  0.41800000000E+01 0.  1.
        -11    1    4    4    0    0  0.16956651638E+02 -0.54439995932E+02 -0.30512112047E+02  0.64670164476E+02  0.00000000000E+00 0.  1.
         11    1    4    4    0    0  0.26215383693E+02  0.10272259051E+01  0.46674737009E+02  0.53542811003E+02  0.00000000000E+00 0. -1.
</event>
<event>
 8    1  0.3654190E-009  0.1043207E+03  0.7561462E-02  0.1271464E+00
         -1   -1    0    0    0  501 -0.00000000000E+00  0.00000000000E+00  0.22574057417E+03  0.22574057417E+03  0.00000000000E+00 0.  1.
          1   -1    0    0  501    0  0.00000000000E+00 -0.00000000000E+00 -0.13847506862E+03  0.13847506862E+03  0.00000000000E+00 0. -1.
         25    2    1    2    0    0  0.22264558055E+02  0.19072137180E+02 -0.92321957607E+02  0.15819870987E+03  0.12507610078E+03 0.  0.
         23    2    1    2    0    0 -0.22264558055E+02 -0.19072137180E+02  0.17958746316E+03  0.20601693292E+03  0.96601567102E+02 0.  0.
          5    1    3    3  502    0  0.13581672228E+02  0.72650795246E+02 -0.53170562599E+02  0.91143738114E+02  0.41800000000E+01 0. -1.
         -5    1    3    3    0  502  0.86828858273E+01 -0.53578658065E+02 -0.39151395008E+02  0.67054971758E+02  0.41800000000E+01 0. -1.
        -11    1    4    4    0    0  0.25826884974E+02 -0.19035790505E+02  0.16683327196E+02  0.36162448948E+02  0.00000000000E+00 0. -1.
         11    1    4    4    0    0 -0.48091443029E+02 -0.36346675500E-01  0.16290413596E+03  0.16985448398E+03  0.00000000000E+00 0.  1.
</event>
<event>
 8    1  0.3654190E-009  0.9545185E+02  0.7561462E-02  0.1290162E+00
          1   -1    0    0  501    0  0.00000000000E+00  0.00000000000E+00  0.99644888981E+03  0.99644888981E+03  0.00000000000E+00 0. -1.
         -1   -1    0    0    0  501 -0.00000000000E+00 -0.00000000000E+00 -0.17757936231E+02  0.17757936231E+02  0.00000000000E+00 0.  1.
         25    2    1    2    0    0  0.32026206946E+02 -0.64404901664E+02  0.49867154775E+03  0.51913260331E+03  0.12510666644E+03 0.  0.
         23    2    1    2    0    0 -0.32026206946E+02  0.64404901664E+02  0.48001940583E+03  0.49507422274E+03  0.97499675676E+02 0.  0.
          5    1    3    3  502    0  0.81478810471E+01 -0.33086709976E+02  0.46743118031E+03  0.46869019519E+03  0.41800000000E+01 0. -1.
         -5    1    3    3    0  502  0.23878325899E+02 -0.31318191689E+02  0.31240367443E+02  0.50442408114E+02  0.41800000000E+01 0. -1.
        -11    1    4    4    0    0  0.16809665825E+02  0.66000167627E+02  0.21308857134E+03  0.22370812731E+03  0.00000000000E+00 0.  1.
         11    1    4    4    0    0 -0.48835872771E+02 -0.15952659624E+01  0.26693083449E+03  0.27136609542E+03  0.00000000000E+00 0. -1.
</event>
<event>
 8    1  0.3654190E-009  0.4713688E+03  0.7561462E-02  0.1021535E+00
          2   -1    0    0  501    0  0.00000000000E+00  0.00000000000E+00  0.13865514046E+04  0.13865514046E+04  0.00000000000E+00 0. -1.
         -2   -1    0    0    0  501 -0.00000000000E+00 -0.00000000000E+00 -0.16329097392E+03  0.16329097392E+03  0.00000000000E+00 0.  1.
         25    2    1    2    0    0  0.35679626930E+03 -0.29513298184E+03  0.62686229708E+03  0.78931113086E+03  0.12509463239E+03 0.  0.
         23    2    1    2    0    0 -0.35679626930E+03  0.29513298184E+03  0.59639813362E+03  0.76053124768E+03  0.91159147382E+02 0.  0.
          5    1    3    3  502    0  0.88169134182E+02 -0.28599686107E+02  0.18915936130E+03  0.21069047116E+03  0.41800000000E+01 0.  1.
         -5    1    3    3    0  502  0.26862713512E+03 -0.26653329573E+03  0.43770293577E+03  0.57862065971E+03  0.41800000000E+01 0.  1.
        -11    1    4    4    0    0 -0.44944355682E+02  0.82872551190E+02  0.10674463455E+03  0.14241584130E+03  0.00000000000E+00 0.  1.
         11    1    4    4    0    0 -0.31185191362E+03  0.21226043065E+03  0.48965349907E+03  0.61811540637E+03  0.00000000000E+00 0. -1.
</event>
<event>
 8    1  0.3654190E-009  0.1385710E+03  0.7561462E-02  0.1215265E+00
         -1   -1    0    0    0  501 -0.00000000000E+00  0.00000000000E+00  0.44451827412E+02  0.44451827412E+02  0.00000000000E+00 0.  1.
          1   -1    0    0  501    0  0.00000000000E+00 -0.00000000000E+00 -0.49574022956E+03  0.49574022956E+03  0.00000000000E+00 0. -1.
         25    2    1    2    0    0  0.86864586699E+02  0.18175565069E+02 -0.15578357157E+03  0.21861363948E+03  0.12509034578E+03 0.  0.
         23    2    1    2    0    0 -0.86864586699E+02 -0.18175565069E+02 -0.29550483058E+03  0.32157841750E+03  0.90629830160E+02 0.  0.
          5    1    3    3  502    0  0.67178385696E+02  0.68650162662E+02 -0.11905079642E+03  0.15302400095E+03  0.41800000000E+01 0.  1.
         -5    1    3    3    0  502  0.19686201003E+02 -0.50474597594E+02 -0.36732775151E+02  0.65589638529E+02  0.41800000000E+01 0.  1.
        -11    1    4    4    0    0 -0.10295586205E+03 -0.77203376414E+00 -0.24668635938E+03  0.26731005494E+03  0.00000000000E+00 0.  1.
         11    1    4    4    0    0  0.16091275353E+02 -0.17403531304E+02 -0.48818471205E+02  0.54268362561E+02  0.00000000000E+00 0. -1.
</event>
<event>
 8    1  0.3654190E-009  0.1783127E+03  0.7561462E-02  0.1169446E+00
         -2   -1    0    0    0  501 -0.00000000000E+00  0.00000000000E+00  0.19919916430E+03  0.19919916430E+03  0.00000000000E+00 0.  1.
          2   -1    0    0  501    0  0.00000000000E+00 -0.00000000000E+00 -0.33424711732E+03  0.33424711732E+03  0.00000000000E+00 0. -1.
         25    2    1    2    0    0  0.59312674102E+02 -0.16266702725E+03 -0.23166372572E+03  0.31511008187E+03  0.12509087422E+03 0.  0.
         23    2    1    2    0    0 -0.59312674102E+02  0.16266702725E+03  0.96615772702E+02  0.21833619975E+03  0.91419546726E+02 0.  0.
          5    1    3    3  502    0  0.57886410059E+02 -0.11010948047E+03 -0.23095824590E+03  0.26236256956E+03  0.41800000000E+01 0. -1.
         -5    1    3    3    0  502  0.14262640430E+01 -0.52557546777E+02 -0.70547982471E+00  0.52747512302E+02  0.41800000000E+01 0. -1.
        -11    1    4    4    0    0 -0.20561070471E+02  0.11921006502E+02  0.50801842909E+02  0.56086498000E+02  0.00000000000E+00 0.  1.
         11    1    4    4    0    0 -0.38751603632E+02  0.15074602075E+03  0.45813929793E+02  0.16224970175E+03  0.00000000000E+00 0. -1.
</event>
<event>
 8    1  0.3654190E-009  0.2109407E+03  0.7561462E-02  0.1140823E+00
          2   -1    0    0  501    0  0.00000000000E+00  0.00000000000E+00  0.37400447801E+03  0.37400447801E+03  0.00000000000E+00 0. -1.
         -2   -1    0    0    0  501 -0.00000000000E+00 -0.00000000000E+00 -0.13264035973E+03  0.13264035973E+03  0.00000000000E+00 0.  1.
         25    2    1    2    0    0  0.15208932758E+03 -0.10388918585E+03  0.54338874559E+02  0.22918118950E+03  0.12508867987E+03 0.  0.
         23    2    1    2    0    0 -0.15208932758E+03  0.10388918585E+03  0.18702524372E+03  0.27746364823E+03  0.89908329967E+02 0.  0.
          5    1    3    3  502    0  0.53561967319E+02 -0.10855928431E+03  0.11864229837E+02  0.12170552536E+03  0.41800000000E+01 0.  1.
         -5    1    3    3    0  502  0.98527360263E+02  0.46700984526E+01  0.42474644722E+02  0.10747566415E+03  0.41800000000E+01 0.  1.
        -11    1    4    4    0    0 -0.41783535003E+02  0.78365219132E+02  0.59331246639E+02  0.10680434539E+03  0.00000000000E+00 0. -1.
         11    1    4    4    0    0 -0.11030579258E+03  0.25523966723E+02  0.12769399708E+03  0.17065930284E+03  0.00000000000E+00 0.  1.
</event>
<event>
 8    1  0.3654190E-009  0.1118413E+03  0.7561462E-02  0.1257198E+00
         -2   -1    0    0    0  501 -0.00000000000E+00  0.00000000000E+00  0.16107905067E+03  0.16107905067E+03  0.00000000000E+00 0.  1.
          2   -1    0    0  501    0  0.00000000000E+00 -0.00000000000E+00 -0.13538128043E+03  0.13538128043E+03  0.00000000000E+00 0. -1.
         25    2    1    2    0    0 -0.47454348196E+02 -0.90198656284E+02  0.41615759536E+02  0.16663117129E+03  0.12508542299E+03 0.  0.
         23    2    1    2    0    0  0.47454348196E+02  0.90198656284E+02 -0.15917989296E+02  0.12982915981E+03  0.78832198981E+02 0.  0.
          5    1    3    3  502    0 -0.20537823660E+02 -0.90608681066E+02 -0.23604635605E+02  0.95949916661E+02  0.41800000000E+01 0.  1.
         -5    1    3    3    0  502 -0.26916524537E+02  0.41002478176E+00  0.65220395142E+02  0.70681254629E+02  0.41800000000E+01 0.  1.
        -11    1    4    4    0    0  0.30672014111E+02  0.74042194949E+02  0.23957224755E+02  0.83647879235E+02  0.00000000000E+00 0.  1.
         11    1    4    4    0    0  0.16782334085E+02  0.16156461335E+02 -0.39875214051E+02  0.46181280578E+02  0.00000000000E+00 0. -1.
</event>
<event>
 8    1  0.3654190E-009  0.1265011E+03  0.7561462E-02  0.1232742E+00
         -1   -1    0    0    0  501 -0.00000000000E+00  0.00000000000E+00  0.12271104431E+03  0.12271104431E+03  0.00000000000E+00 0.  1.
          1   -1    0    0  501    0  0.00000000000E+00 -0.00000000000E+00 -0.29101772686E+03  0.29101772686E+03  0.00000000000E+00 0. -1.
         25    2    1    2    0    0  0.20380875815E+02 -0.75073374433E+02 -0.23287693976E+03  0.27555489166E+03  0.12508971820E+03 0.  0.
         23    2    1    2    0    0 -0.20380875815E+02  0.75073374433E+02  0.64570257213E+02  0.13817387951E+03  0.94187638330E+02 0.  0.
          5    1    3    3  502    0  0.72458221137E+02 -0.39953077231E+02 -0.15146626992E+03  0.17264398487E+03  0.41800000000E+01 0. -1.
         -5    1    3    3    0  502 -0.52077345322E+02 -0.35120297202E+02 -0.81410669841E+02  0.10291090678E+03  0.41800000000E+01 0. -1.
        -11    1    4    4    0    0 -0.47927857087E+02  0.38865586007E+02  0.32127619379E+01  0.61789441654E+02  0.00000000000E+00 0. -1.
         11    1    4    4    0    0  0.27546981272E+02  0.36207788426E+02  0.61357495275E+02  0.76384437854E+02  0.00000000000E+00 0.  1.
</event>
<event>
 8    1  0.3654190E-009  0.1414632E+03  0.7561462E-02  0.1211374E+00
          1   -1    0    0  501    0  0.00000000000E+00  0.00000000000E+00  0.29176631119E+02  0.29176631119E+02  0.00000000000E+00 0. -1.
         -1   -1    0    0    0  501 -0.00000000000E+00 -0.00000000000E+00 -0.92303959698E+03  0.92303959698E+03  0.00000000000E+00 0.  1.
         25    2    1    2    0    0 -0.96007683099E+02 -0.39047918094E+02 -0.28869393404E+03  0.33126080739E+03  0.12508924748E+03 0.  0.
         23    2    1    2    0    0  0.96007683099E+02  0.39047918094E+02 -0.60516903182E+03  0.62095542072E+03  0.92810895467E+02 0.  0.
          5    1    3    3  502    0 -0.11833986321E+03 -0.34705864477E+02 -0.16843839720E+03  0.20880082927E+03  0.41800000000E+01 0. -1.
         -5    1    3    3    0  502  0.22332180113E+02 -0.43420536169E+01 -0.12025553684E+03  0.12245997811E+03  0.41800000000E+01 0. -1.
        -11    1    4    4    0    0  0.59991446272E+01  0.45750966915E+02 -0.26651926466E+03  0.27048411995E+03  0.00000000000E+00 0.  1.
         11    1    4    4    0    0  0.90008538472E+02 -0.67030488211E+01 -0.33864976716E+03  0.35047130076E+03  0.00000000000E+00 0. -1.
</event>
<event>
 8    1  0.3654190E-009  0.1824932E+03  0.7561462E-02  0.1165412E+00
          2   -1    0    0  501    0  0.00000000000E+00  0.00000000000E+00  0.46959920085E+03  0.46959920085E+03  0.00000000000E+00 0. -1.
         -2   -1    0    0    0  501 -0.00000000000E+00 -0.00000000000E+00 -0.79559965908E+02  0.79559965908E+02  0.00000000000E+00 0.  1.
         25    2    1    2    0    0 -0.14358867726E+03 -0.68898616593E+02  0.19585202060E+03  0.28172682425E+03  0.12508901601E+03 0.  0.
         23    2    1    2    0    0  0.14358867726E+03  0.68898616593E+02  0.19418721434E+03  0.26743234251E+03  0.91905690789E+02 0.  0.
          5    1    3    3  502    0 -0.16089986102E+03 -0.76223769628E+02  0.15315679647E+03  0.23488998497E+03  0.41800000000E+01 0. -1.
         -5    1    3    3    0  502  0.17311183768E+02  0.73251530351E+01  0.42695224130E+02  0.46836839282E+02  0.41800000000E+01 0. -1.
        -11    1    4    4    0    0  0.40270318277E+02  0.47240270908E+02  0.22774154869E+02  0.66121130205E+02  0.00000000000E+00 0.  1.
         11    1    4    4    0    0  0.10331835898E+03  0.21658345685E+02  0.17141305947E+03  0.20131121230E+03  0.00000000000E+00 0. -1.
</event>
