<event>
 7    1  0.1330601E-005  0.1298776E+03  0.7546771E-02  0.1241485E+00
         -2   -1    0    0    0  501 -0.00000000000E+00  0.00000000000E+00  0.50431780428E+03  0.50431780428E+03  0.00000000000E+00 0.  1.
          2   -1    0    0  501    0  0.00000000000E+00 -0.00000000000E+00 -0.50233985334E+02  0.50233985334E+02  0.00000000000E+00 0. -1.
         23    2    1    2    0    0 -0.14218407861E+01  0.35234216936E+02  0.17862562937E+02  0.99406554886E+02  0.91209211845E+02 0.  0.
          5    1    1    2  502    0 -0.43219720965E+02  0.18087626069E+01  0.58185289932E+02  0.72655583866E+02  0.47000000000E+01 0.  1.
         -5    1    1    2    0  502  0.44641561751E+02 -0.37042979542E+02  0.37803596607E+03  0.38248965086E+03  0.47000000000E+01 0.  1.
        -11    1    3    3    0    0  0.31367700869E+02  0.30482593994E+02 -0.20847625285E+02  0.48453531083E+02  0.00000000000E+00 0. -1.
         11    1    3    3    0    0 -0.32789541655E+02  0.47516229412E+01  0.38710188222E+02  0.50953023803E+02  0.00000000000E+00 0.  1.
<mgrwt>
<rscale>  0 0.12098255E+03</rscale>
<asrwt>0</asrwt>
<pdfrwt beam="2">  1        2 0.77283058E-02 0.12987764E+03</pdfrwt>
<pdfrwt beam="1">  1       -2 0.77587351E-01 0.12987764E+03</pdfrwt>
<totfact> 0.13117747E+03</totfact>
</mgrwt>
</event>
<event>
 7    1  0.1330601E-005  0.1738141E+03  0.7546771E-02  0.1180077E+00
         -2   -1    0    0    0  501 -0.00000000000E+00  0.00000000000E+00  0.45061944911E+02  0.45061944911E+02  0.00000000000E+00 0.  1.
          2   -1    0    0  501    0  0.00000000000E+00 -0.00000000000E+00 -0.88455094206E+03  0.88455094206E+03  0.00000000000E+00 0. -1.
         23    2    1    2    0    0  0.18700118993E+01 -0.12075515401E+03 -0.66992304891E+03  0.68678791508E+03  0.91079331784E+02 0.  0.
          5    1    1    2  502    0  0.59121795535E+02  0.36559868392E+02 -0.64609199936E+02  0.95018153005E+02  0.47000000000E+01 0. -1.
         -5    1    1    2    0  502 -0.60991807434E+02  0.84195285616E+02 -0.10495674830E+03  0.14780681888E+03  0.47000000000E+01 0. -1.
        -11    1    3    3    0    0  0.36801815412E+02 -0.97849041603E+02 -0.54868656782E+03  0.55855685321E+03  0.00000000000E+00 0.  1.
         11    1    3    3    0    0 -0.34931803513E+02 -0.22906112405E+02 -0.12123648109E+03  0.12823106187E+03  0.00000000000E+00 0. -1.
<mgrwt>
<rscale>  0 0.16787948E+03</rscale>
<asrwt>0</asrwt>
<pdfrwt beam="2">  1        2 0.13608477E+00 0.17381414E+03</pdfrwt>
<pdfrwt beam="1">  1       -2 0.69326064E-02 0.17381414E+03</pdfrwt>
<totfact> 0.36298577E+03</totfact>
</mgrwt>
</event>
<event>
 7    1  0.1330601E-005  0.1250203E+03  0.7546771E-02  0.1250771E+00
         -2   -1    0    0    0  501 -0.00000000000E+00  0.00000000000E+00  0.47060514550E+02  0.47060514550E+02  0.00000000000E+00 0.  1.
          2   -1    0    0  501    0  0.00000000000E+00 -0.00000000000E+00 -0.24912840896E+03  0.24912840896E+03  0.00000000000E+00 0. -1.
         23    2    1    2    0    0  0.14024468245E+00 -0.26623808426E+01 -0.95806947955E+02  0.13211131082E+03  0.90924799862E+02 0.  0.
          5    1    1    2  502    0 -0.58045628903E+02  0.20490164133E+01 -0.23214219450E+02  0.62725461240E+02  0.47000000000E+01 0.  1.
         -5    1    1    2    0  502  0.57905384221E+02  0.61336442936E+00 -0.83046727008E+02  0.10135215145E+03  0.47000000000E+01 0.  1.
        -11    1    3    3    0    0 -0.43879736456E+02 -0.65525174182E+01 -0.63085248986E+02  0.77124026059E+02  0.00000000000E+00 0.  1.
         11    1    3    3    0    0  0.44019981138E+02  0.38901365755E+01 -0.32721698969E+02  0.54987284761E+02  0.00000000000E+00 0. -1.
<mgrwt>
<rscale>  0 0.11546560E+03</rscale>
<asrwt>0</asrwt>
<pdfrwt beam="2">  1        2 0.38327448E-01 0.12502030E+03</pdfrwt>
<pdfrwt beam="1">  1       -2 0.72400791E-02 0.12502030E+03</pdfrwt>
<totfact> 0.13800320E+04</totfact>
</mgrwt>
</event>
<event>
 7    1  0.1330601E-005  0.2267743E+03  0.7546771E-02  0.1128931E+00
          4   -1    0    0  501    0  0.00000000000E+00  0.00000000000E+00  0.51460746573E+03  0.51460746573E+03  0.00000000000E+00 0.  1.
         -4   -1    0    0    0  501 -0.00000000000E+00 -0.00000000000E+00 -0.24983402965E+02  0.24983402965E+02  0.00000000000E+00 0. -1.
         23    2    1    2    0    0  0.28774440218E+02 -0.13059395076E+02  0.23988509604E+03  0.25853272458E+03  0.91081250360E+02 0.  0.
          5    1    1    2  502    0 -0.67933236533E+02 -0.69417452981E+00  0.74604000977E+02  0.10101115516E+03  0.47000000000E+01 0.  1.
         -5    1    1    2    0  502  0.39158796316E+02  0.13753569606E+02  0.17513496575E+03  0.18004698896E+03  0.47000000000E+01 0.  1.
        -11    1    3    3    0    0 -0.31697144264E+02  0.49210243338E+01  0.10144130643E+03  0.10639203018E+03  0.00000000000E+00 0.  1.
         11    1    3    3    0    0  0.60471584481E+02 -0.17980419410E+02  0.13844378961E+03  0.15214069440E+03  0.00000000000E+00 0. -1.
<mgrwt>
<rscale>  0 0.22677430E+03</rscale>
<asrwt>0</asrwt>
<pdfrwt beam="1">  1        4 0.79170371E-01 0.22677430E+03</pdfrwt>
<pdfrwt beam="2">  1       -4 0.38436008E-02 0.22677430E+03</pdfrwt>
<totfact> 0.96585938E+02</totfact>
</mgrwt>
</event>
<event>
 7    1  0.1330601E-005  0.1374096E+03  0.7546771E-02  0.1228680E+00
         -1   -1    0    0    0  501 -0.00000000000E+00  0.00000000000E+00  0.31366328186E+02  0.31366328186E+02  0.00000000000E+00 0.  1.
          1   -1    0    0  501    0  0.00000000000E+00 -0.00000000000E+00 -0.53138882494E+03  0.53138882494E+03  0.00000000000E+00 0. -1.
         23    2    1    2    0    0 -0.31019414182E+02 -0.47894255314E+02 -0.31148842615E+03  0.32946026967E+03  0.90900857643E+02 0.  0.
          5    1    1    2  502    0  0.23022873272E+02  0.14644292524E+02  0.11735643210E+02  0.30071968987E+02  0.47000000000E+01 0.  1.
         -5    1    1    2    0  502  0.79965409097E+01  0.33249962790E+02 -0.20026971382E+03  0.20322291447E+03  0.47000000000E+01 0.  1.
        -11    1    3    3    0    0  0.19979354871E+02 -0.39693847381E+02 -0.73162740719E+02  0.85601184398E+02  0.00000000000E+00 0.  1.
         11    1    3    3    0    0 -0.50998769053E+02 -0.82004079334E+01 -0.23832568543E+03  0.24385908528E+03  0.00000000000E+00 0. -1.
<mgrwt>
<rscale>  0 0.12917839E+03</rscale>
<asrwt>0</asrwt>
<pdfrwt beam="2">  1        1 0.81752129E-01 0.13740963E+03</pdfrwt>
<pdfrwt beam="1">  1       -1 0.48255889E-02 0.13740963E+03</pdfrwt>
<totfact> 0.74046877E+03</totfact>
</mgrwt>
</event>
<event>
 7    1  0.1330601E-005  0.1925560E+03  0.7546771E-02  0.1160687E+00
         -1   -1    0    0    0  501 -0.00000000000E+00  0.00000000000E+00  0.42342536120E+02  0.42342536120E+02  0.00000000000E+00 0.  1.
          1   -1    0    0  501    0  0.00000000000E+00 -0.00000000000E+00 -0.79363194474E+03  0.79363194474E+03  0.00000000000E+00 0. -1.
         23    2    1    2    0    0  0.48727590714E+02 -0.13812264882E+03 -0.32906082598E+03  0.37191113861E+03  0.92653243933E+02 0.  0.
          5    1    1    2  502    0 -0.70553003406E+02  0.14584797134E+03 -0.40013803801E+03  0.43171969668E+03  0.47000000000E+01 0. -1.
         -5    1    1    2    0  502  0.21825412693E+02 -0.77253225257E+01 -0.22090544630E+02  0.32343645579E+02  0.47000000000E+01 0. -1.
        -11    1    3    3    0    0  0.29951076293E+02 -0.58619400305E+02 -0.54517329129E+02  0.85471868112E+02  0.00000000000E+00 0.  1.
         11    1    3    3    0    0  0.18776514421E+02 -0.79503248513E+02 -0.27454349685E+03  0.28643927050E+03  0.00000000000E+00 0. -1.
<mgrwt>
<rscale>  0 0.18755326E+03</rscale>
<asrwt>0</asrwt>
<pdfrwt beam="2">  1        1 0.12209723E+00 0.19255599E+03</pdfrwt>
<pdfrwt beam="1">  1       -1 0.65142362E-02 0.19255599E+03</pdfrwt>
<totfact> 0.27270828E+03</totfact>
</mgrwt>
</event>
<event>
 7    1  0.1330601E-005  0.1854156E+03  0.7546771E-02  0.1167659E+00
          2   -1    0    0  501    0  0.00000000000E+00  0.00000000000E+00  0.69867983884E+03  0.69867983884E+03  0.00000000000E+00 0. -1.
         -2   -1    0    0    0  501 -0.00000000000E+00 -0.00000000000E+00 -0.48372398917E+02  0.48372398917E+02  0.00000000000E+00 0.  1.
         23    2    1    2    0    0  0.84122708433E+02  0.10805766594E+03  0.42033435562E+03  0.45164308645E+03  0.92452245941E+02 0.  0.
          5    1    1    2  502    0  0.20492022605E+02 -0.57436072789E+02  0.41426317965E+02  0.73871884151E+02  0.47000000000E+01 0. -1.
         -5    1    1    2    0  502 -0.10461473104E+03 -0.50621593150E+02  0.18854676634E+03  0.22153726716E+03  0.47000000000E+01 0. -1.
        -11    1    3    3    0    0  0.10446487602E+03  0.89248011487E+02  0.34301229353E+03  0.36950717366E+03  0.00000000000E+00 0. -1.
         11    1    3    3    0    0 -0.20342167590E+02  0.18809654452E+02  0.77322062096E+02  0.82135912789E+02  0.00000000000E+00 0.  1.
<mgrwt>
<rscale>  0 0.18014867E+03</rscale>
<asrwt>0</asrwt>
<pdfrwt beam="1">  1        2 0.10748920E+00 0.18541561E+03</pdfrwt>
<pdfrwt beam="2">  1       -2 0.74419080E-02 0.18541561E+03</pdfrwt>
<totfact> 0.43806062E+03</totfact>
</mgrwt>
</event>
<event>
 7    1  0.2463095E-005  0.2200137E+03  0.7546771E-02  0.1137342E+00
          2   -1    0    0  501    0  0.00000000000E+00  0.00000000000E+00  0.28821883177E+03  0.28821883177E+03  0.00000000000E+00 0. -1.
         -2   -1    0    0    0  501 -0.00000000000E+00 -0.00000000000E+00 -0.15467605346E+03  0.15467605346E+03  0.00000000000E+00 0.  1.
         23    2    1    2    0    0 -0.13366558688E+03  0.12212601425E+03  0.67357539700E+02  0.21314170828E+03  0.90061629910E+02 0.  0.
          5    1    1    2  502    0 -0.18303594552E+02 -0.19005438047E+02 -0.12895379855E+02  0.29742378359E+02  0.47000000000E+01 0. -1.
         -5    1    1    2    0  502  0.15196918143E+03 -0.10312057620E+03  0.79080618467E+02  0.20001079860E+03  0.47000000000E+01 0. -1.
        -11    1    3    3    0    0 -0.29804273112E+02  0.86337928468E+02  0.41291563990E+02  0.10023734755E+03  0.00000000000E+00 0. -1.
         11    1    3    3    0    0 -0.10386131376E+03  0.35788085777E+02  0.26065975710E+02  0.11290436072E+03  0.00000000000E+00 0.  1.
<mgrwt>
<rscale>  0 0.21542325E+03</rscale>
<asrwt>0</asrwt>
<pdfrwt beam="1">  1        2 0.44341359E-01 0.22001372E+03</pdfrwt>
<pdfrwt beam="2">  1       -2 0.23796316E-01 0.22001372E+03</pdfrwt>
<totfact> 0.17599413E+03</totfact>
</mgrwt>
</event>
<event>
 7    1  0.1330601E-005  0.1274512E+03  0.7546771E-02  0.1246419E+00
         -1   -1    0    0    0  501 -0.00000000000E+00  0.00000000000E+00  0.94897120686E+02  0.94897120686E+02  0.00000000000E+00 0.  1.
          1   -1    0    0  501    0  0.00000000000E+00 -0.00000000000E+00 -0.13326062061E+03  0.13326062061E+03  0.00000000000E+00 0. -1.
         23    2    1    2    0    0 -0.17552574323E+02  0.17590009646E+02 -0.36948015425E+02  0.10069868839E+03  0.90319259823E+02 0.  0.
          5    1    1    2  502    0  0.15812738424E+02  0.19604583896E+02  0.54438707879E+02  0.60166812461E+02  0.47000000000E+01 0.  1.
         -5    1    1    2    0  502  0.17398358989E+01 -0.37194593542E+02 -0.55854192374E+02  0.67292240440E+02  0.47000000000E+01 0.  1.
        -11    1    3    3    0    0  0.10163238243E+02  0.45488472778E+02 -0.39771443836E+02  0.61272018998E+02  0.00000000000E+00 0. -1.
         11    1    3    3    0    0 -0.27715812566E+02 -0.27898463133E+02  0.28234284108E+01  0.39426669392E+02  0.00000000000E+00 0.  1.
<mgrwt>
<rscale>  0 0.11800876E+03</rscale>
<asrwt>0</asrwt>
<pdfrwt beam="2">  1        1 0.20501634E-01 0.12745119E+03</pdfrwt>
<pdfrwt beam="1">  1       -1 0.14599557E-01 0.12745119E+03</pdfrwt>
<totfact> 0.78096542E+03</totfact>
</mgrwt>
</event>
<event>
 7    1  0.1330601E-005  0.1408670E+03  0.7546771E-02  0.1223215E+00
          2   -1    0    0  501    0  0.00000000000E+00  0.00000000000E+00  0.43493750086E+03  0.43493750086E+03  0.00000000000E+00 0. -1.
         -2   -1    0    0    0  501 -0.00000000000E+00 -0.00000000000E+00 -0.38679919389E+02  0.38679919389E+02  0.00000000000E+00 0.  1.
         23    2    1    2    0    0 -0.53081841465E+02  0.37432194849E+02  0.23044093092E+03  0.25604292699E+03  0.90752998352E+02 0.  0.
          5    1    1    2  502    0  0.46757090292E+01  0.26163262148E+01 -0.20072036106E+02  0.21299860357E+02  0.47000000000E+01 0. -1.
         -5    1    1    2    0  502  0.48406132436E+02 -0.40048521064E+02  0.18588868665E+03  0.19627463290E+03  0.47000000000E+01 0. -1.
        -11    1    3    3    0    0  0.92829616892E+01  0.45696542894E+02  0.12295607746E+03  0.13150111936E+03  0.00000000000E+00 0. -1.
         11    1    3    3    0    0 -0.62364803154E+02 -0.82643480451E+01  0.10748485347E+03  0.12454180762E+03  0.00000000000E+00 0.  1.
<mgrwt>
<rscale>  0 0.13289989E+03</rscale>
<asrwt>0</asrwt>
<pdfrwt beam="1">  1        2 0.66913458E-01 0.14086695E+03</pdfrwt>
<pdfrwt beam="2">  1       -2 0.59507571E-02 0.14086695E+03</pdfrwt>
<totfact> 0.10387748E+04</totfact>
</mgrwt>
</event>
<event>
 7    1  0.1330601E-005  0.1847311E+03  0.7546771E-02  0.1168346E+00
          3   -1    0    0  501    0  0.00000000000E+00  0.00000000000E+00  0.49407987516E+03  0.49407987516E+03  0.00000000000E+00 0. -1.
         -3   -1    0    0    0  501 -0.00000000000E+00 -0.00000000000E+00 -0.67531678725E+02  0.67531678725E+02  0.00000000000E+00 0.  1.
         23    2    1    2    0    0 -0.13591432995E+03  0.52549773462E+01  0.28436760680E+03  0.32850021965E+03  0.92450736288E+02 0.  0.
          5    1    1    2  502    0 -0.12457697261E+02 -0.30127802994E+02  0.15605827777E+02  0.36448739277E+02  0.47000000000E+01 0. -1.
         -5    1    1    2    0  502  0.14837202721E+03  0.24872825648E+02  0.12657476185E+03  0.19666259495E+03  0.47000000000E+01 0. -1.
        -11    1    3    3    0    0 -0.42573542046E+02  0.43671639101E+02  0.13604270057E+03  0.14908834603E+03  0.00000000000E+00 0.  1.
         11    1    3    3    0    0 -0.93340787907E+02 -0.38416661755E+02  0.14832490623E+03  0.17941187362E+03  0.00000000000E+00 0. -1.
<mgrwt>
<rscale>  0 0.17944063E+03</rscale>
<asrwt>0</asrwt>
<pdfrwt beam="1">  1        3 0.76012286E-01 0.18473109E+03</pdfrwt>
<pdfrwt beam="2">  1       -3 0.10389489E-01 0.18473109E+03</pdfrwt>
<totfact> 0.27956731E+02</totfact>
</mgrwt>
</event>
<event>
 7    1  0.1330601E-005  0.1366265E+03  0.7546771E-02  0.1230096E+00
          2   -1    0    0  501    0  0.00000000000E+00  0.00000000000E+00  0.31368662989E+02  0.31368662989E+02  0.00000000000E+00 0. -1.
         -2   -1    0    0    0  501 -0.00000000000E+00 -0.00000000000E+00 -0.48504732813E+03  0.48504732813E+03  0.00000000000E+00 0.  1.
         23    2    1    2    0    0 -0.43283764942E+02  0.34177851180E+02 -0.15298479279E+03  0.18613791210E+03  0.90561391768E+02 0.  0.
          5    1    1    2  502    0  0.63583692759E+02  0.28123906664E+02 -0.17695933976E+03  0.19018553583E+03  0.47000000000E+01 0. -1.
         -5    1    1    2    0  502 -0.20299927817E+02 -0.62301757844E+02 -0.12373453259E+03  0.14009254318E+03  0.47000000000E+01 0. -1.
        -11    1    3    3    0    0 -0.12681191149E+02  0.23505328263E+02  0.29502229210E+01  0.26870371806E+02  0.00000000000E+00 0. -1.
         11    1    3    3    0    0 -0.30602573793E+02  0.10672522917E+02 -0.15593501571E+03  0.15926754030E+03  0.00000000000E+00 0.  1.
<mgrwt>
<rscale>  0 0.12823642E+03</rscale>
<asrwt>0</asrwt>
<pdfrwt beam="1">  1        2 0.48259485E-02 0.13662652E+03</pdfrwt>
<pdfrwt beam="2">  1       -2 0.74622660E-01 0.13662652E+03</pdfrwt>
<totfact> 0.26206306E+03</totfact>
</mgrwt>
</event>
<event>
 7    1  0.1330601E-005  0.1251738E+03  0.7546771E-02  0.1243071E+00
         -1   -1    0    0    0  501 -0.00000000000E+00  0.00000000000E+00  0.23382067857E+03  0.23382067857E+03  0.00000000000E+00 0.  1.
          1   -1    0    0  501    0  0.00000000000E+00 -0.00000000000E+00 -0.10489603819E+03  0.10489603819E+03  0.00000000000E+00 0. -1.
         23    2    1    2    0    0  0.49640714423E+02  0.28319367300E+02 -0.52662888004E+02  0.11816624614E+03  0.89015138376E+02 0.  0.
          5    1    1    2  502    0  0.17752071810E+02  0.13530101095E+02  0.11390281243E+03  0.11616428181E+03  0.47000000000E+01 0. -1.
         -5    1    1    2    0  502 -0.67392786234E+02 -0.41849468395E+02  0.67684715962E+02  0.10438618882E+03  0.47000000000E+01 0.  1.
        -11    1    3    3    0    0  0.54838867772E+02  0.42882643877E+02 -0.70114206050E+01  0.69967010679E+02  0.00000000000E+00 0. -1.
         11    1    3    3    0    0 -0.51981533492E+01 -0.14563276577E+02 -0.45651467399E+02  0.48199235456E+02  0.00000000000E+00 0.  1.
<mgrwt>
<rscale>  0 0.12001575E+03</rscale>
<asrwt>0</asrwt>
<pdfrwt beam="2">  1        1 0.16137852E-01 0.12517380E+03</pdfrwt>
<pdfrwt beam="1">  1       -1 0.35972412E-01 0.12517380E+03</pdfrwt>
<totfact> 0.24353089E+03</totfact>
</mgrwt>
</event>
<event>
 7    1  0.1330601E-005  0.1295818E+03  0.7546771E-02  0.1242810E+00
         -2   -1    0    0    0  501 -0.00000000000E+00  0.00000000000E+00  0.59024627780E+02  0.59024627780E+02  0.00000000000E+00 0.  1.
          2   -1    0    0  501    0  0.00000000000E+00 -0.00000000000E+00 -0.22180224405E+03  0.22180224405E+03  0.00000000000E+00 0. -1.
         23    2    1    2    0    0  0.15442029230E+02  0.30492663618E+02 -0.93430686191E+02  0.13385596280E+03  0.89553709324E+02 0.  0.
          5    1    1    2  502    0  0.49082079265E+02  0.11253432113E+02 -0.15083520452E+02  0.52775873546E+02  0.47000000000E+01 0. -1.
         -5    1    1    2    0  502 -0.64524108495E+02 -0.41746095731E+02 -0.54263409631E+02  0.94195035488E+02  0.47000000000E+01 0. -1.
        -11    1    3    3    0    0 -0.23712143537E+01  0.13567366547E+02  0.16339062937E+02  0.21369629623E+02  0.00000000000E+00 0.  1.
         11    1    3    3    0    0  0.17813243584E+02  0.16925297071E+02 -0.10976974913E+03  0.11248633318E+03  0.00000000000E+00 0. -1.
<mgrwt>
<rscale>  0 0.12017426E+03</rscale>
<asrwt>0</asrwt>
<pdfrwt beam="2">  1        2 0.34123422E-01 0.12958183E+03</pdfrwt>
<pdfrwt beam="1">  1       -2 0.90807119E-02 0.12958183E+03</pdfrwt>
<totfact> 0.11046034E+04</totfact>
</mgrwt>
</event>
<event>
 7    1  0.1330601E-005  0.1658488E+03  0.7546771E-02  0.1189209E+00
         -2   -1    0    0    0  501 -0.00000000000E+00  0.00000000000E+00  0.19952023631E+02  0.19952023631E+02  0.00000000000E+00 0.  1.
          2   -1    0    0  501    0  0.00000000000E+00 -0.00000000000E+00 -0.11965630069E+04  0.11965630069E+04  0.00000000000E+00 0. -1.
         23    2    1    2    0    0  0.10573493033E+03 -0.26442617269E+02 -0.59497962097E+03  0.61170028961E+03  0.91090106208E+02 0.  0.
          5    1    1    2  502    0 -0.92411943203E+02 -0.36809359078E+02 -0.31218579433E+03  0.32768423267E+03  0.47000000000E+01 0. -1.
         -5    1    1    2    0  502 -0.13322987127E+02  0.63251976347E+02 -0.26944556795E+03  0.27713050822E+03  0.47000000000E+01 0. -1.
        -11    1    3    3    0    0  0.27582259563E+02 -0.41176954704E+02 -0.11571698828E+03  0.12588385130E+03  0.00000000000E+00 0.  1.
         11    1    3    3    0    0  0.78152670767E+02  0.14734337435E+02 -0.47926263269E+03  0.48581643831E+03  0.00000000000E+00 0. -1.
<mgrwt>
<rscale>  0 0.15954750E+03</rscale>
<asrwt>0</asrwt>
<pdfrwt beam="2">  1        2 0.18408657E+00 0.16584881E+03</pdfrwt>
<pdfrwt beam="1">  1       -2 0.30695429E-02 0.16584881E+03</pdfrwt>
<totfact> 0.80571687E+03</totfact>
</mgrwt>
</event>
<event>
 7    1  0.1330601E-005  0.1276519E+03  0.7546771E-02  0.1244052E+00
         -3   -1    0    0    0  501 -0.00000000000E+00  0.00000000000E+00  0.31052213927E+02  0.31052213927E+02  0.00000000000E+00 0.  1.
          3   -1    0    0  501    0  0.00000000000E+00 -0.00000000000E+00 -0.41469270886E+03  0.41469270886E+03  0.00000000000E+00 0. -1.
         23    2    1    2    0    0 -0.22707337288E+02 -0.12437556974E+02 -0.19225676933E+03  0.21569550960E+03  0.94295129868E+02 0.  0.
          5    1    1    2  502    0 -0.26566238382E+02  0.36231471911E+02 -0.16114271646E+03  0.16735456267E+03  0.47000000000E+01 0.  1.
         -5    1    1    2    0  502  0.49273575671E+02 -0.23793914938E+02 -0.30241009140E+02  0.62694850516E+02  0.47000000000E+01 0.  1.
        -11    1    3    3    0    0 -0.46163157762E+02  0.10140820470E+02 -0.16951883442E+03  0.17598439873E+03  0.00000000000E+00 0. -1.
         11    1    3    3    0    0  0.23455820474E+02 -0.22578377444E+02 -0.22737934913E+02  0.39711110866E+02  0.00000000000E+00 0.  1.
<mgrwt>
<rscale>  0 0.11942311E+03</rscale>
<asrwt>0</asrwt>
<pdfrwt beam="2">  1        3 0.63798874E-01 0.12765188E+03</pdfrwt>
<pdfrwt beam="1">  1       -3 0.47772640E-02 0.12765188E+03</pdfrwt>
<totfact> 0.13530810E+03</totfact>
</mgrwt>
</event>
<event>
 7    1  0.1330601E-005  0.1355506E+03  0.7546771E-02  0.1231078E+00
          1   -1    0    0  501    0  0.00000000000E+00  0.00000000000E+00  0.82908191674E+03  0.82908191674E+03  0.00000000000E+00 0. -1.
         -1   -1    0    0    0  501 -0.00000000000E+00 -0.00000000000E+00 -0.17693935282E+02  0.17693935282E+02  0.00000000000E+00 0.  1.
         23    2    1    2    0    0  0.52076334008E+02 -0.60762534985E+01  0.37732136248E+03  0.39203658253E+03  0.92587288735E+02 0.  0.
          5    1    1    2  502    0 -0.61637668646E+02  0.33428463510E+02  0.11821456127E+03  0.13752613157E+03  0.47000000000E+01 0.  1.
         -5    1    1    2    0  502  0.95613346385E+01 -0.27352210011E+02  0.31585205771E+03  0.31721313792E+03  0.47000000000E+01 0.  1.
        -11    1    3    3    0    0 -0.10394782500E+02 -0.28084933870E+02  0.51699121015E+02  0.59746247810E+02  0.00000000000E+00 0.  1.
         11    1    3    3    0    0  0.62471116507E+02  0.22008680371E+02  0.32562224147E+03  0.33229033472E+03  0.00000000000E+00 0. -1.
<mgrwt>
<rscale>  0 0.12758895E+03</rscale>
<asrwt>0</asrwt>
<pdfrwt beam="1">  1        1 0.12755103E+00 0.13555063E+03</pdfrwt>
<pdfrwt beam="2">  1       -1 0.27221445E-02 0.13555063E+03</pdfrwt>
<totfact> 0.91340488E+03</totfact>
</mgrwt>
</event>
<event>
 7    1  0.1330601E-005  0.1556917E+03  0.7546771E-02  0.1202897E+00
          1   -1    0    0  501    0  0.00000000000E+00  0.00000000000E+00  0.41682074100E+03  0.41682074100E+03  0.00000000000E+00 0. -1.
         -1   -1    0    0    0  501 -0.00000000000E+00 -0.00000000000E+00 -0.77130208061E+02  0.77130208061E+02  0.00000000000E+00 0.  1.
         23    2    1    2    0    0  0.39643028563E+02  0.83908965501E+02  0.31046050780E+03  0.33553917676E+03  0.87112157764E+02 0.  0.
          5    1    1    2  502    0 -0.23515353207E+02 -0.14161975890E+02 -0.46432690155E+02  0.54144419034E+02  0.47000000000E+01 0. -1.
         -5    1    1    2    0  502 -0.16127675356E+02 -0.69746989610E+02  0.75662715294E+02  0.10426735327E+03  0.47000000000E+01 0. -1.
        -11    1    3    3    0    0  0.51320504381E+02  0.26516761730E+02  0.22240676605E+03  0.22978621022E+03  0.00000000000E+00 0. -1.
         11    1    3    3    0    0 -0.11677475818E+02  0.57392203771E+02  0.88053741749E+02  0.10575296654E+03  0.00000000000E+00 0.  1.
<mgrwt>
<rscale>  0 0.14804411E+03</rscale>
<asrwt>0</asrwt>
<pdfrwt beam="1">  1        1 0.64126266E-01 0.15569167E+03</pdfrwt>
<pdfrwt beam="2">  1       -1 0.11866186E-01 0.15569167E+03</pdfrwt>
<totfact> 0.26237439E+03</totfact>
</mgrwt>
</event>
<event>
 7    1  0.1330601E-005  0.1438991E+03  0.7546771E-02  0.1220553E+00
         -2   -1    0    0    0  501 -0.00000000000E+00  0.00000000000E+00  0.91682065941E+02  0.91682065941E+02  0.00000000000E+00 0. -1.
          2   -1    0    0  501    0  0.00000000000E+00 -0.00000000000E+00 -0.61536598891E+03  0.61536598891E+03  0.00000000000E+00 0.  1.
         23    2    1    2    0    0 -0.69543084099E+02 -0.15809310224E+02 -0.54977035421E+03  0.56080358777E+03  0.84658412785E+02 0.  0.
          5    1    1    2  502    0 -0.10123814940E+02 -0.42917493745E+02  0.26400811380E+01  0.44423675295E+02  0.47000000000E+01 0. -1.
         -5    1    1    2    0  502  0.79666899039E+02  0.58726803969E+02  0.23446350100E+02  0.10182079179E+03  0.47000000000E+01 0. -1.
        -11    1    3    3    0    0 -0.24830374052E+02  0.34542685549E+02 -0.24683989875E+03  0.25047890174E+03  0.00000000000E+00 0. -1.
         11    1    3    3    0    0 -0.44712710047E+02 -0.50351995773E+02 -0.30293045545E+03  0.31032468603E+03  0.00000000000E+00 0.  1.
<mgrwt>
<rscale>  0 0.13476427E+03</rscale>
<asrwt>0</asrwt>
<pdfrwt beam="2">  1        2 0.94671690E-01 0.14389907E+03</pdfrwt>
<pdfrwt beam="1">  1       -2 0.14104933E-01 0.14389907E+03</pdfrwt>
<totfact> 0.18338275E+03</totfact>
</mgrwt>
</event>
<event>
 7    1  0.1330601E-005  0.4568365E+03  0.7546771E-02  0.1026226E+00
         -2   -1    0    0    0  501 -0.00000000000E+00  0.00000000000E+00  0.10445543123E+03  0.10445543123E+03  0.00000000000E+00 0.  1.
          2   -1    0    0  501    0  0.00000000000E+00 -0.00000000000E+00 -0.20006614861E+04  0.20006614861E+04  0.00000000000E+00 0. -1.
         23    2    1    2    0    0  0.42593709540E+03 -0.10795509806E+03 -0.80442235566E+03  0.92160890673E+03  0.95869381108E+02 0.  0.
          5    1    1    2  502    0 -0.24869183309E+03  0.19171321912E+02 -0.48925208518E+03  0.54918563371E+03  0.47000000000E+01 0. -1.
         -5    1    1    2    0  502 -0.17724526231E+03  0.88783776145E+02 -0.60253161406E+03  0.63432237691E+03  0.47000000000E+01 0. -1.
        -11    1    3    3    0    0  0.65764207269E+02 -0.52232490932E+02 -0.17948094137E+03  0.19815794806E+03  0.00000000000E+00 0. -1.
         11    1    3    3    0    0  0.36017288813E+03 -0.55722607125E+02 -0.62494141430E+03  0.72345095866E+03  0.00000000000E+00 0.  1.
<mgrwt>
<rscale>  0 0.45505237E+03</rscale>
<asrwt>0</asrwt>
<pdfrwt beam="2">  1        2 0.30779409E+00 0.45683648E+03</pdfrwt>
<pdfrwt beam="1">  1       -2 0.16070066E-01 0.45683648E+03</pdfrwt>
<totfact> 0.22002867E+02</totfact>
</mgrwt>
</event>
<event>
 7    1  0.1330601E-005  0.1367395E+03  0.7546771E-02  0.1225690E+00
         -2   -1    0    0    0  501 -0.00000000000E+00  0.00000000000E+00  0.62634435471E+02  0.62634435471E+02  0.00000000000E+00 0.  1.
          2   -1    0    0  501    0  0.00000000000E+00 -0.00000000000E+00 -0.27745381358E+03  0.27745381358E+03  0.00000000000E+00 0. -1.
         23    2    1    2    0    0 -0.17975587166E+02 -0.52431709474E+02 -0.14778600195E+03  0.18780181292E+03  0.10176744406E+03 0.  0.
          5    1    1    2  502    0  0.42422464172E+02  0.56679986765E+02  0.95992316368E+01  0.71599731942E+02  0.47000000000E+01 0.  1.
         -5    1    1    2    0  502 -0.24446877006E+02 -0.42482772911E+01 -0.76632607795E+02  0.80686704188E+02  0.47000000000E+01 0.  1.
        -11    1    3    3    0    0 -0.38175803751E+02  0.10615280025E+02 -0.21176463850E+02  0.44927928766E+02  0.00000000000E+00 0.  1.
         11    1    3    3    0    0  0.20200216585E+02 -0.63046989499E+02 -0.12660953810E+03  0.14287388415E+03  0.00000000000E+00 0. -1.
<mgrwt>
<rscale>  0 0.13119738E+03</rscale>
<asrwt>0</asrwt>
<pdfrwt beam="2">  1        2 0.42685202E-01 0.13673948E+03</pdfrwt>
<pdfrwt beam="1">  1       -2 0.96360670E-02 0.13673948E+03</pdfrwt>
<totfact> 0.79636210E+03</totfact>
</mgrwt>
</event>
<event>
 7    1  0.1330601E-005  0.1408921E+03  0.7546771E-02  0.1223441E+00
         -1   -1    0    0    0  501 -0.00000000000E+00  0.00000000000E+00  0.43172309789E+03  0.43172309789E+03  0.00000000000E+00 0.  1.
          1   -1    0    0  501    0  0.00000000000E+00 -0.00000000000E+00 -0.41024651029E+02  0.41024651029E+02  0.00000000000E+00 0. -1.
         23    2    1    2    0    0  0.41417041994E+02  0.50104473822E+02  0.98750895408E+02  0.14858117699E+03  0.89993317236E+02 0.  0.
          5    1    1    2  502    0 -0.26292294565E+01 -0.44909736220E+02  0.20134259966E+02  0.49510359313E+02  0.47000000000E+01 0.  1.
         -5    1    1    2    0  502 -0.38787812538E+02 -0.51947376027E+01  0.27181329148E+03  0.27465621261E+03  0.47000000000E+01 0.  1.
        -11    1    3    3    0    0 -0.16319573860E+02 -0.81548028156E+01 -0.23481352963E+01  0.18394103384E+02  0.00000000000E+00 0. -1.
         11    1    3    3    0    0  0.57736615854E+02  0.58259276638E+02  0.10109903070E+03  0.13018707361E+03  0.00000000000E+00 0.  1.
<mgrwt>
<rscale>  0 0.13274305E+03</rscale>
<asrwt>0</asrwt>
<pdfrwt beam="2">  1        1 0.63114851E-02 0.14089213E+03</pdfrwt>
<pdfrwt beam="1">  1       -1 0.66418935E-01 0.14089213E+03</pdfrwt>
<totfact> 0.27749794E+03</totfact>
</mgrwt>
</event>
<event>
 7    1  0.1330601E-005  0.1637613E+03  0.7546771E-02  0.1191533E+00
          1   -1    0    0  501    0  0.00000000000E+00  0.00000000000E+00  0.36172536272E+03  0.36172536272E+03  0.00000000000E+00 0. -1.
         -1   -1    0    0    0  501 -0.00000000000E+00 -0.00000000000E+00 -0.77195182716E+02  0.77195182716E+02  0.00000000000E+00 0.  1.
         23    2    1    2    0    0 -0.98672749884E+02 -0.38158460945E+02  0.22418244936E+03  0.26439368400E+03  0.91944928233E+02 0.  0.
          5    1    1    2  502    0  0.62205164538E+02 -0.41996451415E+02  0.33660223810E+02  0.82391049839E+02  0.47000000000E+01 0.  1.
         -5    1    1    2    0  502  0.36467585346E+02  0.80154912360E+02  0.26687506828E+02  0.92135811589E+02  0.47000000000E+01 0.  1.
        -11    1    3    3    0    0 -0.86196371471E+02 -0.98209482471E+01  0.83731704565E+02  0.12057057613E+03  0.00000000000E+00 0.  1.
         11    1    3    3    0    0 -0.12476378413E+02 -0.28337512698E+02  0.14045074480E+03  0.14382310787E+03  0.00000000000E+00 0. -1.
<mgrwt>
<rscale>  0 0.15751376E+03</rscale>
<asrwt>0</asrwt>
<pdfrwt beam="1">  1        1 0.55650055E-01 0.16376134E+03</pdfrwt>
<pdfrwt beam="2">  1       -1 0.11876182E-01 0.16376134E+03</pdfrwt>
<totfact> 0.31407149E+03</totfact>
</mgrwt>
</event>
<event>
 7    1  0.1330601E-005  0.1261772E+03  0.7546771E-02  0.1250866E+00
          1   -1    0    0  501    0  0.00000000000E+00  0.00000000000E+00  0.40708152558E+03  0.40708152558E+03  0.00000000000E+00 0. -1.
         -1   -1    0    0    0  501 -0.00000000000E+00 -0.00000000000E+00 -0.32331250364E+02  0.32331250364E+02  0.00000000000E+00 0.  1.
         23    2    1    2    0    0  0.12172772498E+02 -0.11966156022E+02  0.23541997301E+03  0.25144040323E+03  0.86650720737E+02 0.  0.
          5    1    1    2  502    0  0.28952044603E+02  0.56977906057E+02  0.82734567822E+02  0.10465085465E+03  0.47000000000E+01 0. -1.
         -5    1    1    2    0  502 -0.41124817101E+02 -0.45011750035E+02  0.56595734389E+02  0.83321518073E+02  0.47000000000E+01 0. -1.
        -11    1    3    3    0    0  0.15940312824E+02 -0.41050198066E+02  0.20301037940E+03  0.20773162128E+03  0.00000000000E+00 0. -1.
         11    1    3    3    0    0 -0.37675403255E+01  0.29084042044E+02  0.32409593601E+02  0.43708781945E+02  0.00000000000E+00 0.  1.
<mgrwt>
<rscale>  0 0.11541053E+03</rscale>
<asrwt>0</asrwt>
<pdfrwt beam="1">  1        1 0.62627923E-01 0.12617718E+03</pdfrwt>
<pdfrwt beam="2">  1       -1 0.49740388E-02 0.12617718E+03</pdfrwt>
<totfact> 0.99207539E+03</totfact>
</mgrwt>
</event>
<event>
 7    1  0.1330601E-005  0.2601935E+03  0.7546771E-02  0.1109260E+00
         -1   -1    0    0    0  501 -0.00000000000E+00  0.00000000000E+00  0.59402599904E+03  0.59402599904E+03  0.00000000000E+00 0.  1.
          1   -1    0    0  501    0  0.00000000000E+00 -0.00000000000E+00 -0.16042010537E+03  0.16042010537E+03  0.00000000000E+00 0. -1.
         23    2    1    2    0    0 -0.11803914455E+03 -0.19530140708E+03 -0.34684741672E+01  0.24578644016E+03  0.91230831414E+02 0.  0.
          5    1    1    2  502    0  0.11581754554E+03  0.17374093034E+03  0.27627168192E+03  0.34633473253E+03  0.47000000000E+01 0.  1.
         -5    1    1    2    0  502  0.22215990182E+01  0.21560476744E+02  0.16080268591E+03  0.16232493171E+03  0.47000000000E+01 0.  1.
        -11    1    3    3    0    0 -0.82755350592E+02 -0.16299896330E+03 -0.38097088602E+02  0.18673108538E+03  0.00000000000E+00 0. -1.
         11    1    3    3    0    0 -0.35283793962E+02 -0.32302443781E+02  0.34628614435E+02  0.59055354781E+02  0.00000000000E+00 0.  1.
<mgrwt>
<rscale>  0 0.25650804E+03</rscale>
<asrwt>0</asrwt>
<pdfrwt beam="2">  1        1 0.24680017E-01 0.26019349E+03</pdfrwt>
<pdfrwt beam="1">  1       -1 0.91388614E-01 0.26019349E+03</pdfrwt>
<totfact> 0.24053453E+02</totfact>
</mgrwt>
</event>
<event>
 7    1  0.1330601E-005  0.1854042E+03  0.7546771E-02  0.1184564E+00
          1   -1    0    0  501    0  0.00000000000E+00  0.00000000000E+00  0.69025479840E+02  0.69025479840E+02  0.00000000000E+00 0. -1.
         -1   -1    0    0    0  501 -0.00000000000E+00 -0.00000000000E+00 -0.52191015863E+03  0.52191015863E+03  0.00000000000E+00 0.  1.
         23    2    1    2    0    0  0.68569950081E+02  0.65099099177E+00 -0.12868899227E+02  0.11345411496E+03  0.89464885797E+02 0.  0.
          5    1    1    2  502    0 -0.12027322482E+03 -0.32241260868E+02 -0.29216945990E+03  0.31763222571E+03  0.47000000000E+01 0. -1.
         -5    1    1    2    0  502  0.51703274737E+02  0.31590269876E+02 -0.14784631966E+03  0.15984929780E+03  0.47000000000E+01 0.  1.
        -11    1    3    3    0    0  0.81860682470E+02 -0.23450655462E+02 -0.11102841490E+02  0.85874196737E+02  0.00000000000E+00 0. -1.
         11    1    3    3    0    0 -0.13290732390E+02  0.24101646454E+02 -0.17660577372E+01  0.27579918223E+02  0.00000000000E+00 0.  1.
<mgrwt>
<rscale>  0 0.16371624E+03</rscale>
<asrwt>0</asrwt>
<pdfrwt beam="1">  1        1 0.10619305E-01 0.18540420E+03</pdfrwt>
<pdfrwt beam="2">  1       -1 0.80293869E-01 0.18540420E+03</pdfrwt>
<totfact> 0.95118352E+02</totfact>
</mgrwt>
</event>
<event>
 7    1  0.1330601E-005  0.1428530E+03  0.7546771E-02  0.1220128E+00
          1   -1    0    0  501    0  0.00000000000E+00  0.00000000000E+00  0.10823358637E+03  0.10823358637E+03  0.00000000000E+00 0. -1.
         -1   -1    0    0    0  501 -0.00000000000E+00 -0.00000000000E+00 -0.18258879710E+03  0.18258879710E+03  0.00000000000E+00 0.  1.
         23    2    1    2    0    0  0.15438243758E+02 -0.67409231977E+02  0.24939260132E+02  0.11685002825E+03  0.90827410402E+02 0.  0.
          5    1    1    2  502    0 -0.25233059975E+02  0.21330812420E+01  0.23253150888E+02  0.34699515523E+02  0.47000000000E+01 0. -1.
         -5    1    1    2    0  502  0.97948162176E+01  0.65276150735E+02 -0.12254762175E+03  0.13927283969E+03  0.47000000000E+01 0. -1.
        -11    1    3    3    0    0 -0.32610791987E+02 -0.14641336886E+02  0.28016121950E+02  0.45417348986E+02  0.00000000000E+00 0. -1.
         11    1    3    3    0    0  0.48049035744E+02 -0.52767895091E+02 -0.30768618184E+01  0.71432679265E+02  0.00000000000E+00 0.  1.
<mgrwt>
<rscale>  0 0.13506516E+03</rscale>
<asrwt>0</asrwt>
<pdfrwt beam="1">  1        1 0.16651321E-01 0.14285303E+03</pdfrwt>
<pdfrwt beam="2">  1       -1 0.28090584E-01 0.14285303E+03</pdfrwt>
<totfact> 0.35788562E+03</totfact>
</mgrwt>
</event>
<event>
 7    1  0.1330601E-005  0.1291686E+03  0.7546771E-02  0.1244160E+00
          1   -1    0    0  501    0  0.00000000000E+00  0.00000000000E+00  0.48504018797E+03  0.48504018797E+03  0.00000000000E+00 0. -1.
         -1   -1    0    0    0  501 -0.00000000000E+00 -0.00000000000E+00 -0.33905722088E+02  0.33905722088E+02  0.00000000000E+00 0.  1.
         23    2    1    2    0    0  0.43348204253E+00 -0.32566526474E+02  0.32514165210E+03  0.33850556484E+03  0.88363776212E+02 0.  0.
          5    1    1    2  502    0 -0.39343971119E+02  0.50431806346E+02  0.12117158096E+03  0.13709834859E+03  0.47000000000E+01 0.  1.
         -5    1    1    2    0  502  0.38910489076E+02 -0.17865279872E+02  0.48212328207E+01  0.43341996619E+02  0.47000000000E+01 0.  1.
        -11    1    3    3    0    0  0.32260536773E+02  0.15566848546E+02  0.14437252562E+03  0.14874977365E+03  0.00000000000E+00 0. -1.
         11    1    3    3    0    0 -0.31827054731E+02 -0.48133375020E+02  0.18076912648E+03  0.18975579120E+03  0.00000000000E+00 0.  1.
<mgrwt>
<rscale>  0 0.11935802E+03</rscale>
<asrwt>0</asrwt>
<pdfrwt beam="1">  1        1 0.74621563E-01 0.12916861E+03</pdfrwt>
<pdfrwt beam="2">  1       -1 0.52162653E-02 0.12916861E+03</pdfrwt>
<totfact> 0.74071620E+03</totfact>
</mgrwt>
</event>
<event>
 7    1  0.1330601E-005  0.1883393E+03  0.7546771E-02  0.1165246E+00
          2   -1    0    0  501    0  0.00000000000E+00  0.00000000000E+00  0.53207731039E+03  0.53207731039E+03  0.00000000000E+00 0.  1.
         -2   -1    0    0    0  501 -0.00000000000E+00 -0.00000000000E+00 -0.59935025400E+02  0.59935025400E+02  0.00000000000E+00 0. -1.
         23    2    1    2    0    0  0.98483013442E+02 -0.10073837937E+03  0.25425636232E+03  0.30400892930E+03  0.89039352554E+02 0.  0.
          5    1    1    2  502    0  0.19748998291E+02 -0.19757259928E+01  0.68659459168E+02  0.71624980000E+02  0.47000000000E+01 0. -1.
         -5    1    1    2    0  502 -0.11823201173E+03  0.10271410536E+03  0.14922646350E+03  0.21637842648E+03  0.47000000000E+01 0. -1.
        -11    1    3    3    0    0  0.57440266749E+02 -0.40723525879E+02  0.20350312259E+03  0.21533998864E+03  0.00000000000E+00 0.  1.
         11    1    3    3    0    0  0.41042746693E+02 -0.60014853489E+02  0.50753239728E+02  0.88668940663E+02  0.00000000000E+00 0. -1.
<mgrwt>
<rscale>  0 0.18266810E+03</rscale>
<asrwt>0</asrwt>
<pdfrwt beam="1">  1        2 0.81858045E-01 0.18833929E+03</pdfrwt>
<pdfrwt beam="2">  1       -2 0.92207735E-02 0.18833929E+03</pdfrwt>
<totfact> 0.43016294E+03</totfact>
</mgrwt>
</event>
<event>
 7    1  0.1330601E-005  0.1651304E+03  0.7546771E-02  0.1191991E+00
         -1   -1    0    0    0  501 -0.00000000000E+00  0.00000000000E+00  0.19109252079E+03  0.19109252079E+03  0.00000000000E+00 0.  1.
          1   -1    0    0  501    0  0.00000000000E+00 -0.00000000000E+00 -0.11831596915E+03  0.11831596915E+03  0.00000000000E+00 0. -1.
         23    2    1    2    0    0 -0.73573913568E+02 -0.78928118688E+02  0.39238716471E+02  0.14090671165E+03  0.81683877475E+02 0.  0.
          5    1    1    2  502    0  0.62947291202E+02  0.58296397040E+01 -0.30758006165E+02  0.70459144985E+02  0.47000000000E+01 0.  1.
         -5    1    1    2    0  502  0.10626622367E+02  0.73098478984E+02  0.64295841338E+02  0.98042633309E+02  0.47000000000E+01 0.  1.
        -11    1    3    3    0    0  0.73063548526E+01 -0.32439915341E+02  0.33868333874E+02  0.47463617308E+02  0.00000000000E+00 0.  1.
         11    1    3    3    0    0 -0.80880268421E+02 -0.46488203347E+02  0.53703825971E+01  0.93443094339E+02  0.00000000000E+00 0. -1.
<mgrwt>
<rscale>  0 0.15711632E+03</rscale>
<asrwt>0</asrwt>
<pdfrwt beam="2">  1        1 0.18202457E-01 0.16513044E+03</pdfrwt>
<pdfrwt beam="1">  1       -1 0.29398849E-01 0.16513044E+03</pdfrwt>
<totfact> 0.29783076E+03</totfact>
</mgrwt>
</event>
<event>
 7    1  0.1330601E-005  0.1123606E+04  0.7546771E-02  0.9405053E-01
          2   -1    0    0  501    0  0.00000000000E+00  0.00000000000E+00  0.25800267003E+04  0.25800267003E+04  0.00000000000E+00 0. -1.
         -2   -1    0    0    0  501 -0.00000000000E+00 -0.00000000000E+00 -0.29191005042E+03  0.29191005042E+03  0.00000000000E+00 0.  1.
         23    2    1    2    0    0  0.48810940031E+03 -0.26359760152E+02  0.12369285994E+04  0.13332730670E+04  0.93161620550E+02 0.  0.
          5    1    1    2  502    0 -0.19462726792E+03 -0.21774185189E+03  0.11141039463E+04  0.11517556080E+04  0.47000000000E+01 0. -1.
         -5    1    1    2    0  502 -0.29348213240E+03  0.24410161205E+03 -0.62915895868E+02  0.38690807564E+03  0.47000000000E+01 0.  1.
        -11    1    3    3    0    0  0.18300699010E+02  0.42563213776E-01  0.14314954471E+02  0.23234356401E+02  0.00000000000E+00 0.  1.
         11    1    3    3    0    0  0.46980870130E+03 -0.26402323366E+02  0.12226136450E+04  0.13100387106E+04  0.00000000000E+00 0. -1.
<mgrwt>
<rscale>  0 0.91661018E+03</rscale>
<asrwt>0</asrwt>
<pdfrwt beam="1">  1        2 0.39692717E+00 0.11236056E+04</pdfrwt>
<pdfrwt beam="2">  1       -2 0.44909240E-01 0.11236056E+04</pdfrwt>
<totfact> 0.14700291E+01</totfact>
</mgrwt>
</event>
<event>
 7    1  0.1330601E-005  0.3051293E+03  0.7546771E-02  0.1082704E+00
         -2   -1    0    0    0  501 -0.00000000000E+00  0.00000000000E+00  0.29047168708E+02  0.29047168708E+02  0.00000000000E+00 0.  1.
          2   -1    0    0  501    0  0.00000000000E+00 -0.00000000000E+00 -0.80131652891E+03  0.80131652891E+03  0.00000000000E+00 0. -1.
         23    2    1    2    0    0  0.45026302123E+02 -0.40142185614E+02 -0.33434875042E+03  0.35173958435E+03  0.91065280642E+02 0.  0.
          5    1    1    2  502    0  0.20547086655E+02 -0.62012461851E+02 -0.21495954735E+03  0.22471632159E+03  0.47000000000E+01 0. -1.
         -5    1    1    2    0  502 -0.65573388778E+02  0.10215464746E+03 -0.22296106243E+03  0.25390779168E+03  0.47000000000E+01 0.  1.
        -11    1    3    3    0    0  0.59996800998E+02 -0.58491415671E+02 -0.23143112183E+03  0.24613253744E+03  0.00000000000E+00 0. -1.
         11    1    3    3    0    0 -0.14970498875E+02  0.18349230057E+02 -0.10291762859E+03  0.10560704690E+03  0.00000000000E+00 0.  1.
<mgrwt>
<rscale>  0 0.30512933E+03</rscale>
<asrwt>0</asrwt>
<pdfrwt beam="2">  1        2 0.12327946E+00 0.30512933E+03</pdfrwt>
<pdfrwt beam="1">  1       -2 0.44687955E-02 0.30512933E+03</pdfrwt>
<totfact> 0.82323492E+03</totfact>
</mgrwt>
</event>
<event>
 7    1  0.1330601E-005  0.1499432E+03  0.7546771E-02  0.1208720E+00
          2   -1    0    0  501    0  0.00000000000E+00  0.00000000000E+00  0.30202919497E+03  0.30202919497E+03  0.00000000000E+00 0. -1.
         -2   -1    0    0    0  501 -0.00000000000E+00 -0.00000000000E+00 -0.77293783942E+02  0.77293783942E+02  0.00000000000E+00 0.  1.
         23    2    1    2    0    0  0.81175101875E+02 -0.16413349784E+02  0.18592291161E+03  0.22443793004E+03  0.94584671935E+02 0.  0.
          5    1    1    2  502    0 -0.21493532076E+02  0.20816322418E+02  0.77677583621E+02  0.83373786032E+02  0.47000000000E+01 0. -1.
         -5    1    1    2    0  502 -0.59681569800E+02 -0.44029726340E+01 -0.38865084206E+02  0.71511262834E+02  0.47000000000E+01 0. -1.
        -11    1    3    3    0    0  0.15427980882E+02  0.20698816890E+02  0.12438892474E+03  0.12703963245E+03  0.00000000000E+00 0. -1.
         11    1    3    3    0    0  0.65747120993E+02 -0.37112166674E+02  0.61533986870E+02  0.97398297594E+02  0.00000000000E+00 0.  1.
<mgrwt>
<rscale>  0 0.14348107E+03</rscale>
<asrwt>0</asrwt>
<pdfrwt beam="1">  1        2 0.46466029E-01 0.14994322E+03</pdfrwt>
<pdfrwt beam="2">  1       -2 0.11891352E-01 0.14994322E+03</pdfrwt>
<totfact> 0.52475128E+03</totfact>
</mgrwt>
</event>
<event>
 7    1  0.1330601E-005  0.1258525E+03  0.7546771E-02  0.1249481E+00
          2   -1    0    0  501    0  0.00000000000E+00  0.00000000000E+00  0.59779931668E+02  0.59779931668E+02  0.00000000000E+00 0. -1.
         -2   -1    0    0    0  501 -0.00000000000E+00 -0.00000000000E+00 -0.24129143634E+03  0.24129143634E+03  0.00000000000E+00 0.  1.
         23    2    1    2    0    0  0.73491715007E+01 -0.12571026080E+02 -0.15586315463E+02  0.92816668246E+02  0.90332495017E+02 0.  0.
          5    1    1    2  502    0 -0.16246996092E+02 -0.48802827046E+02 -0.32442233592E+02  0.60994010608E+02  0.47000000000E+01 0. -1.
         -5    1    1    2    0  502  0.88978245909E+01  0.61373853126E+02 -0.13348295562E+03  0.14726068916E+03  0.47000000000E+01 0. -1.
        -11    1    3    3    0    0  0.80151804345E+01 -0.50728862085E+02 -0.18387067028E+02  0.54550387713E+02  0.00000000000E+00 0.  1.
         11    1    3    3    0    0 -0.66600893373E+00  0.38157836004E+02  0.28007515652E+01  0.38266280532E+02  0.00000000000E+00 0. -1.
<mgrwt>
<rscale>  0 0.11621175E+03</rscale>
<asrwt>0</asrwt>
<pdfrwt beam="1">  1        2 0.91969126E-02 0.12585250E+03</pdfrwt>
<pdfrwt beam="2">  1       -2 0.37121759E-01 0.12585250E+03</pdfrwt>
<totfact> 0.46332373E+03</totfact>
</mgrwt>
</event>
<event>
 7    1  0.1330601E-005  0.1372481E+03  0.7546771E-02  0.1229056E+00
          2   -1    0    0  501    0  0.00000000000E+00  0.00000000000E+00  0.12908497067E+04  0.12908497067E+04  0.00000000000E+00 0. -1.
         -2   -1    0    0    0  501 -0.00000000000E+00 -0.00000000000E+00 -0.11542093378E+02  0.11542093378E+02  0.00000000000E+00 0.  1.
         23    2    1    2    0    0  0.55558777684E+02  0.11209568893E+02  0.55585152253E+03  0.56603199989E+03  0.90602856396E+02 0.  0.
          5    1    1    2  502    0 -0.76335748265E+02 -0.15499235754E+02  0.23900577887E+03  0.25142240375E+03  0.47000000000E+01 0.  1.
         -5    1    1    2    0  502  0.20776970581E+02  0.42896668604E+01  0.48445031196E+03  0.48493739648E+03  0.47000000000E+01 0.  1.
        -11    1    3    3    0    0 -0.25107101939E+02  0.66930336724E+01  0.12530815751E+03  0.12797381610E+03  0.00000000000E+00 0.  1.
         11    1    3    3    0    0  0.80665879623E+02  0.45165352210E+01  0.43054336502E+03  0.43805818379E+03  0.00000000000E+00 0. -1.
<mgrwt>
<rscale>  0 0.12892711E+03</rscale>
<asrwt>0</asrwt>
<pdfrwt beam="1">  1        2 0.19859215E+00 0.13724810E+03</pdfrwt>
<pdfrwt beam="2">  1       -2 0.17757077E-02 0.13724810E+03</pdfrwt>
<totfact> 0.15772406E+04</totfact>
</mgrwt>
</event>
<event>
 7    1  0.1330601E-005  0.1251640E+03  0.7546771E-02  0.1247991E+00
          3   -1    0    0  501    0  0.00000000000E+00  0.00000000000E+00  0.40806928600E+02  0.40806928600E+02  0.00000000000E+00 0. -1.
         -3   -1    0    0    0  501 -0.00000000000E+00 -0.00000000000E+00 -0.30316673473E+03  0.30316673473E+03  0.00000000000E+00 0.  1.
         23    2    1    2    0    0 -0.65151332695E+01  0.22021198142E+01 -0.94524189414E+02  0.13460597804E+03  0.95585828696E+02 0.  0.
          5    1    1    2  502    0  0.54730884947E+02  0.82478028851E+01 -0.30514760709E+02  0.63377729848E+02  0.47000000000E+01 0.  1.
         -5    1    1    2    0  502 -0.48215751678E+02 -0.10449922699E+02 -0.13732085601E+03  0.14598995544E+03  0.47000000000E+01 0.  1.
        -11    1    3    3    0    0 -0.18320574560E+02  0.30675461968E+02 -0.97304557147E+02  0.10365714766E+03  0.00000000000E+00 0.  1.
         11    1    3    3    0    0  0.11805441291E+02 -0.28473342154E+02  0.27803677328E+01  0.30948830385E+02  0.00000000000E+00 0. -1.
<mgrwt>
<rscale>  0 0.11708151E+03</rscale>
<asrwt>0</asrwt>
<pdfrwt beam="1">  1        3 0.62779888E-02 0.12516403E+03</pdfrwt>
<pdfrwt beam="2">  1       -3 0.46641038E-01 0.12516403E+03</pdfrwt>
<totfact> 0.16456756E+03</totfact>
</mgrwt>
</event>
<event>
 7    1  0.1330601E-005  0.1544053E+03  0.7546771E-02  0.1203411E+00
         -1   -1    0    0    0  501 -0.00000000000E+00  0.00000000000E+00  0.55999155620E+02  0.55999155620E+02  0.00000000000E+00 0.  1.
          1   -1    0    0  501    0  0.00000000000E+00 -0.00000000000E+00 -0.35960858070E+03  0.35960858070E+03  0.00000000000E+00 0. -1.
         23    2    1    2    0    0 -0.59439237271E+01  0.90439747232E+02 -0.12783544579E+03  0.18164727852E+03  0.91864870780E+02 0.  0.
          5    1    1    2  502    0 -0.54036566216E+02 -0.12006866828E+02 -0.63641140851E+02  0.84477216741E+02  0.47000000000E+01 0.  1.
         -5    1    1    2    0  502  0.59980489943E+02 -0.78432880405E+02 -0.11213283843E+03  0.14948324106E+03  0.47000000000E+01 0.  1.
        -11    1    3    3    0    0  0.35378966871E+02  0.57381707196E+02 -0.10322108499E+03  0.12328391624E+03  0.00000000000E+00 0.  1.
         11    1    3    3    0    0 -0.41322890598E+02  0.33058040036E+02 -0.24614360804E+02  0.58363362276E+02  0.00000000000E+00 0. -1.
<mgrwt>
<rscale>  0 0.14763386E+03</rscale>
<asrwt>0</asrwt>
<pdfrwt beam="2">  1        1 0.55324395E-01 0.15440532E+03</pdfrwt>
<pdfrwt beam="1">  1       -1 0.86152550E-02 0.15440532E+03</pdfrwt>
<totfact> 0.51620415E+03</totfact>
</mgrwt>
</event>
<event>
 7    1  0.1330601E-005  0.1160039E+03  0.7546771E-02  0.1259430E+00
         -2   -1    0    0    0  501 -0.00000000000E+00  0.00000000000E+00  0.49645727271E+03  0.49645727271E+03  0.00000000000E+00 0.  1.
          2   -1    0    0  501    0  0.00000000000E+00 -0.00000000000E+00 -0.26626488108E+02  0.26626488108E+02  0.00000000000E+00 0. -1.
         23    2    1    2    0    0 -0.10918843583E+02 -0.28305945403E+02  0.11487386405E+03  0.14965195466E+03  0.90990412686E+02 0.  0.
          5    1    1    2  502    0  0.37679799756E+02  0.57924286923E+02  0.15956037975E+03  0.17394422989E+03  0.47000000000E+01 0. -1.
         -5    1    1    2    0  502 -0.26760956173E+02 -0.29618341519E+02  0.19539654080E+03  0.19948757627E+03  0.47000000000E+01 0.  1.
        -11    1    3    3    0    0 -0.48848303596E+02 -0.30767215324E+02  0.73654230982E+02  0.93582712317E+02  0.00000000000E+00 0.  1.
         11    1    3    3    0    0  0.37929460013E+02  0.24612699209E+01  0.41219633069E+02  0.56069242342E+02  0.00000000000E+00 0. -1.
<mgrwt>
<rscale>  0 0.11061807E+03</rscale>
<asrwt>0</asrwt>
<pdfrwt beam="2">  1        2 0.40963832E-02 0.11600387E+03</pdfrwt>
<pdfrwt beam="1">  1       -2 0.76378035E-01 0.11600387E+03</pdfrwt>
<totfact> 0.30546703E+03</totfact>
</mgrwt>
</event>
<event>
 7    1  0.1330601E-005  0.1385211E+03  0.7546771E-02  0.1225788E+00
          1   -1    0    0  501    0  0.00000000000E+00  0.00000000000E+00  0.22466230928E+03  0.22466230928E+03  0.00000000000E+00 0. -1.
         -1   -1    0    0    0  501 -0.00000000000E+00 -0.00000000000E+00 -0.69593179249E+02  0.69593179249E+02  0.00000000000E+00 0.  1.
         23    2    1    2    0    0  0.56334006179E+01  0.59550269781E+02  0.76464251290E+02  0.13498583041E+03  0.93789246996E+02 0.  0.
          5    1    1    2  502    0 -0.54449567420E+02 -0.49505214980E+02  0.80506143762E+02  0.10917348985E+03  0.47000000000E+01 0.  1.
         -5    1    1    2    0  502  0.48816166802E+02 -0.10045054801E+02 -0.19012650169E+01  0.50096168276E+02  0.47000000000E+01 0.  1.
        -11    1    3    3    0    0  0.44494970610E+02  0.27299033201E+02  0.64698834651E+02  0.83132297144E+02  0.00000000000E+00 0. -1.
         11    1    3    3    0    0 -0.38861569992E+02  0.32251236581E+02  0.11765416639E+02  0.51853533264E+02  0.00000000000E+00 0.  1.
<mgrwt>
<rscale>  0 0.13113012E+03</rscale>
<asrwt>0</asrwt>
<pdfrwt beam="1">  1        1 0.34563432E-01 0.13852111E+03</pdfrwt>
<pdfrwt beam="2">  1       -1 0.10706643E-01 0.13852111E+03</pdfrwt>
<totfact> 0.66027423E+03</totfact>
</mgrwt>
</event>
<event>
 7    1  0.1330601E-005  0.1207306E+03  0.7546771E-02  0.1251606E+00
         -1   -1    0    0    0  501 -0.00000000000E+00  0.00000000000E+00  0.33837893997E+02  0.33837893997E+02  0.00000000000E+00 0.  1.
          1   -1    0    0  501    0  0.00000000000E+00 -0.00000000000E+00 -0.45742669769E+03  0.45742669769E+03  0.00000000000E+00 0. -1.
         23    2    1    2    0    0 -0.25872165448E+02 -0.23573147127E+02 -0.30989142771E+03  0.32542437612E+03  0.92969163677E+02 0.  0.
          5    1    1    2  502    0 -0.17250662134E+02 -0.39961930818E+02 -0.42703436422E+02  0.61157295076E+02  0.47000000000E+01 0. -1.
         -5    1    1    2    0  502  0.43122827582E+02  0.63535077946E+02 -0.70993939569E+02  0.10468292050E+03  0.47000000000E+01 0.  1.
        -11    1    3    3    0    0 -0.17426611135E+02 -0.59606943026E+02 -0.20463139871E+03  0.21384733754E+03  0.00000000000E+00 0. -1.
         11    1    3    3    0    0 -0.84455543129E+01  0.36033795899E+02 -0.10526002899E+03  0.11157703858E+03  0.00000000000E+00 0.  1.
<mgrwt>
<rscale>  0 0.11498562E+03</rscale>
<asrwt>0</asrwt>
<pdfrwt beam="2">  1        1 0.70373334E-01 0.12073062E+03</pdfrwt>
<pdfrwt beam="1">  1       -1 0.52058302E-02 0.12073062E+03</pdfrwt>
<totfact> 0.79748699E+03</totfact>
</mgrwt>
</event>
<event>
 7    1  0.1330601E-005  0.4851068E+03  0.7546771E-02  0.1017741E+00
          2   -1    0    0  501    0  0.00000000000E+00  0.00000000000E+00  0.44941827522E+03  0.44941827522E+03  0.00000000000E+00 0.  1.
         -2   -1    0    0    0  501 -0.00000000000E+00 -0.00000000000E+00 -0.13090734549E+03  0.13090734549E+03  0.00000000000E+00 0. -1.
         23    2    1    2    0    0 -0.23863135528E+02 -0.94431022433E+02  0.15200781544E+03  0.20052575865E+03  0.87278500760E+02 0.  0.
          5    1    1    2  502    0  0.11996047880E+03  0.14149133999E+03  0.45267893871E+01  0.18561491747E+03  0.47000000000E+01 0. -1.
         -5    1    1    2    0  502 -0.96097343267E+02 -0.47060317559E+02  0.16197632491E+03  0.19418494458E+03  0.47000000000E+01 0.  1.
        -11    1    3    3    0    0  0.84232917196E+01 -0.84998017004E+02  0.14150945629E+03  0.16528926450E+03  0.00000000000E+00 0. -1.
         11    1    3    3    0    0 -0.32286427248E+02 -0.94330054290E+01  0.10498359148E+02  0.35236494160E+02  0.00000000000E+00 0.  1.
<mgrwt>
<rscale>  0 0.48510681E+03</rscale>
<asrwt>0</asrwt>
<pdfrwt beam="1">  1        2 0.69141272E-01 0.48510681E+03</pdfrwt>
<pdfrwt beam="2">  1       -2 0.20139592E-01 0.48510681E+03</pdfrwt>
<totfact> 0.14656630E+03</totfact>
</mgrwt>
</event>
<event>
 7    1  0.1330601E-005  0.1967437E+03  0.7546771E-02  0.1156987E+00
          2   -1    0    0  501    0  0.00000000000E+00  0.00000000000E+00  0.12719727563E+04  0.12719727563E+04  0.00000000000E+00 0. -1.
         -2   -1    0    0    0  501 -0.00000000000E+00 -0.00000000000E+00 -0.31290923914E+02  0.31290923914E+02  0.00000000000E+00 0.  1.
         23    2    1    2    0    0  0.54816504377E+02 -0.14168467625E+03  0.81911361421E+03  0.83804560513E+03  0.91070997855E+02 0.  0.
          5    1    1    2  502    0 -0.44687490533E+02 -0.88303197657E+01  0.95239028118E+02  0.10567643462E+03  0.47000000000E+01 0. -1.
         -5    1    1    2    0  502 -0.10129013844E+02  0.15051499602E+03  0.32632919009E+03  0.35954164050E+03  0.47000000000E+01 0. -1.
        -11    1    3    3    0    0 -0.20298751646E+02 -0.71445701354E+02  0.34853110035E+03  0.35635720207E+03  0.00000000000E+00 0.  1.
         11    1    3    3    0    0  0.75115256023E+02 -0.70238974898E+02  0.47058251386E+03  0.48168840305E+03  0.00000000000E+00 0. -1.
<mgrwt>
<rscale>  0 0.19164423E+03</rscale>
<asrwt>0</asrwt>
<pdfrwt beam="1">  1        2 0.19568808E+00 0.19674373E+03</pdfrwt>
<pdfrwt beam="2">  1       -2 0.48139893E-02 0.19674373E+03</pdfrwt>
<totfact> 0.37529349E+03</totfact>
</mgrwt>
</event>
<event>
 7    1  0.1330601E-005  0.3030636E+03  0.7546771E-02  0.1085025E+00
         -4   -1    0    0    0  501 -0.00000000000E+00  0.00000000000E+00  0.17223669769E+03  0.17223669769E+03  0.00000000000E+00 0.  1.
          4   -1    0    0  501    0  0.00000000000E+00 -0.00000000000E+00 -0.10641578730E+04  0.10641578730E+04  0.00000000000E+00 0. -1.
         23    2    1    2    0    0 -0.26137565117E+03  0.88935306664E+02 -0.88619911320E+03  0.93327692792E+03  0.97109403034E+02 0.  0.
          5    1    1    2  502    0  0.20827008114E+03 -0.18279937301E+02 -0.30175137073E+02  0.21128940272E+03  0.47000000000E+01 0.  1.
         -5    1    1    2    0  502  0.53105570035E+02 -0.70655369363E+02  0.24453074992E+02  0.91828240020E+02  0.47000000000E+01 0.  1.
        -11    1    3    3    0    0 -0.50467856024E+02 -0.83095501500E+01 -0.26917695028E+03  0.27399321830E+03  0.00000000000E+00 0. -1.
         11    1    3    3    0    0 -0.21090779515E+03  0.97244856814E+02 -0.61702216292E+03  0.65928370962E+03  0.00000000000E+00 0.  1.
<mgrwt>
<rscale>  0 0.30043166E+03</rscale>
<asrwt>0</asrwt>
<pdfrwt beam="2">  1        4 0.16371660E+00 0.30306363E+03</pdfrwt>
<pdfrwt beam="1">  1       -4 0.26497953E-01 0.30306363E+03</pdfrwt>
<totfact> 0.61727217E+00</totfact>
</mgrwt>
</event>
<event>
 7    1  0.1330601E-005  0.1365479E+03  0.7546771E-02  0.1229376E+00
         -2   -1    0    0    0  501 -0.00000000000E+00  0.00000000000E+00  0.21837002322E+03  0.21837002322E+03  0.00000000000E+00 0. -1.
          2   -1    0    0  501    0  0.00000000000E+00 -0.00000000000E+00 -0.70154092053E+02  0.70154092053E+02  0.00000000000E+00 0.  1.
         23    2    1    2    0    0 -0.13962773914E+02  0.53144282627E+02  0.42691079379E+02  0.11595292406E+03  0.92753859807E+02 0.  0.
          5    1    1    2  502    0  0.11865543538E+02 -0.55745451067E+02  0.13285433476E+03  0.14463993467E+03  0.47000000000E+01 0. -1.
         -5    1    1    2    0  502  0.20972303762E+01  0.26011684395E+01 -0.27329482968E+02  0.27931256538E+02  0.47000000000E+01 0. -1.
        -11    1    3    3    0    0 -0.42496854797E+02  0.26749767606E+02 -0.92687367122E+01  0.51063119909E+02  0.00000000000E+00 0.  1.
         11    1    3    3    0    0  0.28534080883E+02  0.26394515021E+02  0.51959816091E+02  0.64889804155E+02  0.00000000000E+00 0. -1.
<mgrwt>
<rscale>  0 0.12871418E+03</rscale>
<asrwt>0</asrwt>
<pdfrwt beam="2">  1        2 0.10792937E-01 0.13654787E+03</pdfrwt>
<pdfrwt beam="1">  1       -2 0.33595388E-01 0.13654787E+03</pdfrwt>
<totfact> 0.46054379E+03</totfact>
</mgrwt>
</event>
<event>
 7    1  0.1330601E-005  0.1601325E+03  0.7546771E-02  0.1196417E+00
          1   -1    0    0  501    0  0.00000000000E+00  0.00000000000E+00  0.32974081896E+03  0.32974081896E+03  0.00000000000E+00 0. -1.
         -1   -1    0    0    0  501 -0.00000000000E+00 -0.00000000000E+00 -0.66188630631E+02  0.66188630631E+02  0.00000000000E+00 0.  1.
         23    2    1    2    0    0  0.18481444893E+02 -0.98367815025E+02  0.10728097033E+03  0.17218155229E+03  0.90108210030E+02 0.  0.
          5    1    1    2  502    0 -0.22015809223E-01  0.10485667691E+03  0.51230833227E+02  0.11679730926E+03  0.47000000000E+01 0. -1.
         -5    1    1    2    0  502 -0.18459429084E+02 -0.64888618819E+01  0.10504038477E+03  0.10695058805E+03  0.47000000000E+01 0. -1.
        -11    1    3    3    0    0  0.38631665447E+01 -0.90627330601E+02  0.33704987670E+02  0.96769123699E+02  0.00000000000E+00 0.  1.
         11    1    3    3    0    0  0.14618278348E+02 -0.77404844243E+01  0.73575982663E+02  0.75412428589E+02  0.00000000000E+00 0. -1.
<mgrwt>
<rscale>  0 0.15334909E+03</rscale>
<asrwt>0</asrwt>
<pdfrwt beam="1">  1        1 0.50729356E-01 0.16013253E+03</pdfrwt>
<pdfrwt beam="2">  1       -1 0.10182866E-01 0.16013253E+03</pdfrwt>
<totfact> 0.44667099E+03</totfact>
</mgrwt>
</event>
<event>
 7    1  0.1330601E-005  0.1534199E+03  0.7546771E-02  0.1206092E+00
          2   -1    0    0  501    0  0.00000000000E+00  0.00000000000E+00  0.28910271269E+02  0.28910271269E+02  0.00000000000E+00 0. -1.
         -2   -1    0    0    0  501 -0.00000000000E+00 -0.00000000000E+00 -0.72361182564E+03  0.72361182564E+03  0.00000000000E+00 0.  1.
         23    2    1    2    0    0  0.75446033955E+02  0.47103029460E+02 -0.20832433738E+03  0.24252165424E+03  0.86642505774E+02 0.  0.
          5    1    1    2  502    0 -0.96008232914E+02 -0.10031803734E+02 -0.42092657821E+03  0.43187902487E+03  0.47000000000E+01 0.  1.
         -5    1    1    2    0  502  0.20562198958E+02 -0.37071225726E+02 -0.65450638774E+02  0.78121417798E+02  0.47000000000E+01 0.  1.
        -11    1    3    3    0    0  0.17987773574E-01  0.48562018775E+02 -0.87724317178E+02  0.10026876790E+03  0.00000000000E+00 0. -1.
         11    1    3    3    0    0  0.75428046182E+02 -0.14589893152E+01 -0.12060002021E+03  0.14225288635E+03  0.00000000000E+00 0.  1.
<mgrwt>
<rscale>  0 0.14551700E+03</rscale>
<asrwt>0</asrwt>
<pdfrwt beam="1">  1        2 0.44477338E-02 0.15341986E+03</pdfrwt>
<pdfrwt beam="2">  1       -2 0.11132490E+00 0.15341986E+03</pdfrwt>
<totfact> 0.11908784E+03</totfact>
</mgrwt>
</event>
<event>
 7    1  0.1330601E-005  0.2095320E+03  0.7546771E-02  0.1145697E+00
          2   -1    0    0  501    0  0.00000000000E+00  0.00000000000E+00  0.13819531937E+04  0.13819531937E+04  0.00000000000E+00 0. -1.
         -2   -1    0    0    0  501 -0.00000000000E+00 -0.00000000000E+00 -0.29419438186E+02  0.29419438186E+02  0.00000000000E+00 0.  1.
         23    2    1    2    0    0  0.90373308845E+02 -0.14181430839E+03  0.57177009382E+03  0.60298190625E+03  0.91583328531E+02 0.  0.
          5    1    1    2  502    0 -0.19631863022E+02  0.12440839061E+03  0.36204161839E+03  0.38335242420E+03  0.47000000000E+01 0.  1.
         -5    1    1    2    0  502 -0.70741445823E+02  0.17405917776E+02  0.41872204334E+03  0.42503830146E+03  0.47000000000E+01 0.  1.
        -11    1    3    3    0    0  0.44149171665E+01 -0.79278155160E+02  0.31974696891E+03  0.32945810281E+03  0.00000000000E+00 0.  1.
         11    1    3    3    0    0  0.85958391679E+02 -0.62536153226E+02  0.25202312491E+03  0.27352380344E+03  0.00000000000E+00 0. -1.
<mgrwt>
<rscale>  0 0.20486650E+03</rscale>
<asrwt>0</asrwt>
<pdfrwt beam="1">  1        2 0.21260813E+00 0.20953203E+03</pdfrwt>
<pdfrwt beam="2">  1       -2 0.45260685E-02 0.20953203E+03</pdfrwt>
<totfact> 0.35911565E+03</totfact>
</mgrwt>
</event>
<event>
 7    1  0.1330601E-005  0.1353919E+03  0.7546771E-02  0.1232059E+00
         -2   -1    0    0    0  501 -0.00000000000E+00  0.00000000000E+00  0.21508408519E+02  0.21508408519E+02  0.00000000000E+00 0.  1.
          2   -1    0    0  501    0  0.00000000000E+00 -0.00000000000E+00 -0.69455404224E+03  0.69455404224E+03  0.00000000000E+00 0. -1.
         23    2    1    2    0    0  0.24358684386E+02  0.45958318640E+02 -0.36216968528E+03  0.37698306294E+03  0.90795573969E+02 0.  0.
          5    1    1    2  502    0 -0.34492644177E+02 -0.71029625666E+02 -0.29879992850E+03  0.30909292696E+03  0.47000000000E+01 0. -1.
         -5    1    1    2    0  502  0.10133959791E+02  0.25071307026E+02 -0.12076019938E+02  0.29986460855E+02  0.47000000000E+01 0. -1.
        -11    1    3    3    0    0 -0.20281349692E+02  0.53383410090E+02 -0.24002814365E+03  0.24672784878E+03  0.00000000000E+00 0. -1.
         11    1    3    3    0    0  0.44640034077E+02 -0.74250914498E+01 -0.12214154163E+03  0.13025521417E+03  0.00000000000E+00 0.  1.
<mgrwt>
<rscale>  0 0.12694574E+03</rscale>
<asrwt>0</asrwt>
<pdfrwt beam="2">  1        2 0.10685445E+00 0.13539193E+03</pdfrwt>
<pdfrwt beam="1">  1       -2 0.33089864E-02 0.13539193E+03</pdfrwt>
<totfact> 0.14725307E+04</totfact>
</mgrwt>
</event>
<event>
 7    1  0.1330601E-005  0.1437970E+03  0.7546771E-02  0.1219925E+00
         -3   -1    0    0    0  501 -0.00000000000E+00  0.00000000000E+00  0.87993364378E+02  0.87993364378E+02  0.00000000000E+00 0.  1.
          3   -1    0    0  501    0  0.00000000000E+00 -0.00000000000E+00 -0.19689382133E+03  0.19689382133E+03  0.00000000000E+00 0. -1.
         23    2    1    2    0    0 -0.45857555918E+02  0.54310988762E+02 -0.80647237105E+02  0.13834085081E+03  0.87072471055E+02 0.  0.
          5    1    1    2  502    0  0.16981999360E+02  0.38995419837E+02  0.54023993888E+01  0.43131276235E+02  0.47000000000E+01 0. -1.
         -5    1    1    2    0  502  0.28875556558E+02 -0.93306408600E+02 -0.33655619241E+02  0.10341505867E+03  0.47000000000E+01 0. -1.
        -11    1    3    3    0    0 -0.65335078248E+02  0.28162966521E+02 -0.78082910358E+02  0.10563506058E+03  0.00000000000E+00 0. -1.
         11    1    3    3    0    0  0.19477522330E+02  0.26148022241E+02 -0.25643267470E+01  0.32705790235E+02  0.00000000000E+00 0.  1.
<mgrwt>
<rscale>  0 0.13520911E+03</rscale>
<asrwt>0</asrwt>
<pdfrwt beam="2">  1        3 0.30291357E-01 0.14379702E+03</pdfrwt>
<pdfrwt beam="1">  1       -3 0.13537441E-01 0.14379702E+03</pdfrwt>
<totfact> 0.10855246E+03</totfact>
</mgrwt>
</event>
<event>
 7    1  0.1330601E-005  0.2278287E+03  0.7546771E-02  0.1128177E+00
          2   -1    0    0  501    0  0.00000000000E+00  0.00000000000E+00  0.13597156909E+03  0.13597156909E+03  0.00000000000E+00 0. -1.
         -2   -1    0    0    0  501 -0.00000000000E+00 -0.00000000000E+00 -0.95435260861E+02  0.95435260861E+02  0.00000000000E+00 0.  1.
         23    2    1    2    0    0 -0.14103348022E+02 -0.18291848751E+02  0.44978110596E+02  0.10429544405E+03  0.91219587047E+02 0.  0.
          5    1    1    2  502    0  0.42849700905E+01 -0.44778886158E+02  0.30151880118E+02  0.54357478684E+02  0.47000000000E+01 0. -1.
         -5    1    1    2    0  502  0.98183779319E+01  0.63070734909E+02 -0.34593682485E+02  0.72753907215E+02  0.47000000000E+01 0. -1.
        -11    1    3    3    0    0 -0.31694745400E+02 -0.24657098068E+02 -0.13917783930E+02  0.42499812713E+02  0.00000000000E+00 0.  1.
         11    1    3    3    0    0  0.17591397377E+02  0.63652493174E+01  0.58895894526E+02  0.61795631339E+02  0.00000000000E+00 0. -1.
<mgrwt>
<rscale>  0 0.22782873E+03</rscale>
<asrwt>0</asrwt>
<pdfrwt beam="1">  1        2 0.20918703E-01 0.22782873E+03</pdfrwt>
<pdfrwt beam="2">  1       -2 0.14682348E-01 0.22782873E+03</pdfrwt>
<totfact> 0.91525399E+03</totfact>
</mgrwt>
</event>
<event>
 7    1  0.1330601E-005  0.1458133E+03  0.7546771E-02  0.1216752E+00
         -1   -1    0    0    0  501 -0.00000000000E+00  0.00000000000E+00  0.14142431535E+04  0.14142431535E+04  0.00000000000E+00 0.  1.
          1   -1    0    0  501    0  0.00000000000E+00 -0.00000000000E+00 -0.12286653921E+02  0.12286653921E+02  0.00000000000E+00 0. -1.
         23    2    1    2    0    0  0.75061688846E+02  0.12740135495E+01  0.52176129221E+03  0.53433861655E+03  0.87447303207E+02 0.  0.
          5    1    1    2  502    0 -0.43292692468E+02  0.82504716991E+01  0.81320244667E+02  0.92614252128E+02  0.47000000000E+01 0.  1.
         -5    1    1    2    0  502 -0.31768996377E+02 -0.95244852486E+01  0.79887496271E+03  0.79957693875E+03  0.47000000000E+01 0.  1.
        -11    1    3    3    0    0  0.80082874370E+02 -0.23653898146E+02  0.46049675833E+03  0.46800645092E+03  0.00000000000E+00 0.  1.
         11    1    3    3    0    0 -0.50211855239E+01  0.24927911696E+02  0.61264533882E+02  0.66332165631E+02  0.00000000000E+00 0. -1.
<mgrwt>
<rscale>  0 0.13748633E+03</rscale>
<asrwt>0</asrwt>
<pdfrwt beam="2">  1        1 0.18902556E-02 0.14581330E+03</pdfrwt>
<pdfrwt beam="1">  1       -1 0.21757574E+00 0.14581330E+03</pdfrwt>
<totfact> 0.82647396E+02</totfact>
</mgrwt>
</event>
<event>
 7    1  0.1330601E-005  0.1509592E+03  0.7546771E-02  0.1212481E+00
         -3   -1    0    0    0  501 -0.00000000000E+00  0.00000000000E+00  0.85024545252E+02  0.85024545252E+02  0.00000000000E+00 0. -1.
          3   -1    0    0  501    0  0.00000000000E+00 -0.00000000000E+00 -0.20599762048E+03  0.20599762048E+03  0.00000000000E+00 0.  1.
         23    2    1    2    0    0 -0.82907784177E+02 -0.16994746297E+02 -0.49852529662E+02  0.12414856144E+03  0.75928048282E+02 0.  0.
          5    1    1    2  502    0  0.86158950282E+02  0.29617476431E+02  0.31879885771E+01  0.91284242315E+02  0.47000000000E+01 0.  1.
         -5    1    1    2    0  502 -0.32511661054E+01 -0.12622730134E+02 -0.74308534144E+02  0.75589361974E+02  0.47000000000E+01 0.  1.
        -11    1    3    3    0    0 -0.65897662494E+02 -0.21779259841E+00 -0.67585843791E+02  0.94394892005E+02  0.00000000000E+00 0.  1.
         11    1    3    3    0    0 -0.17010121682E+02 -0.16776953698E+02  0.17733314128E+02  0.29753669438E+02  0.00000000000E+00 0. -1.
<mgrwt>
<rscale>  0 0.14063205E+03</rscale>
<asrwt>0</asrwt>
<pdfrwt beam="2">  1        3 0.31691941E-01 0.15095916E+03</pdfrwt>
<pdfrwt beam="1">  1       -3 0.13080699E-01 0.15095916E+03</pdfrwt>
<totfact> 0.10657589E+03</totfact>
</mgrwt>
</event>
<event>
 7    1  0.1330601E-005  0.2858686E+03  0.7546771E-02  0.1129848E+00
          1   -1    0    0  501    0  0.00000000000E+00  0.00000000000E+00  0.31081285694E+03  0.31081285694E+03  0.00000000000E+00 0. -1.
         -1   -1    0    0    0  501 -0.00000000000E+00 -0.00000000000E+00 -0.17991271010E+03  0.17991271010E+03  0.00000000000E+00 0.  1.
         23    2    1    2    0    0  0.48568182272E+02  0.41432758907E+02  0.16931937703E+03  0.20228686286E+03  0.90417816875E+02 0.  0.
          5    1    1    2  502    0 -0.12218877702E+03 -0.52467724069E+02  0.74960790422E+02  0.15272252421E+03  0.47000000000E+01 0. -1.
         -5    1    1    2    0  502  0.73620594752E+02  0.11034965162E+02 -0.11338002062E+03  0.13571617996E+03  0.47000000000E+01 0.  1.
        -11    1    3    3    0    0  0.57897135696E+02 -0.83769449155E+01  0.73964903809E+02  0.94303014392E+02  0.00000000000E+00 0.  1.
         11    1    3    3    0    0 -0.93289534237E+01  0.49809703823E+02  0.95354473225E+02  0.10798384847E+03  0.00000000000E+00 0. -1.
<mgrwt>
<rscale>  0 0.22549968E+03</rscale>
<asrwt>0</asrwt>
<pdfrwt beam="1">  1        1 0.47817363E-01 0.28586859E+03</pdfrwt>
<pdfrwt beam="2">  1       -1 0.27678878E-01 0.28586859E+03</pdfrwt>
<totfact> 0.98377522E+02</totfact>
</mgrwt>
</event>
<event>
 7    1  0.1330601E-005  0.1268778E+03  0.7546771E-02  0.1247759E+00
          1   -1    0    0  501    0  0.00000000000E+00  0.00000000000E+00  0.12356104709E+03  0.12356104709E+03  0.00000000000E+00 0. -1.
         -1   -1    0    0    0  501 -0.00000000000E+00 -0.00000000000E+00 -0.11924636245E+03  0.11924636245E+03  0.00000000000E+00 0.  1.
         23    2    1    2    0    0 -0.94106105349E+01 -0.19587742756E+02  0.53421439996E+02  0.10675794754E+03  0.89839689748E+02 0.  0.
          5    1    1    2  502    0 -0.49322987644E+02 -0.21465683039E+02 -0.29856148061E+02  0.61700990555E+02  0.47000000000E+01 0. -1.
         -5    1    1    2    0  502  0.58733598179E+02  0.41053425794E+02 -0.19250607299E+02  0.74348471443E+02  0.47000000000E+01 0. -1.
        -11    1    3    3    0    0  0.14033256460E+02 -0.69114447415E+01 -0.21870024903E+02  0.26888628536E+02  0.00000000000E+00 0.  1.
         11    1    3    3    0    0 -0.23443866995E+02 -0.12676298014E+02  0.75291464899E+02  0.79869319001E+02  0.00000000000E+00 0. -1.
<mgrwt>
<rscale>  0 0.11721770E+03</rscale>
<asrwt>0</asrwt>
<pdfrwt beam="1">  1        1 0.19009392E-01 0.12687783E+03</pdfrwt>
<pdfrwt beam="2">  1       -1 0.18345594E-01 0.12687783E+03</pdfrwt>
<totfact> 0.59966427E+03</totfact>
</mgrwt>
</event>
<event>
 7    1  0.1330601E-005  0.1524654E+03  0.7546771E-02  0.1206277E+00
         -2   -1    0    0    0  501 -0.00000000000E+00  0.00000000000E+00  0.48264877389E+02  0.48264877389E+02  0.00000000000E+00 0.  1.
          2   -1    0    0  501    0  0.00000000000E+00 -0.00000000000E+00 -0.41630110515E+03  0.41630110515E+03  0.00000000000E+00 0. -1.
         23    2    1    2    0    0  0.66342301005E+02  0.56746689066E+02 -0.21047338722E+03  0.24531325159E+03  0.90873852440E+02 0.  0.
          5    1    1    2  502    0 -0.13194711605E+02 -0.88852237472E+02 -0.86936919922E+02  0.12509571761E+03  0.47000000000E+01 0.  1.
         -5    1    1    2    0  502 -0.53147589400E+02  0.32105548406E+02 -0.70625920619E+02  0.94157013338E+02  0.47000000000E+01 0.  1.
        -11    1    3    3    0    0 -0.22743353655E+02  0.63478974870E+01 -0.36869211099E+02  0.43782355637E+02  0.00000000000E+00 0.  1.
         11    1    3    3    0    0  0.89085654660E+02  0.50398791579E+02 -0.17360417612E+03  0.20153089596E+03  0.00000000000E+00 0. -1.
<mgrwt>
<rscale>  0 0.14537286E+03</rscale>
<asrwt>0</asrwt>
<pdfrwt beam="2">  1        2 0.64046322E-01 0.15246544E+03</pdfrwt>
<pdfrwt beam="1">  1       -2 0.74253659E-02 0.15246544E+03</pdfrwt>
<totfact> 0.78043312E+03</totfact>
</mgrwt>
</event>
<event>
 7    1  0.1330601E-005  0.1957873E+03  0.7546771E-02  0.1157659E+00
          1   -1    0    0  501    0  0.00000000000E+00  0.00000000000E+00  0.30819203017E+03  0.30819203017E+03  0.00000000000E+00 0. -1.
         -1   -1    0    0    0  501 -0.00000000000E+00 -0.00000000000E+00 -0.12847952354E+03  0.12847952354E+03  0.00000000000E+00 0.  1.
         23    2    1    2    0    0 -0.14996794325E+03  0.14729176804E+02  0.16232887199E+03  0.24011401022E+03  0.92718620425E+02 0.  0.
          5    1    1    2  502    0  0.15014583683E+03  0.34284639785E+01 -0.23020665245E+02  0.15201173544E+03  0.47000000000E+01 0.  1.
         -5    1    1    2    0  502 -0.17789358221E+00 -0.18157640782E+02  0.40404299885E+02  0.44545808042E+02  0.47000000000E+01 0.  1.
        -11    1    3    3    0    0 -0.52067982599E+02 -0.20065283242E+02  0.11097992182E+03  0.12421849077E+03  0.00000000000E+00 0. -1.
         11    1    3    3    0    0 -0.97899960648E+02  0.34794460046E+02  0.51348950170E+02  0.11589551945E+03  0.00000000000E+00 0.  1.
<mgrwt>
<rscale>  0 0.19089236E+03</rscale>
<asrwt>0</asrwt>
<pdfrwt beam="1">  1        1 0.47414158E-01 0.19578733E+03</pdfrwt>
<pdfrwt beam="2">  1       -1 0.19766081E-01 0.19578733E+03</pdfrwt>
<totfact> 0.17255245E+03</totfact>
</mgrwt>
</event>
<event>
 7    1  0.1330601E-005  0.1833223E+03  0.7546771E-02  0.1169462E+00
          2   -1    0    0  501    0  0.00000000000E+00  0.00000000000E+00  0.91854576221E+03  0.91854576221E+03  0.00000000000E+00 0.  1.
         -2   -1    0    0    0  501 -0.00000000000E+00 -0.00000000000E+00 -0.38374503061E+02  0.38374503061E+02  0.00000000000E+00 0. -1.
         23    2    1    2    0    0  0.12766398364E+03  0.41039795980E+02  0.60066068555E+03  0.62265504480E+03  0.94465274403E+02 0.  0.
          5    1    1    2  502    0 -0.82509815020E+02  0.37990820755E+02  0.12034194781E+03  0.15084908498E+03  0.47000000000E+01 0. -1.
         -5    1    1    2    0  502 -0.45154168621E+02 -0.79030616735E+02  0.15916862578E+03  0.18341613549E+03  0.47000000000E+01 0. -1.
        -11    1    3    3    0    0  0.13445311659E+03  0.56879680067E+02  0.51579762634E+03  0.53605981933E+03  0.00000000000E+00 0. -1.
         11    1    3    3    0    0 -0.67891329477E+01 -0.15839884087E+02  0.84863059217E+02  0.86595225468E+02  0.00000000000E+00 0.  1.
<mgrwt>
<rscale>  0 0.17829648E+03</rscale>
<asrwt>0</asrwt>
<pdfrwt beam="1">  1        2 0.14131472E+00 0.18332233E+03</pdfrwt>
<pdfrwt beam="2">  1       -2 0.59037704E-02 0.18332233E+03</pdfrwt>
<totfact> 0.44239915E+03</totfact>
</mgrwt>
</event>
<event>
 7    1  0.1330601E-005  0.1551817E+03  0.7546771E-02  0.1202855E+00
         -1   -1    0    0    0  501 -0.00000000000E+00  0.00000000000E+00  0.15975079093E+02  0.15975079093E+02  0.00000000000E+00 0.  1.
          1   -1    0    0  501    0  0.00000000000E+00 -0.00000000000E+00 -0.12612626148E+04  0.12612626148E+04  0.00000000000E+00 0. -1.
         23    2    1    2    0    0  0.22931568146E+02 -0.89043836658E+02 -0.57678200822E+03  0.59095714009E+03  0.89989970323E+02 0.  0.
          5    1    1    2  502    0 -0.24145841751E+02  0.11254434833E+03 -0.63318506985E+03  0.64357957915E+03  0.47000000000E+01 0. -1.
         -5    1    1    2    0  502  0.12142736048E+01 -0.23500511668E+02 -0.35320457682E+02  0.42700974695E+02  0.47000000000E+01 0. -1.
        -11    1    3    3    0    0 -0.28726180856E+02 -0.30542629510E+02 -0.11047394073E+03  0.11816318067E+03  0.00000000000E+00 0.  1.
         11    1    3    3    0    0  0.51657749002E+02 -0.58501207148E+02 -0.46630806748E+03  0.47279395942E+03  0.00000000000E+00 0. -1.
<mgrwt>
<rscale>  0 0.14807764E+03</rscale>
<asrwt>0</asrwt>
<pdfrwt beam="2">  1        1 0.19404044E+00 0.15518169E+03</pdfrwt>
<pdfrwt beam="1">  1       -1 0.24577040E-02 0.15518169E+03</pdfrwt>
<totfact> 0.51733015E+03</totfact>
</mgrwt>
</event>
<event>
 7    1  0.1330601E-005  0.1614976E+03  0.7546771E-02  0.1194569E+00
          1   -1    0    0  501    0  0.00000000000E+00  0.00000000000E+00  0.26440336014E+03  0.26440336014E+03  0.00000000000E+00 0. -1.
         -1   -1    0    0    0  501 -0.00000000000E+00 -0.00000000000E+00 -0.97249587353E+02  0.97249587353E+02  0.00000000000E+00 0.  1.
         23    2    1    2    0    0 -0.10207454144E+03 -0.60286405772E+01  0.14390956593E+03  0.19849119509E+03  0.90737174535E+02 0.  0.
          5    1    1    2  502    0  0.96342856449E+02 -0.32138382000E+02  0.52574250009E+02  0.11445943976E+03  0.47000000000E+01 0.  1.
         -5    1    1    2    0  502  0.57316849937E+01  0.38167022577E+02 -0.29330043155E+02  0.48702312643E+02  0.47000000000E+01 0.  1.
        -11    1    3    3    0    0 -0.97869569364E+02  0.17829706476E+02  0.72532949246E+02  0.12311531085E+03  0.00000000000E+00 0.  1.
         11    1    3    3    0    0 -0.42049720789E+01 -0.23858347054E+02  0.71376616687E+02  0.75375884233E+02  0.00000000000E+00 0. -1.
<mgrwt>
<rscale>  0 0.15490739E+03</rscale>
<asrwt>0</asrwt>
<pdfrwt beam="1">  1        1 0.40677440E-01 0.16149757E+03</pdfrwt>
<pdfrwt beam="2">  1       -1 0.14961475E-01 0.16149757E+03</pdfrwt>
<totfact> 0.32361107E+03</totfact>
</mgrwt>
</event>
<event>
 7    1  0.1330601E-005  0.2057113E+03  0.7546771E-02  0.1148678E+00
          1   -1    0    0  501    0  0.00000000000E+00  0.00000000000E+00  0.84066243514E+03  0.84066243514E+03  0.00000000000E+00 0. -1.
         -1   -1    0    0    0  501 -0.00000000000E+00 -0.00000000000E+00 -0.56052966683E+02  0.56052966683E+02  0.00000000000E+00 0.  1.
         23    2    1    2    0    0 -0.69506932478E+02  0.14785059586E+03  0.56589982526E+03  0.59646379616E+03  0.93996997503E+02 0.  0.
          5    1    1    2  502    0  0.92822960463E+02 -0.53434315521E+02  0.13030704409E+03  0.16874046285E+03  0.47000000000E+01 0. -1.
         -5    1    1    2    0  502 -0.23316027985E+02 -0.94416280343E+02  0.88402599110E+02  0.13151114281E+03  0.47000000000E+01 0. -1.
        -11    1    3    3    0    0  0.11651900694E+01  0.10668390297E+03  0.32279351649E+03  0.33996833251E+03  0.00000000000E+00 0.  1.
         11    1    3    3    0    0 -0.70672122548E+02  0.41166692890E+02  0.24310630877E+03  0.25649546365E+03  0.00000000000E+00 0. -1.
<mgrwt>
<rscale>  0 0.20126233E+03</rscale>
<asrwt>0</asrwt>
<pdfrwt beam="1">  1        1 0.12933267E+00 0.20571125E+03</pdfrwt>
<pdfrwt beam="2">  1       -1 0.86235339E-02 0.20571125E+03</pdfrwt>
<totfact> 0.16314886E+03</totfact>
</mgrwt>
</event>
<event>
 7    1  0.1330601E-005  0.1766334E+03  0.7546771E-02  0.1177386E+00
          2   -1    0    0  501    0  0.00000000000E+00  0.00000000000E+00  0.65483542273E+03  0.65483542273E+03  0.00000000000E+00 0. -1.
         -2   -1    0    0    0  501 -0.00000000000E+00 -0.00000000000E+00 -0.62080681669E+02  0.62080681669E+02  0.00000000000E+00 0.  1.
         23    2    1    2    0    0  0.12098364536E+03  0.30619502438E+02  0.48820220344E+03  0.51165874934E+03  0.88761973646E+02 0.  0.
          5    1    1    2  502    0 -0.55687534114E+02 -0.85715070452E+01  0.12160458650E+03  0.13410569580E+03  0.47000000000E+01 0.  1.
         -5    1    1    2    0  502 -0.65296111243E+02 -0.22047995392E+02 -0.17052048873E+02  0.71151659257E+02  0.47000000000E+01 0.  1.
        -11    1    3    3    0    0 -0.58368749895E+01 -0.16259185636E+02  0.41778903909E+02  0.45209590122E+02  0.00000000000E+00 0.  1.
         11    1    3    3    0    0  0.12682052035E+03  0.46878688074E+02  0.44642329953E+03  0.46644915922E+03  0.00000000000E+00 0. -1.
<mgrwt>
<rscale>  0 0.17044334E+03</rscale>
<asrwt>0</asrwt>
<pdfrwt beam="1">  1        2 0.10074391E+00 0.17663337E+03</pdfrwt>
<pdfrwt beam="2">  1       -2 0.95508745E-02 0.17663337E+03</pdfrwt>
<totfact> 0.31996362E+03</totfact>
</mgrwt>
</event>
<event>
 7    1  0.1330601E-005  0.3417840E+03  0.7546771E-02  0.1067296E+00
          2   -1    0    0  501    0  0.00000000000E+00  0.00000000000E+00  0.10738481516E+04  0.10738481516E+04  0.00000000000E+00 0. -1.
         -2   -1    0    0    0  501 -0.00000000000E+00 -0.00000000000E+00 -0.10901204270E+03  0.10901204270E+03  0.00000000000E+00 0.  1.
         23    2    1    2    0    0  0.31617841071E+03 -0.34975263490E+02  0.36230396173E+03  0.49013999267E+03  0.88209949978E+02 0.  0.
          5    1    1    2  502    0 -0.71391159148E+02  0.96403560619E+01  0.26699802644E+03  0.27658573751E+03  0.47000000000E+01 0.  1.
         -5    1    1    2    0  502 -0.24478725156E+03  0.25334907428E+02  0.33553412076E+03  0.41613446415E+03  0.47000000000E+01 0.  1.
        -11    1    3    3    0    0  0.20915140646E+03 -0.17958927321E+02  0.29671988651E+03  0.36346873998E+03  0.00000000000E+00 0. -1.
         11    1    3    3    0    0  0.10702700425E+03 -0.17016336169E+02  0.65584075222E+02  0.12667125269E+03  0.00000000000E+00 0.  1.
<mgrwt>
<rscale>  0 0.33882751E+03</rscale>
<asrwt>0</asrwt>
<pdfrwt beam="1">  1        2 0.16520740E+00 0.34178398E+03</pdfrwt>
<pdfrwt beam="2">  1       -2 0.16771084E-01 0.34178398E+03</pdfrwt>
<totfact> 0.67143156E+02</totfact>
</mgrwt>
</event>
<event>
 7    1  0.1330601E-005  0.2077181E+03  0.7546771E-02  0.1147248E+00
         -1   -1    0    0    0  501 -0.00000000000E+00  0.00000000000E+00  0.49972393536E+02  0.49972393536E+02  0.00000000000E+00 0.  1.
          1   -1    0    0  501    0  0.00000000000E+00 -0.00000000000E+00 -0.84096203077E+03  0.84096203077E+03  0.00000000000E+00 0. -1.
         23    2    1    2    0    0 -0.12091854766E+03  0.11358611516E+03 -0.48902633232E+03  0.52442569117E+03  0.91391745431E+02 0.  0.
          5    1    1    2  502    0 -0.11624509212E+02  0.87510015184E+01 -0.65223347125E+00  0.15304399710E+02  0.47000000000E+01 0.  1.
         -5    1    1    2    0  502  0.13254305688E+03 -0.12233711668E+03 -0.30131107145E+03  0.35120433343E+03  0.47000000000E+01 0.  1.
        -11    1    3    3    0    0 -0.81697981110E+02  0.25386627148E+02 -0.30301350847E+03  0.31485905937E+03  0.00000000000E+00 0. -1.
         11    1    3    3    0    0 -0.39220566554E+02  0.88199488009E+02 -0.18601282385E+03  0.20956663180E+03  0.00000000000E+00 0.  1.
<mgrwt>
<rscale>  0 0.20298110E+03</rscale>
<asrwt>0</asrwt>
<pdfrwt beam="2">  1        1 0.12937877E+00 0.20771811E+03</pdfrwt>
<pdfrwt beam="1">  1       -1 0.76880609E-02 0.20771811E+03</pdfrwt>
<totfact> 0.19429576E+03</totfact>
</mgrwt>
</event>
<event>
 7    1  0.1330601E-005  0.1451490E+03  0.7546771E-02  0.1218237E+00
         -2   -1    0    0    0  501 -0.00000000000E+00  0.00000000000E+00  0.20053786532E+03  0.20053786532E+03  0.00000000000E+00 0.  1.
          2   -1    0    0  501    0  0.00000000000E+00 -0.00000000000E+00 -0.85267903962E+02  0.85267903962E+02  0.00000000000E+00 0. -1.
         23    2    1    2    0    0 -0.55508245573E+02  0.48614670397E+02  0.28766237985E+02  0.11683494821E+03  0.85897364168E+02 0.  0.
          5    1    1    2  502    0 -0.19309165486E+02 -0.41406021028E+02  0.81430225074E+02  0.93489432583E+02  0.47000000000E+01 0. -1.
         -5    1    1    2    0  502  0.74817411058E+02 -0.72086493691E+01  0.50734982983E+01  0.75481388489E+02  0.47000000000E+01 0. -1.
        -11    1    3    3    0    0 -0.30074436433E+02  0.71723444873E+02  0.12339043951E+02  0.78746277861E+02  0.00000000000E+00 0.  1.
         11    1    3    3    0    0 -0.25433809139E+02 -0.23108774477E+02  0.16427194034E+02  0.38088670349E+02  0.00000000000E+00 0. -1.
<mgrwt>
<rscale>  0 0.13641400E+03</rscale>
<asrwt>0</asrwt>
<pdfrwt beam="2">  1        2 0.13118139E-01 0.14514904E+03</pdfrwt>
<pdfrwt beam="1">  1       -2 0.30851979E-01 0.14514904E+03</pdfrwt>
<totfact> 0.42686984E+03</totfact>
</mgrwt>
</event>
<event>
 7    1  0.1330601E-005  0.2182666E+03  0.7546771E-02  0.1135182E+00
         -1   -1    0    0    0  501 -0.00000000000E+00  0.00000000000E+00  0.13447934223E+02  0.13447934223E+02  0.00000000000E+00 0.  1.
          1   -1    0    0  501    0  0.00000000000E+00 -0.00000000000E+00 -0.88564333849E+03  0.88564333849E+03  0.00000000000E+00 0. -1.
         23    2    1    2    0    0 -0.17548427554E+01 -0.14857668395E+02 -0.40038536773E+03  0.41077398798E+03  0.90570396534E+02 0.  0.
          5    1    1    2  502    0  0.34637870422E+02 -0.45247613273E+02 -0.22069638234E+03  0.22798270055E+03  0.47000000000E+01 0.  1.
         -5    1    1    2    0  502 -0.32883027667E+02  0.60105281669E+02 -0.25111365420E+03  0.26033458418E+03  0.47000000000E+01 0.  1.
        -11    1    3    3    0    0 -0.17276666478E+02  0.34658569435E+02 -0.13936633651E+03  0.14464672617E+03  0.00000000000E+00 0. -1.
         11    1    3    3    0    0  0.15521823723E+02 -0.49516237831E+02 -0.26101903122E+03  0.26612726181E+03  0.00000000000E+00 0.  1.
<mgrwt>
<rscale>  0 0.21826657E+03</rscale>
<asrwt>0</asrwt>
<pdfrwt beam="2">  1        1 0.13625287E+00 0.21826657E+03</pdfrwt>
<pdfrwt beam="1">  1       -1 0.20689122E-02 0.21826657E+03</pdfrwt>
<totfact> 0.12620758E+04</totfact>
</mgrwt>
</event>
<event>
 7    1  0.1330601E-005  0.4286983E+03  0.7546771E-02  0.1034946E+00
         -2   -1    0    0    0  501 -0.00000000000E+00  0.00000000000E+00  0.65418733664E+03  0.65418733664E+03  0.00000000000E+00 0. -1.
          2   -1    0    0  501    0  0.00000000000E+00 -0.00000000000E+00 -0.40233005117E+03  0.40233005117E+03  0.00000000000E+00 0.  1.
         23    2    1    2    0    0  0.22726426711E+03 -0.34134165970E+03 -0.17157765738E+03  0.45395671460E+03  0.92057756101E+02 0.  0.
          5    1    1    2  502    0 -0.22886788519E+03  0.33884819715E+03  0.37826551113E+03  0.55705071268E+03  0.47000000000E+01 0. -1.
         -5    1    1    2    0  502  0.16036180772E+01  0.24934625548E+01  0.45169431711E+02  0.45509960532E+02  0.47000000000E+01 0. -1.
        -11    1    3    3    0    0  0.40050309518E+02 -0.77778170721E+02 -0.78491556791E+02  0.11753465710E+03  0.00000000000E+00 0.  1.
         11    1    3    3    0    0  0.18721395760E+03 -0.26356348898E+03 -0.93086100587E+02  0.33642205749E+03  0.00000000000E+00 0. -1.
<mgrwt>
<rscale>  0 0.42657879E+03</rscale>
<asrwt>0</asrwt>
<pdfrwt beam="2">  1        2 0.61896931E-01 0.42869828E+03</pdfrwt>
<pdfrwt beam="1">  1       -2 0.10064421E+00 0.42869828E+03</pdfrwt>
<totfact> 0.66516382E+01</totfact>
</mgrwt>
</event>
<event>
 7    1  0.1330601E-005  0.1451382E+03  0.7546771E-02  0.1216621E+00
          1   -1    0    0  501    0  0.00000000000E+00  0.00000000000E+00  0.73728580242E+03  0.73728580242E+03  0.00000000000E+00 0. -1.
         -1   -1    0    0    0  501 -0.00000000000E+00 -0.00000000000E+00 -0.23336448937E+02  0.23336448937E+02  0.00000000000E+00 0.  1.
         23    2    1    2    0    0 -0.71060066254E+02 -0.19776448689E+02  0.31545940032E+03  0.33652397024E+03  0.91066505137E+02 0.  0.
          5    1    1    2  502    0  0.52032120927E+02 -0.73061191150E+01  0.38409398465E+03  0.38769962604E+03  0.47000000000E+01 0.  1.
         -5    1    1    2    0  502  0.19027945327E+02  0.27082567804E+02  0.14395968514E+02  0.36398655081E+02  0.47000000000E+01 0.  1.
        -11    1    3    3    0    0 -0.48497444023E+02 -0.48857333733E+02  0.12655083859E+03  0.14406302747E+03  0.00000000000E+00 0.  1.
         11    1    3    3    0    0 -0.22562622230E+02  0.29080885044E+02  0.18890856174E+03  0.19246094278E+03  0.00000000000E+00 0. -1.
<mgrwt>
<rscale>  0 0.13758150E+03</rscale>
<asrwt>0</asrwt>
<pdfrwt beam="1">  1        1 0.11342857E+00 0.14513824E+03</pdfrwt>
<pdfrwt beam="2">  1       -1 0.35902235E-02 0.14513824E+03</pdfrwt>
<totfact> 0.72961851E+03</totfact>
</mgrwt>
</event>
<event>
 7    1  0.1330601E-005  0.1428165E+03  0.7546771E-02  0.1223903E+00
          3   -1    0    0  501    0  0.00000000000E+00  0.00000000000E+00  0.38551482660E+02  0.38551482660E+02  0.00000000000E+00 0. -1.
         -3   -1    0    0    0  501 -0.00000000000E+00 -0.00000000000E+00 -0.48830147348E+03  0.48830147348E+03  0.00000000000E+00 0.  1.
         23    2    1    2    0    0  0.65308969480E+02  0.22445348984E+02 -0.86311270158E+02  0.13636063333E+03  0.79846927183E+02 0.  0.
          5    1    1    2  502    0 -0.10162554863E+02 -0.65394169943E+02 -0.11937143127E+03  0.13656977552E+03  0.47000000000E+01 0. -1.
         -5    1    1    2    0  502 -0.55146414617E+02  0.42948820960E+02 -0.24406728940E+03  0.25392254729E+03  0.47000000000E+01 0. -1.
        -11    1    3    3    0    0  0.59070076864E+02 -0.19370749845E+02 -0.60942997305E+02  0.87054861156E+02  0.00000000000E+00 0.  1.
         11    1    3    3    0    0  0.62388926161E+01  0.41816098828E+02 -0.25368272852E+02  0.49305772175E+02  0.00000000000E+00 0. -1.
<mgrwt>
<rscale>  0 0.13242402E+03</rscale>
<asrwt>0</asrwt>
<pdfrwt beam="1">  1        3 0.59309974E-02 0.14281649E+03</pdfrwt>
<pdfrwt beam="2">  1       -3 0.75123303E-01 0.14281649E+03</pdfrwt>
<totfact> 0.69120325E+02</totfact>
</mgrwt>
</event>
<event>
 7    1  0.1330601E-005  0.1332452E+03  0.7546771E-02  0.1234597E+00
         -2   -1    0    0    0  501 -0.00000000000E+00  0.00000000000E+00  0.70369818321E+02  0.70369818321E+02  0.00000000000E+00 0.  1.
          2   -1    0    0  501    0  0.00000000000E+00 -0.00000000000E+00 -0.20084215967E+03  0.20084215967E+03  0.00000000000E+00 0. -1.
         23    2    1    2    0    0  0.26599549389E+02  0.37683949111E+02 -0.64233222676E+02  0.12241040315E+03  0.93438663596E+02 0.  0.
          5    1    1    2  502    0 -0.63581623933E+02  0.12097135788E+02 -0.11403924552E+02  0.65887047979E+02  0.47000000000E+01 0.  1.
         -5    1    1    2    0  502  0.36982074544E+02 -0.49781084899E+02 -0.54835194122E+02  0.82914526868E+02  0.47000000000E+01 0.  1.
        -11    1    3    3    0    0  0.58230971581E+02  0.25671463931E+02 -0.61443495315E+02  0.88460009203E+02  0.00000000000E+00 0. -1.
         11    1    3    3    0    0 -0.31631422192E+02  0.12012485180E+02 -0.27897273612E+01  0.33950393942E+02  0.00000000000E+00 0.  1.
<mgrwt>
<rscale>  0 0.12530242E+03</rscale>
<asrwt>0</asrwt>
<pdfrwt beam="2">  1        2 0.30898793E-01 0.13324522E+03</pdfrwt>
<pdfrwt beam="1">  1       -2 0.10826126E-01 0.13324522E+03</pdfrwt>
<totfact> 0.93483135E+03</totfact>
</mgrwt>
</event>
<event>
 7    1  0.1330601E-005  0.1430183E+03  0.7546771E-02  0.1219082E+00
         -1   -1    0    0    0  501 -0.00000000000E+00  0.00000000000E+00  0.44111241754E+02  0.44111241754E+02  0.00000000000E+00 0.  1.
          1   -1    0    0  501    0  0.00000000000E+00 -0.00000000000E+00 -0.43105112825E+03  0.43105112825E+03  0.00000000000E+00 0. -1.
         23    2    1    2    0    0  0.71501183518E+01  0.69065060210E+02 -0.25634690918E+03  0.28149060310E+03  0.93285127720E+02 0.  0.
          5    1    1    2  502    0  0.48853919151E+02 -0.11916398834E+02 -0.91454380841E+02  0.10447344042E+03  0.47000000000E+01 0. -1.
         -5    1    1    2    0  502 -0.56004037503E+02 -0.57148661376E+02 -0.39138596473E+02  0.89198326484E+02  0.47000000000E+01 0. -1.
        -11    1    3    3    0    0 -0.31349761937E+02  0.52801152839E+02 -0.21129848143E+03  0.22004049075E+03  0.00000000000E+00 0. -1.
         11    1    3    3    0    0  0.38499880289E+02  0.16263907371E+02 -0.45048427748E+02  0.61450112350E+02  0.00000000000E+00 0.  1.
<mgrwt>
<rscale>  0 0.13580904E+03</rscale>
<asrwt>0</asrwt>
<pdfrwt beam="2">  1        1 0.66315562E-01 0.14301828E+03</pdfrwt>
<pdfrwt beam="1">  1       -1 0.67863445E-02 0.14301828E+03</pdfrwt>
<totfact> 0.58603130E+03</totfact>
</mgrwt>
</event>
<event>
 7    1  0.1330601E-005  0.1262261E+03  0.7546771E-02  0.1248122E+00
          1   -1    0    0  501    0  0.00000000000E+00  0.00000000000E+00  0.40084298956E+03  0.40084298956E+03  0.00000000000E+00 0. -1.
         -1   -1    0    0    0  501 -0.00000000000E+00 -0.00000000000E+00 -0.31384193720E+02  0.31384193720E+02  0.00000000000E+00 0.  1.
         23    2    1    2    0    0  0.10156027777E+02 -0.14225254645E+02  0.20258245572E+03  0.22298872707E+03  0.91535885136E+02 0.  0.
          5    1    1    2  502    0  0.14744986477E+02  0.20009272631E+02 -0.12341299901E+02  0.28145751023E+02  0.47000000000E+01 0. -1.
         -5    1    1    2    0  502 -0.24901014254E+02 -0.57840179860E+01  0.17921764002E+03  0.18109270518E+03  0.47000000000E+01 0. -1.
        -11    1    3    3    0    0 -0.11827977300E+02  0.19480082706E+02  0.77919908216E+01  0.24085053253E+02  0.00000000000E+00 0.  1.
         11    1    3    3    0    0  0.21984005077E+02 -0.33705337351E+02  0.19479046490E+03  0.19890367382E+03  0.00000000000E+00 0. -1.
<mgrwt>
<rscale>  0 0.11700482E+03</rscale>
<asrwt>0</asrwt>
<pdfrwt beam="1">  1        1 0.61668149E-01 0.12622606E+03</pdfrwt>
<pdfrwt beam="2">  1       -1 0.48283378E-02 0.12622606E+03</pdfrwt>
<totfact> 0.10569426E+04</totfact>
</mgrwt>
</event>
<event>
 7    1  0.1330601E-005  0.1786191E+03  0.7546771E-02  0.1174951E+00
          2   -1    0    0  501    0  0.00000000000E+00  0.00000000000E+00  0.39584364481E+03  0.39584364481E+03  0.00000000000E+00 0. -1.
         -2   -1    0    0    0  501 -0.00000000000E+00 -0.00000000000E+00 -0.80327003151E+02  0.80327003151E+02  0.00000000000E+00 0.  1.
         23    2    1    2    0    0  0.68149660050E+02  0.10786586741E+03  0.22987385518E+03  0.27808111374E+03  0.90596330002E+02 0.  0.
          5    1    1    2  502    0  0.49576108330E+01 -0.10013117472E+03  0.26999671269E+02  0.10393220052E+03  0.47000000000E+01 0. -1.
         -5    1    1    2    0  502 -0.73107270883E+02 -0.77346926818E+01  0.58643115212E+02  0.94157333695E+02  0.47000000000E+01 0. -1.
        -11    1    3    3    0    0  0.45833428359E+02  0.35713359215E+00  0.81403974018E+02  0.93420756181E+02  0.00000000000E+00 0. -1.
         11    1    3    3    0    0  0.22316231691E+02  0.10750873381E+03  0.14846988116E+03  0.18466035756E+03  0.00000000000E+00 0.  1.
<mgrwt>
<rscale>  0 0.17280770E+03</rscale>
<asrwt>0</asrwt>
<pdfrwt beam="1">  1        2 0.60899021E-01 0.17861908E+03</pdfrwt>
<pdfrwt beam="2">  1       -2 0.12358001E-01 0.17861908E+03</pdfrwt>
<totfact> 0.37261477E+03</totfact>
</mgrwt>
</event>
<event>
 7    1  0.1330601E-005  0.1412911E+03  0.7546771E-02  0.1222608E+00
         -2   -1    0    0    0  501 -0.00000000000E+00  0.00000000000E+00  0.64665311795E+03  0.64665311795E+03  0.00000000000E+00 0.  1.
          2   -1    0    0  501    0  0.00000000000E+00 -0.00000000000E+00 -0.24825111932E+02  0.24825111932E+02  0.00000000000E+00 0. -1.
         23    2    1    2    0    0  0.65139453601E+02 -0.97419138989E+01  0.28432462821E+03  0.30559342018E+03  0.90602378257E+02 0.  0.
          5    1    1    2  502    0  0.22508764494E+02  0.28745551587E+02  0.18727977356E+03  0.19086318346E+03  0.47000000000E+01 0.  1.
         -5    1    1    2    0  502 -0.87648218096E+02 -0.19003637689E+02  0.15022360424E+03  0.17502162624E+03  0.47000000000E+01 0.  1.
        -11    1    3    3    0    0  0.75574851456E+01  0.91319095479E+01 -0.27704994886E+01  0.12173044859E+02  0.00000000000E+00 0. -1.
         11    1    3    3    0    0  0.57581968456E+02 -0.18873823447E+02  0.28709512770E+03  0.29342037532E+03  0.00000000000E+00 0.  1.
<mgrwt>
<rscale>  0 0.13332231E+03</rscale>
<asrwt>0</asrwt>
<pdfrwt beam="2">  1        2 0.38192485E-02 0.14129106E+03</pdfrwt>
<pdfrwt beam="1">  1       -2 0.99485083E-01 0.14129106E+03</pdfrwt>
<totfact> 0.18859454E+03</totfact>
</mgrwt>
</event>
<event>
 7    1  0.1330601E-005  0.1173138E+03  0.7546771E-02  0.1256639E+00
          4   -1    0    0  501    0  0.00000000000E+00  0.00000000000E+00  0.63422561209E+02  0.63422561209E+02  0.00000000000E+00 0. -1.
         -4   -1    0    0    0  501 -0.00000000000E+00 -0.00000000000E+00 -0.20040792579E+03  0.20040792579E+03  0.00000000000E+00 0.  1.
         23    2    1    2    0    0  0.12913518278E+02 -0.36941010733E+02 -0.23832715994E+02  0.10083952456E+03  0.89828804589E+02 0.  0.
          5    1    1    2  502    0 -0.92680203356E+01  0.57434251315E+02 -0.11968588558E+02  0.59581259950E+02  0.47000000000E+01 0. -1.
         -5    1    1    2    0  502 -0.36454979425E+01 -0.20493240582E+02 -0.10118406003E+03  0.10340970249E+03  0.47000000000E+01 0.  1.
        -11    1    3    3    0    0  0.51187113267E+01 -0.44140945607E+02 -0.53373710783E+02  0.69450538424E+02  0.00000000000E+00 0.  1.
         11    1    3    3    0    0  0.77948069514E+01  0.71999348738E+01  0.29540994789E+02  0.31388986137E+02  0.00000000000E+00 0. -1.
<mgrwt>
<rscale>  0 0.11214999E+03</rscale>
<asrwt>0</asrwt>
<pdfrwt beam="1">  1        4 0.97573174E-02 0.11731382E+03</pdfrwt>
<pdfrwt beam="2">  1       -4 0.30831988E-01 0.11731382E+03</pdfrwt>
<totfact> 0.12738415E+03</totfact>
</mgrwt>
</event>
<event>
 7    1  0.1330601E-005  0.1335879E+03  0.7546771E-02  0.1236185E+00
         -3   -1    0    0    0  501 -0.00000000000E+00  0.00000000000E+00  0.23679087153E+03  0.23679087153E+03  0.00000000000E+00 0.  1.
          3   -1    0    0  501    0  0.00000000000E+00 -0.00000000000E+00 -0.61637597564E+02  0.61637597564E+02  0.00000000000E+00 0. -1.
         23    2    1    2    0    0 -0.33210826807E+02  0.33437748008E+02  0.38277155719E+02  0.10716739124E+03  0.88310062203E+02 0.  0.
          5    1    1    2  502    0  0.18235258308E+02 -0.38816742659E+02 -0.93099160884E+01  0.44136478040E+02  0.47000000000E+01 0. -1.
         -5    1    1    2    0  502  0.14975568499E+02  0.53789946503E+01  0.14618603434E+03  0.14712459982E+03  0.47000000000E+01 0. -1.
        -11    1    3    3    0    0 -0.48548505596E+02  0.16681802162E+02  0.57735553699E+02  0.77256935481E+02  0.00000000000E+00 0.  1.
         11    1    3    3    0    0  0.15337678789E+02  0.16755945846E+02 -0.19458397980E+02  0.29910455760E+02  0.00000000000E+00 0. -1.
<mgrwt>
<rscale>  0 0.12428887E+03</rscale>
<asrwt>0</asrwt>
<pdfrwt beam="2">  1        3 0.94827074E-02 0.13358790E+03</pdfrwt>
<pdfrwt beam="1">  1       -3 0.36429365E-01 0.13358790E+03</pdfrwt>
<totfact> 0.13751096E+03</totfact>
</mgrwt>
</event>
<event>
 7    1  0.1330601E-005  0.1419834E+03  0.7546771E-02  0.1225079E+00
         -1   -1    0    0    0  501 -0.00000000000E+00  0.00000000000E+00  0.33141838355E+02  0.33141838355E+02  0.00000000000E+00 0.  1.
          1   -1    0    0  501    0  0.00000000000E+00 -0.00000000000E+00 -0.56857829452E+03  0.56857829452E+03  0.00000000000E+00 0. -1.
         23    2    1    2    0    0 -0.65065297689E+02  0.17332549717E+02 -0.36569563412E+03  0.38042567200E+03  0.80352254858E+02 0.  0.
          5    1    1    2  502    0  0.35172682954E+02 -0.57985044255E+02 -0.15382248773E+03  0.16817500026E+03  0.47000000000E+01 0. -1.
         -5    1    1    2    0  502  0.29892614734E+02  0.40652494538E+02 -0.15918334318E+02  0.53119460608E+02  0.47000000000E+01 0. -1.
        -11    1    3    3    0    0 -0.50204630606E+01  0.38545261907E+02 -0.17887064359E+03  0.18304548452E+03  0.00000000000E+00 0. -1.
         11    1    3    3    0    0 -0.60044834628E+02 -0.21212712190E+02 -0.18682499053E+03  0.19738018748E+03  0.00000000000E+00 0.  1.
<mgrwt>
<rscale>  0 0.13161485E+03</rscale>
<asrwt>0</asrwt>
<pdfrwt beam="2">  1        1 0.87473574E-01 0.14198342E+03</pdfrwt>
<pdfrwt beam="1">  1       -1 0.50987449E-02 0.14198342E+03</pdfrwt>
<totfact> 0.62486326E+03</totfact>
</mgrwt>
</event>
<event>
 7    1  0.1330601E-005  0.1448321E+03  0.7546771E-02  0.1217993E+00
         -2   -1    0    0    0  501 -0.00000000000E+00  0.00000000000E+00  0.11836868907E+03  0.11836868907E+03  0.00000000000E+00 0.  1.
          2   -1    0    0  501    0  0.00000000000E+00 -0.00000000000E+00 -0.14795237309E+03  0.14795237309E+03  0.00000000000E+00 0. -1.
         23    2    1    2    0    0  0.39443926550E+01  0.73052584732E+02 -0.39402364502E+02  0.12115649003E+03  0.88170915720E+02 0.  0.
          5    1    1    2  502    0 -0.18541469854E+02  0.11468020954E+02  0.46645351833E+02  0.51702808982E+02  0.47000000000E+01 0. -1.
         -5    1    1    2    0  502  0.14597077199E+02 -0.84520605685E+02 -0.36826671356E+02  0.93461763152E+02  0.47000000000E+01 0. -1.
        -11    1    3    3    0    0  0.11692889173E+02  0.28192862065E+02 -0.62908744585E+02  0.69921894096E+02  0.00000000000E+00 0. -1.
         11    1    3    3    0    0 -0.77484965182E+01  0.44859722667E+02  0.23506380084E+02  0.51234595935E+02  0.00000000000E+00 0.  1.
<mgrwt>
<rscale>  0 0.13658930E+03</rscale>
<asrwt>0</asrwt>
<pdfrwt beam="2">  1        2 0.22761903E-01 0.14483213E+03</pdfrwt>
<pdfrwt beam="1">  1       -2 0.18210568E-01 0.14483213E+03</pdfrwt>
<totfact> 0.56492841E+03</totfact>
</mgrwt>
</event>
<event>
 7    1  0.1330601E-005  0.1429436E+03  0.7546771E-02  0.1220368E+00
          2   -1    0    0  501    0  0.00000000000E+00  0.00000000000E+00  0.49743803546E+03  0.49743803546E+03  0.00000000000E+00 0. -1.
         -2   -1    0    0    0  501 -0.00000000000E+00 -0.00000000000E+00 -0.34618089721E+02  0.34618089721E+02  0.00000000000E+00 0.  1.
         23    2    1    2    0    0  0.67287597912E+02 -0.16794062685E+02  0.26278995448E+03  0.28620076377E+03  0.89680854325E+02 0.  0.
          5    1    1    2  502    0 -0.33498319439E+02  0.68334878600E+02  0.78069757088E+02  0.10912731102E+03  0.47000000000E+01 0.  1.
         -5    1    1    2    0  502 -0.33789278473E+02 -0.51540815914E+02  0.12196023417E+03  0.13672805039E+03  0.47000000000E+01 0.  1.
        -11    1    3    3    0    0  0.71968914901E+01  0.33519039004E+02  0.65860347546E+02  0.74248950172E+02  0.00000000000E+00 0.  1.
         11    1    3    3    0    0  0.60090706422E+02 -0.50313101689E+02  0.19692960694E+03  0.21195181360E+03  0.00000000000E+00 0. -1.
<mgrwt>
<rscale>  0 0.13489508E+03</rscale>
<asrwt>0</asrwt>
<pdfrwt beam="1">  1        2 0.76528924E-01 0.14294356E+03</pdfrwt>
<pdfrwt beam="2">  1       -2 0.53258603E-02 0.14294356E+03</pdfrwt>
<totfact> 0.10625882E+04</totfact>
</mgrwt>
</event>
<event>
 6    1  0.1330601E-005  0.4335720E+03  0.7546771E-02  0.1032850E+00
         -2   -1    0    0    0  501 -0.00000000000E+00  0.00000000000E+00  0.21828457366E+03  0.21828457366E+03  0.00000000000E+00 0.  1.
          2   -1    0    0  501    0  0.00000000000E+00 -0.00000000000E+00 -0.91376782605E+03  0.91376782605E+03  0.00000000000E+00 0. -1.
          5    1    1    2  502    0 -0.28680701308E+03 -0.60928129315E+02 -0.17231044497E+03  0.34012274128E+03  0.47000000000E+01 0. -1.
         -5    1    1    2    0  502 -0.96935381423E+02 -0.93526178155E+02 -0.35475962532E+02  0.13937090116E+03  0.47000000000E+01 0. -1.
        -11    1    1    2    0    0  0.18443581529E+03  0.54945119453E+01 -0.21827740432E+03  0.28581774763E+03  0.00000000000E+00 0. -1.
         11    1    1    2    0    0  0.19930657922E+03  0.14895979552E+03 -0.26941944056E+03  0.36674100964E+03  0.00000000000E+00 0.  1.
<mgrwt>
<rscale>  0 0.43321185E+03</rscale>
<asrwt>0</asrwt>
<pdfrwt beam="2">  1        2 0.14057967E+00 0.43357205E+03</pdfrwt>
<pdfrwt beam="1">  1       -2 0.33582242E-01 0.43357205E+03</pdfrwt>
<totfact> 0.24507064E+02</totfact>
</mgrwt>
</event>
<event>
 7    1  0.1330601E-005  0.1470931E+03  0.7546771E-02  0.1214549E+00
          1   -1    0    0  501    0  0.00000000000E+00  0.00000000000E+00  0.11816163658E+03  0.11816163658E+03  0.00000000000E+00 0. -1.
         -1   -1    0    0    0  501 -0.00000000000E+00 -0.00000000000E+00 -0.14826012818E+03  0.14826012818E+03  0.00000000000E+00 0.  1.
         23    2    1    2    0    0 -0.75908654968E+02  0.15843378913E+02 -0.13348182390E+02  0.11837804182E+03  0.88442355561E+02 0.  0.
          5    1    1    2  502    0  0.10840547197E+03 -0.20677102050E+02 -0.26222376071E+02  0.11352969615E+03  0.47000000000E+01 0. -1.
         -5    1    1    2    0  502 -0.32496817001E+02  0.48337231374E+01  0.94720668615E+01  0.34514026789E+02  0.47000000000E+01 0. -1.
        -11    1    3    3    0    0 -0.55857689260E+02 -0.17759685427E+02  0.24878528337E+02  0.63674398687E+02  0.00000000000E+00 0. -1.
         11    1    3    3    0    0 -0.20050965709E+02  0.33603064340E+02 -0.38226710727E+02  0.54703643132E+02  0.00000000000E+00 0.  1.
<mgrwt>
<rscale>  0 0.13909685E+03</rscale>
<asrwt>0</asrwt>
<pdfrwt beam="1">  1        1 0.18178713E-01 0.14709307E+03</pdfrwt>
<pdfrwt beam="2">  1       -1 0.22809250E-01 0.14709307E+03</pdfrwt>
<totfact> 0.45138863E+03</totfact>
</mgrwt>
</event>
<event>
 7    1  0.1330601E-005  0.1340772E+03  0.7546771E-02  0.1234537E+00
         -1   -1    0    0    0  501 -0.00000000000E+00  0.00000000000E+00  0.34881445231E+02  0.34881445231E+02  0.00000000000E+00 0.  1.
          1   -1    0    0  501    0  0.00000000000E+00 -0.00000000000E+00 -0.48537570025E+03  0.48537570025E+03  0.00000000000E+00 0. -1.
         23    2    1    2    0    0 -0.47962473167E+02  0.71829068330E+01 -0.30810871833E+03  0.32468022145E+03  0.90190192968E+02 0.  0.
          5    1    1    2  502    0  0.10881714684E+01  0.55338327245E+02 -0.53305871410E+02  0.76987794527E+02  0.47000000000E+01 0. -1.
         -5    1    1    2    0  502  0.46874301698E+02 -0.62521234078E+02 -0.89079665280E+02  0.11858912950E+03  0.47000000000E+01 0. -1.
        -11    1    3    3    0    0  0.13110577157E+02 -0.28206606737E+02 -0.77437490931E+02  0.83450973024E+02  0.00000000000E+00 0.  1.
         11    1    3    3    0    0 -0.61073050324E+02  0.35389513571E+02 -0.23067122740E+03  0.24122924843E+03  0.00000000000E+00 0. -1.
<mgrwt>
<rscale>  0 0.12534118E+03</rscale>
<asrwt>0</asrwt>
<pdfrwt beam="2">  1        1 0.74673181E-01 0.13407719E+03</pdfrwt>
<pdfrwt beam="1">  1       -1 0.53663764E-02 0.13407719E+03</pdfrwt>
<totfact> 0.71127612E+03</totfact>
</mgrwt>
</event>
<event>
 7    1  0.1330601E-005  0.2134671E+03  0.7546771E-02  0.1142613E+00
          1   -1    0    0  501    0  0.00000000000E+00  0.00000000000E+00  0.52586343828E+02  0.52586343828E+02  0.00000000000E+00 0. -1.
         -1   -1    0    0    0  501 -0.00000000000E+00 -0.00000000000E+00 -0.79331828598E+03  0.79331828598E+03  0.00000000000E+00 0.  1.
         23    2    1    2    0    0  0.27478903692E+02  0.17084674732E+03 -0.34603964225E+03  0.39718399205E+03  0.89821981248E+02 0.  0.
          5    1    1    2  502    0 -0.27710316140E+02 -0.10974768295E+03 -0.11143191658E+03  0.15890744969E+03  0.47000000000E+01 0. -1.
         -5    1    1    2    0  502  0.23141244837E+00 -0.61099064369E+02 -0.28326038332E+03  0.28981318807E+03  0.47000000000E+01 0. -1.
        -11    1    3    3    0    0  0.40017089478E+01  0.14631015359E+03 -0.20358732028E+03  0.25073984864E+03  0.00000000000E+00 0. -1.
         11    1    3    3    0    0  0.23477194744E+02  0.24536593734E+02 -0.14245232197E+03  0.14644414341E+03  0.00000000000E+00 0.  1.
<mgrwt>
<rscale>  0 0.20868337E+03</rscale>
<asrwt>0</asrwt>
<pdfrwt beam="1">  1        1 0.80902067E-02 0.21346709E+03</pdfrwt>
<pdfrwt beam="2">  1       -1 0.12204897E+00 0.21346709E+03</pdfrwt>
<totfact> 0.54327812E+02</totfact>
</mgrwt>
</event>
<event>
 7    1  0.1330601E-005  0.1431635E+03  0.7546771E-02  0.1219249E+00
         -2   -1    0    0    0  501 -0.00000000000E+00  0.00000000000E+00  0.52661729114E+02  0.52661729114E+02  0.00000000000E+00 0.  1.
          2   -1    0    0  501    0  0.00000000000E+00 -0.00000000000E+00 -0.33139526834E+03  0.33139526834E+03  0.00000000000E+00 0. -1.
         23    2    1    2    0    0  0.27527700600E+01 -0.69728810209E+02 -0.16391778590E+03  0.20054010734E+03  0.92073934431E+02 0.  0.
          5    1    1    2  502    0  0.45441293850E+02  0.36396892265E+02 -0.45840031618E+01  0.58589658117E+02  0.47000000000E+01 0.  1.
         -5    1    1    2    0  502 -0.48194063910E+02  0.33331917944E+02 -0.11023175016E+03  0.12492723199E+03  0.47000000000E+01 0.  1.
        -11    1    3    3    0    0  0.44041572832E+02 -0.50288965239E+02 -0.74124754145E+02  0.99815426360E+02  0.00000000000E+00 0.  1.
         11    1    3    3    0    0 -0.41288802772E+02 -0.19439844969E+02 -0.89793031760E+02  0.10072468098E+03  0.00000000000E+00 0. -1.
<mgrwt>
<rscale>  0 0.13569018E+03</rscale>
<asrwt>0</asrwt>
<pdfrwt beam="2">  1        2 0.50983886E-01 0.14316351E+03</pdfrwt>
<pdfrwt beam="1">  1       -2 0.81018047E-02 0.14316351E+03</pdfrwt>
<totfact> 0.86675422E+03</totfact>
</mgrwt>
</event>
<event>
 7    1  0.1330601E-005  0.1325664E+03  0.7546771E-02  0.1233118E+00
          4   -1    0    0  501    0  0.00000000000E+00  0.00000000000E+00  0.21995910231E+03  0.21995910231E+03  0.00000000000E+00 0. -1.
         -4   -1    0    0    0  501 -0.00000000000E+00 -0.00000000000E+00 -0.66382535853E+02  0.66382535853E+02  0.00000000000E+00 0.  1.
         23    2    1    2    0    0 -0.17230111753E+02 -0.40880918765E+02  0.66943310378E+02  0.12797759525E+03  0.99643021889E+02 0.  0.
          5    1    1    2  502    0 -0.26872315094E+02 -0.16063601167E+02  0.79814388768E+02  0.85863771495E+02  0.47000000000E+01 0.  1.
         -5    1    1    2    0  502  0.44102426847E+02  0.56944519932E+02  0.68188673086E+01  0.72500271416E+02  0.47000000000E+01 0.  1.
        -11    1    3    3    0    0  0.73050552491E+01  0.19705191504E+02 -0.13001123317E+02  0.24712094446E+02  0.00000000000E+00 0.  1.
         11    1    3    3    0    0 -0.24535167002E+02 -0.60586110269E+02  0.79944433695E+02  0.10326550080E+03  0.00000000000E+00 0. -1.
<mgrwt>
<rscale>  0 0.12625661E+03</rscale>
<asrwt>0</asrwt>
<pdfrwt beam="1">  1        4 0.33839862E-01 0.13256639E+03</pdfrwt>
<pdfrwt beam="2">  1       -4 0.10212698E-01 0.13256639E+03</pdfrwt>
<totfact> 0.10151338E+03</totfact>
</mgrwt>
</event>
<event>
 7    1  0.1330601E-005  0.1251634E+03  0.7546771E-02  0.1249665E+00
          1   -1    0    0  501    0  0.00000000000E+00  0.00000000000E+00  0.39872469477E+03  0.39872469477E+03  0.00000000000E+00 0.  1.
         -1   -1    0    0    0  501 -0.00000000000E+00 -0.00000000000E+00 -0.31421607706E+02  0.31421607706E+02  0.00000000000E+00 0. -1.
         23    2    1    2    0    0  0.54122910506E+01  0.27188333417E+01  0.20674374879E+03  0.22656543640E+03  0.92478291290E+02 0.  0.
          5    1    1    2  502    0 -0.19761898556E+02  0.57759270585E+02  0.95809965772E+02  0.11370270671E+03  0.47000000000E+01 0. -1.
         -5    1    1    2    0  502  0.14349607505E+02 -0.60478103926E+02  0.64749372502E+02  0.89878159357E+02  0.47000000000E+01 0. -1.
        -11    1    3    3    0    0  0.20146672607E+02  0.34824520653E+02  0.42328460899E+02  0.58398067245E+02  0.00000000000E+00 0. -1.
         11    1    3    3    0    0 -0.14734381556E+02 -0.32105687312E+02  0.16441528789E+03  0.16816736916E+03  0.00000000000E+00 0.  1.
<mgrwt>
<rscale>  0 0.11610482E+03</rscale>
<asrwt>0</asrwt>
<pdfrwt beam="1">  1        1 0.61342257E-01 0.12516336E+03</pdfrwt>
<pdfrwt beam="2">  1       -1 0.48340938E-02 0.12516336E+03</pdfrwt>
<totfact> 0.10614487E+04</totfact>
</mgrwt>
</event>
<event>
 7    1  0.1330601E-005  0.1762608E+03  0.7546771E-02  0.1176835E+00
          2   -1    0    0  501    0  0.00000000000E+00  0.00000000000E+00  0.11151307804E+03  0.11151307804E+03  0.00000000000E+00 0. -1.
         -2   -1    0    0    0  501 -0.00000000000E+00 -0.00000000000E+00 -0.72320555608E+03  0.72320555608E+03  0.00000000000E+00 0.  1.
         23    2    1    2    0    0  0.11132375666E+03 -0.55236129148E+02  0.38773290039E+02  0.16079462323E+03  0.94379733418E+02 0.  0.
          5    1    1    2  502    0 -0.18676199195E+01 -0.84322840437E+01 -0.31765096303E+03  0.31780310844E+03  0.47000000000E+01 0. -1.
         -5    1    1    2    0  502 -0.10945613674E+03  0.63668413191E+02 -0.33281480505E+03  0.35612090246E+03  0.47000000000E+01 0. -1.
        -11    1    3    3    0    0  0.86022590309E+02 -0.40035106325E+01 -0.86363918699E+01  0.86547682842E+02  0.00000000000E+00 0.  1.
         11    1    3    3    0    0  0.25301166351E+02 -0.51232618515E+02  0.47409681909E+02  0.74246940391E+02  0.00000000000E+00 0. -1.
<mgrwt>
<rscale>  0 0.17097497E+03</rscale>
<asrwt>0</asrwt>
<pdfrwt beam="1">  1        2 0.17155858E-01 0.17626076E+03</pdfrwt>
<pdfrwt beam="2">  1       -2 0.11126239E+00 0.17626076E+03</pdfrwt>
<totfact> 0.22216058E+02</totfact>
</mgrwt>
</event>
<event>
 7    1  0.1330601E-005  0.1261290E+03  0.7546771E-02  0.1248091E+00
          3   -1    0    0  501    0  0.00000000000E+00  0.00000000000E+00  0.61634206653E+02  0.61634206653E+02  0.00000000000E+00 0. -1.
         -3   -1    0    0    0  501 -0.00000000000E+00 -0.00000000000E+00 -0.19569269979E+03  0.19569269979E+03  0.00000000000E+00 0.  1.
         23    2    1    2    0    0  0.64609110188E+01 -0.15567073447E+02 -0.54153252330E+02  0.10801727307E+03  0.91929752516E+02 0.  0.
          5    1    1    2  502    0  0.63933055178E+01  0.10876497171E+02  0.32916793686E+02  0.35563715395E+02  0.47000000000E+01 0. -1.
         -5    1    1    2    0  502 -0.12854216537E+02  0.46905762762E+01 -0.11282203450E+03  0.11374591798E+03  0.47000000000E+01 0. -1.
        -11    1    3    3    0    0 -0.34729882589E+02  0.53550856803E+01 -0.50701685110E+02  0.61688755541E+02  0.00000000000E+00 0.  1.
         11    1    3    3    0    0  0.41190793607E+02 -0.20922159127E+02 -0.34515672204E+01  0.46328517533E+02  0.00000000000E+00 0. -1.
<mgrwt>
<rscale>  0 0.11702267E+03</rscale>
<asrwt>0</asrwt>
<pdfrwt beam="1">  1        3 0.94821858E-02 0.12612898E+03</pdfrwt>
<pdfrwt beam="2">  1       -3 0.30106569E-01 0.12612898E+03</pdfrwt>
<totfact> 0.19456854E+03</totfact>
</mgrwt>
</event>
<event>
 7    1  0.1330601E-005  0.1351965E+03  0.7546771E-02  0.1232214E+00
          4   -1    0    0  501    0  0.00000000000E+00  0.00000000000E+00  0.39972280036E+02  0.39972280036E+02  0.00000000000E+00 0. -1.
         -4   -1    0    0    0  501 -0.00000000000E+00 -0.00000000000E+00 -0.49977004023E+03  0.49977004023E+03  0.00000000000E+00 0.  1.
         23    2    1    2    0    0  0.51458603007E+02 -0.23044938797E+01 -0.67056606393E+02  0.12438259593E+03  0.91220300337E+02 0.  0.
          5    1    1    2  502    0 -0.79008251131E+02  0.39633715786E+02 -0.26242888655E+03  0.27695513295E+03  0.47000000000E+01 0.  1.
         -5    1    1    2    0  502  0.27549648124E+02 -0.37329221906E+02 -0.13031226725E+03  0.13840459139E+03  0.47000000000E+01 0.  1.
        -11    1    3    3    0    0  0.25849259447E+02  0.39339745893E+02 -0.80518690826E+01  0.47755967340E+02  0.00000000000E+00 0. -1.
         11    1    3    3    0    0  0.25609343560E+02 -0.41644239772E+02 -0.59004737310E+02  0.76626628589E+02  0.00000000000E+00 0.  1.
<mgrwt>
<rscale>  0 0.12684456E+03</rscale>
<asrwt>0</asrwt>
<pdfrwt beam="1">  1        4 0.61495817E-02 0.13519647E+03</pdfrwt>
<pdfrwt beam="2">  1       -4 0.76887696E-01 0.13519647E+03</pdfrwt>
<totfact> 0.43963788E+02</totfact>
</mgrwt>
</event>
<event>
 7    1  0.1330601E-005  0.4105752E+03  0.7546771E-02  0.1040960E+00
          1   -1    0    0  501    0  0.00000000000E+00  0.00000000000E+00  0.70742944689E+03  0.70742944689E+03  0.00000000000E+00 0. -1.
         -1   -1    0    0    0  501 -0.00000000000E+00 -0.00000000000E+00 -0.23753997125E+03  0.23753997125E+03  0.00000000000E+00 0.  1.
         23    2    1    2    0    0 -0.34845159195E+03 -0.17756329677E+03  0.29789712845E+03  0.49982520366E+03  0.90195891152E+02 0.  0.
          5    1    1    2  502    0  0.34405141733E+03  0.19005256933E+03  0.17577484926E+03  0.43059289881E+03  0.47000000000E+01 0.  1.
         -5    1    1    2    0  502  0.44001746186E+01 -0.12489272560E+02 -0.37825020766E+01  0.14551315670E+02  0.47000000000E+01 0.  1.
        -11    1    3    3    0    0 -0.67117908643E+02 -0.10510157529E+02  0.20763467535E+02  0.71038008530E+02  0.00000000000E+00 0.  1.
         11    1    3    3    0    0 -0.28133368331E+03 -0.16705313924E+03  0.27713366092E+03  0.42878719513E+03  0.00000000000E+00 0. -1.
<mgrwt>
<rscale>  0 0.40824944E+03</rscale>
<asrwt>0</asrwt>
<pdfrwt beam="1">  1        1 0.10883530E+00 0.41057521E+03</pdfrwt>
<pdfrwt beam="2">  1       -1 0.36544611E-01 0.41057521E+03</pdfrwt>
<totfact> 0.19994054E+02</totfact>
</mgrwt>
</event>
<event>
 7    1  0.1330601E-005  0.1316765E+03  0.7546771E-02  0.1233680E+00
         -2   -1    0    0    0  501 -0.00000000000E+00  0.00000000000E+00  0.12701775774E+03  0.12701775774E+03  0.00000000000E+00 0.  1.
          2   -1    0    0  501    0  0.00000000000E+00 -0.00000000000E+00 -0.13872508067E+03  0.13872508067E+03  0.00000000000E+00 0. -1.
         23    2    1    2    0    0 -0.16840386231E+02 -0.37841429699E+02 -0.60206179698E+02  0.12541882825E+03  0.10192902430E+03 0.  0.
          5    1    1    2  502    0 -0.51042638932E+02  0.37520154032E+02  0.26242228809E+02  0.68730324607E+02  0.47000000000E+01 0. -1.
         -5    1    1    2    0  502  0.67883025163E+02  0.32127566692E+00  0.22256627955E+02  0.71593685554E+02  0.47000000000E+01 0. -1.
        -11    1    3    3    0    0 -0.14803798007E+02 -0.27707658548E+02 -0.89235808207E+02  0.94603891273E+02  0.00000000000E+00 0. -1.
         11    1    3    3    0    0 -0.20365882232E+01 -0.10133771151E+02  0.29029628509E+02  0.30814936974E+02  0.00000000000E+00 0.  1.
<mgrwt>
<rscale>  0 0.12589316E+03</rscale>
<asrwt>0</asrwt>
<pdfrwt beam="2">  1        2 0.21342320E-01 0.13167645E+03</pdfrwt>
<pdfrwt beam="1">  1       -2 0.19541194E-01 0.13167645E+03</pdfrwt>
<totfact> 0.53599691E+03</totfact>
</mgrwt>
</event>
<event>
 7    1  0.1330601E-005  0.1115010E+03  0.7546771E-02  0.1276430E+00
          2   -1    0    0  501    0  0.00000000000E+00  0.00000000000E+00  0.13372236385E+03  0.13372236385E+03  0.00000000000E+00 0. -1.
         -2   -1    0    0    0  501 -0.00000000000E+00 -0.00000000000E+00 -0.87325821505E+02  0.87325821505E+02  0.00000000000E+00 0.  1.
         23    2    1    2    0    0  0.58565602616E+00  0.51955885136E+01  0.72818347285E+02  0.10645938465E+03  0.77483880559E+02 0.  0.
          5    1    1    2  502    0  0.39408665791E+02 -0.27801145056E+02  0.16850345356E+02  0.51302736228E+02  0.47000000000E+01 0. -1.
         -5    1    1    2    0  502 -0.39994321817E+02  0.22605556542E+02 -0.43272150301E+02  0.63286064468E+02  0.47000000000E+01 0.  1.
        -11    1    3    3    0    0  0.22954860173E+02  0.25865283042E+02  0.67075844494E+02  0.75465935276E+02  0.00000000000E+00 0. -1.
         11    1    3    3    0    0 -0.22369204147E+02 -0.20669694528E+02  0.57425027909E+01  0.30993449378E+02  0.00000000000E+00 0.  1.
<mgrwt>
<rscale>  0 0.10186117E+03</rscale>
<asrwt>0</asrwt>
<pdfrwt beam="1">  1        2 0.20572671E-01 0.11150104E+03</pdfrwt>
<pdfrwt beam="2">  1       -2 0.13434742E-01 0.11150104E+03</pdfrwt>
<totfact> 0.10212589E+04</totfact>
</mgrwt>
</event>
<event>
 7    1  0.1330601E-005  0.2672220E+03  0.7546771E-02  0.1105011E+00
          2   -1    0    0  501    0  0.00000000000E+00  0.00000000000E+00  0.16773499085E+04  0.16773499085E+04  0.00000000000E+00 0. -1.
         -2   -1    0    0    0  501 -0.00000000000E+00 -0.00000000000E+00 -0.56116052213E+02  0.56116052213E+02  0.00000000000E+00 0.  1.
         23    2    1    2    0    0 -0.22997119275E+03 -0.53813468824E+02  0.12542404812E+04  0.12794926859E+04  0.90552248249E+02 0.  0.
          5    1    1    2  502    0  0.94510997430E+02  0.34211994183E+02  0.58366594719E+02  0.11632514157E+03  0.47000000000E+01 0. -1.
         -5    1    1    2    0  502  0.13546019532E+03  0.19601474641E+02  0.30862678033E+03  0.33764813321E+03  0.47000000000E+01 0. -1.
        -11    1    3    3    0    0 -0.20097223309E+03 -0.25297757057E+02  0.11480088948E+04  0.11657419257E+04  0.00000000000E+00 0.  1.
         11    1    3    3    0    0 -0.28998959659E+02 -0.28515711766E+02  0.10623158649E+03  0.11375076020E+03  0.00000000000E+00 0. -1.
<mgrwt>
<rscale>  0 0.26357953E+03</rscale>
<asrwt>0</asrwt>
<pdfrwt beam="1">  1        2 0.25805379E+00 0.26722200E+03</pdfrwt>
<pdfrwt beam="2">  1       -2 0.86332401E-02 0.26722200E+03</pdfrwt>
<totfact> 0.92231177E+02</totfact>
</mgrwt>
</event>
<event>
 7    1  0.1330601E-005  0.1366168E+03  0.7546771E-02  0.1230532E+00
          2   -1    0    0  501    0  0.00000000000E+00  0.00000000000E+00  0.70856309906E+02  0.70856309906E+02  0.00000000000E+00 0. -1.
         -2   -1    0    0    0  501 -0.00000000000E+00 -0.00000000000E+00 -0.24812809577E+03  0.24812809577E+03  0.00000000000E+00 0.  1.
         23    2    1    2    0    0  0.46494102431E+02  0.29627257701E+02 -0.13903517122E+02  0.10602119695E+03  0.89485811474E+02 0.  0.
          5    1    1    2  502    0 -0.10880594832E+02 -0.10162876945E+02  0.19844549996E+02  0.25250100519E+02  0.47000000000E+01 0. -1.
         -5    1    1    2    0  502 -0.35613507599E+02 -0.19464380756E+02 -0.18321281874E+03  0.18771310821E+03  0.47000000000E+01 0. -1.
        -11    1    3    3    0    0  0.19292055652E+02 -0.30564025083E+02 -0.16903004142E+02  0.39900558763E+02  0.00000000000E+00 0.  1.
         11    1    3    3    0    0  0.27202046779E+02  0.60191282784E+02  0.29994870202E+01  0.66120638190E+02  0.00000000000E+00 0. -1.
<mgrwt>
<rscale>  0 0.12794827E+03</rscale>
<asrwt>0</asrwt>
<pdfrwt beam="1">  1        2 0.10900971E-01 0.13661675E+03</pdfrwt>
<pdfrwt beam="2">  1       -2 0.38173553E-01 0.13661675E+03</pdfrwt>
<totfact> 0.35903778E+03</totfact>
</mgrwt>
</event>
<event>
 7    1  0.1330601E-005  0.1657254E+03  0.7546771E-02  0.1189181E+00
          4   -1    0    0  501    0  0.00000000000E+00  0.00000000000E+00  0.22255516901E+03  0.22255516901E+03  0.00000000000E+00 0. -1.
         -4   -1    0    0    0  501 -0.00000000000E+00 -0.00000000000E+00 -0.12150706472E+03  0.12150706472E+03  0.00000000000E+00 0.  1.
         23    2    1    2    0    0  0.41721149964E+02 -0.10049048912E+03  0.10711338045E+03  0.17822590678E+03  0.91935873390E+02 0.  0.
          5    1    1    2  502    0  0.72204055693E+01  0.80365560211E+02  0.44693205096E+02  0.92359786197E+02  0.47000000000E+01 0.  1.
         -5    1    1    2    0  502 -0.48941555533E+02  0.20124928912E+02 -0.50758481264E+02  0.73476540760E+02  0.47000000000E+01 0.  1.
        -11    1    3    3    0    0 -0.26919094678E+02 -0.51226391320E+02  0.40455516462E+02  0.70607574934E+02  0.00000000000E+00 0. -1.
         11    1    3    3    0    0  0.68640244642E+02 -0.49264097803E+02  0.66657863992E+02  0.10761833184E+03  0.00000000000E+00 0.  1.
<mgrwt>
<rscale>  0 0.15957146E+03</rscale>
<asrwt>0</asrwt>
<pdfrwt beam="1">  1        4 0.34239257E-01 0.16572537E+03</pdfrwt>
<pdfrwt beam="2">  1       -4 0.18693395E-01 0.16572537E+03</pdfrwt>
<totfact> 0.36243751E+02</totfact>
</mgrwt>
</event>
<event>
 7    1  0.1657619E-005  0.1666165E+03  0.7546771E-02  0.1188151E+00
          1   -1    0    0  501    0  0.00000000000E+00  0.00000000000E+00  0.40250413470E+03  0.40250413470E+03  0.00000000000E+00 0. -1.
         -1   -1    0    0    0  501 -0.00000000000E+00 -0.00000000000E+00 -0.61193104242E+02  0.61193104242E+02  0.00000000000E+00 0.  1.
         23    2    1    2    0    0  0.75998196400E+02  0.79753231620E+02  0.19433016243E+03  0.24151616650E+03  0.91812541838E+02 0.  0.
          5    1    1    2  502    0 -0.27394311862E+02 -0.10710010999E+03  0.97127459220E+02  0.14723014371E+03  0.47000000000E+01 0.  1.
         -5    1    1    2    0  502 -0.48603884538E+02  0.27346878370E+02  0.49853408803E+02  0.74950928734E+02  0.47000000000E+01 0.  1.
        -11    1    3    3    0    0  0.60483700289E+02 -0.53398223870E+00  0.67768554420E+02  0.90835786482E+02  0.00000000000E+00 0.  1.
         11    1    3    3    0    0  0.15514496111E+02  0.80287213858E+02  0.12656160801E+03  0.15068038002E+03  0.00000000000E+00 0. -1.
<mgrwt>
<rscale>  0 0.16048402E+03</rscale>
<asrwt>0</asrwt>
<pdfrwt beam="1">  1        1 0.61923711E-01 0.16661649E+03</pdfrwt>
<pdfrwt beam="2">  1       -1 0.94143240E-02 0.16661649E+03</pdfrwt>
<totfact> 0.39261648E+03</totfact>
</mgrwt>
</event>
<event>
 7    1  0.1330601E-005  0.1328579E+03  0.7546771E-02  0.1236254E+00
          2   -1    0    0  501    0  0.00000000000E+00  0.00000000000E+00  0.39119963486E+03  0.39119963486E+03  0.00000000000E+00 0. -1.
         -2   -1    0    0    0  501 -0.00000000000E+00 -0.00000000000E+00 -0.36269049432E+02  0.36269049432E+02  0.00000000000E+00 0.  1.
         23    2    1    2    0    0 -0.36586476209E+02  0.26533236991E+02  0.19205175560E+03  0.21727651995E+03  0.91008935732E+02 0.  0.
          5    1    1    2  502    0  0.50323412786E+02  0.39348967394E+02  0.94261412727E+02  0.11396530629E+03  0.47000000000E+01 0.  1.
         -5    1    1    2    0  502 -0.13736936577E+02 -0.65882204386E+02  0.68617417094E+02  0.96226858048E+02  0.47000000000E+01 0.  1.
        -11    1    3    3    0    0 -0.30134180515E+01  0.56160514047E+02  0.95129201114E+02  0.11051085436E+03  0.00000000000E+00 0.  1.
         11    1    3    3    0    0 -0.33573058157E+02 -0.29627277056E+02  0.96922554488E+02  0.10676566559E+03  0.00000000000E+00 0. -1.
<mgrwt>
<rscale>  0 0.12424474E+03</rscale>
<asrwt>0</asrwt>
<pdfrwt beam="1">  1        2 0.60184556E-01 0.13285794E+03</pdfrwt>
<pdfrwt beam="2">  1       -2 0.55798540E-02 0.13285794E+03</pdfrwt>
<totfact> 0.12772792E+04</totfact>
</mgrwt>
</event>
<event>
 7    1  0.1330601E-005  0.3876693E+03  0.7546771E-02  0.1049001E+00
          1   -1    0    0  501    0  0.00000000000E+00  0.00000000000E+00  0.81650146896E+03  0.81650146896E+03  0.00000000000E+00 0. -1.
         -1   -1    0    0    0  501 -0.00000000000E+00 -0.00000000000E+00 -0.18432665449E+03  0.18432665449E+03  0.00000000000E+00 0.  1.
         23    2    1    2    0    0  0.15467454724E+03 -0.33276096495E+03  0.39253454031E+03  0.54507056694E+03  0.91457543428E+02 0.  0.
          5    1    1    2  502    0 -0.90962091788E+02  0.79461427063E+02  0.41199935070E+02  0.12770178222E+03  0.47000000000E+01 0.  1.
         -5    1    1    2    0  502 -0.63712455447E+02  0.25329953788E+03  0.19844033909E+03  0.32805577430E+03  0.47000000000E+01 0.  1.
        -11    1    3    3    0    0  0.38240174408E+02 -0.14827655485E+03  0.11210179025E+03  0.18977633950E+03  0.00000000000E+00 0.  1.
         11    1    3    3    0    0  0.11643437283E+03 -0.18448441010E+03  0.28043275006E+03  0.35529422744E+03  0.00000000000E+00 0. -1.
<mgrwt>
<rscale>  0 0.38527436E+03</rscale>
<asrwt>0</asrwt>
<pdfrwt beam="1">  1        1 0.12561561E+00 0.38766930E+03</pdfrwt>
<pdfrwt beam="2">  1       -1 0.28357947E-01 0.38766930E+03</pdfrwt>
<totfact> 0.25002881E+02</totfact>
</mgrwt>
</event>
<event>
 7    1  0.1330601E-005  0.1336419E+03  0.7546771E-02  0.1235911E+00
         -1   -1    0    0    0  501 -0.00000000000E+00  0.00000000000E+00  0.10450321061E+03  0.10450321061E+03  0.00000000000E+00 0.  1.
          1   -1    0    0  501    0  0.00000000000E+00 -0.00000000000E+00 -0.13746782005E+03  0.13746782005E+03  0.00000000000E+00 0. -1.
         23    2    1    2    0    0  0.16483255928E+02  0.44311668978E+02 -0.39858792956E+02  0.10815144355E+03  0.88728741867E+02 0.  0.
          5    1    1    2  502    0 -0.34727643707E+02  0.12935603150E+02 -0.42002785279E+02  0.56210880063E+02  0.47000000000E+01 0.  1.
         -5    1    1    2    0  502  0.18244387779E+02 -0.57247272129E+02  0.48896968800E+02  0.77608707046E+02  0.47000000000E+01 0.  1.
        -11    1    3    3    0    0  0.44083137947E+01  0.69243254179E+02 -0.40694711135E+02  0.80437062317E+02  0.00000000000E+00 0. -1.
         11    1    3    3    0    0  0.12074942133E+02 -0.24931585201E+02  0.83591817928E+00  0.27714381237E+02  0.00000000000E+00 0.  1.
<mgrwt>
<rscale>  0 0.12446297E+03</rscale>
<asrwt>0</asrwt>
<pdfrwt beam="2">  1        1 0.21148895E-01 0.13364188E+03</pdfrwt>
<pdfrwt beam="1">  1       -1 0.16077417E-01 0.13364188E+03</pdfrwt>
<totfact> 0.64771816E+03</totfact>
</mgrwt>
</event>
<event>
 7    1  0.1330601E-005  0.2044176E+03  0.7546771E-02  0.1149945E+00
         -1   -1    0    0    0  501 -0.00000000000E+00  0.00000000000E+00  0.10374844190E+03  0.10374844190E+03  0.00000000000E+00 0.  1.
          1   -1    0    0  501    0  0.00000000000E+00 -0.00000000000E+00 -0.40094248781E+03  0.40094248781E+03  0.00000000000E+00 0. -1.
         23    2    1    2    0    0 -0.15878556453E+03  0.30791476978E+02 -0.21451283873E+03  0.28418525755E+03  0.92652749932E+02 0.  0.
          5    1    1    2  502    0  0.16903756344E+03  0.26278171263E+01 -0.69666395128E+02  0.18291008689E+03  0.47000000000E+01 0. -1.
         -5    1    1    2    0  502 -0.10251998904E+02 -0.33419294105E+02 -0.13014812052E+02  0.37595585283E+02  0.47000000000E+01 0. -1.
        -11    1    3    3    0    0 -0.11101121322E+03  0.34393780357E+02 -0.79192008567E+02  0.14063355150E+03  0.00000000000E+00 0.  1.
         11    1    3    3    0    0 -0.47774351314E+02 -0.36023033791E+01 -0.13532083016E+03  0.14355170604E+03  0.00000000000E+00 0. -1.
<mgrwt>
<rscale>  0 0.19975658E+03</rscale>
<asrwt>0</asrwt>
<pdfrwt beam="2">  1        1 0.61683461E-01 0.20441763E+03</pdfrwt>
<pdfrwt beam="1">  1       -1 0.15961298E-01 0.20441763E+03</pdfrwt>
<totfact> 0.17451294E+03</totfact>
</mgrwt>
</event>
<event>
 7    1  0.1330601E-005  0.1436556E+03  0.7546771E-02  0.1215810E+00
         -2   -1    0    0    0  501 -0.00000000000E+00  0.00000000000E+00  0.11316672602E+03  0.11316672602E+03  0.00000000000E+00 0.  1.
          2   -1    0    0  501    0  0.00000000000E+00 -0.00000000000E+00 -0.15782120341E+03  0.15782120341E+03  0.00000000000E+00 0. -1.
         23    2    1    2    0    0  0.70085748410E+02 -0.10131284200E+02 -0.10954023884E+02  0.12343230289E+03  0.10050317262E+03 0.  0.
          5    1    1    2  502    0 -0.18068339940E+02  0.51820729953E+02 -0.54579283589E+02  0.77542511941E+02  0.47000000000E+01 0.  1.
         -5    1    1    2    0  502 -0.52017408470E+02 -0.41689445753E+02  0.20878830080E+02  0.70013114605E+02  0.47000000000E+01 0.  1.
        -11    1    3    3    0    0 -0.18269700674E+02  0.17660953726E+02  0.11857990980E+02  0.28041098397E+02  0.00000000000E+00 0. -1.
         11    1    3    3    0    0  0.88355449084E+02 -0.27792237926E+02 -0.22812014864E+02  0.95391204489E+02  0.00000000000E+00 0.  1.
<mgrwt>
<rscale>  0 0.13817198E+03</rscale>
<asrwt>0</asrwt>
<pdfrwt beam="2">  1        2 0.24280185E-01 0.14365564E+03</pdfrwt>
<pdfrwt beam="1">  1       -2 0.17410266E-01 0.14365564E+03</pdfrwt>
<totfact> 0.56643184E+03</totfact>
</mgrwt>
</event>
<event>
 7    1  0.1330601E-005  0.2199935E+03  0.7546771E-02  0.1133888E+00
          1   -1    0    0  501    0  0.00000000000E+00  0.00000000000E+00  0.10272811285E+03  0.10272811285E+03  0.00000000000E+00 0. -1.
         -1   -1    0    0    0  501 -0.00000000000E+00 -0.00000000000E+00 -0.11777966982E+03  0.11777966982E+03  0.00000000000E+00 0.  1.
         23    2    1    2    0    0 -0.21004196013E+02  0.25813248933E+01  0.30890960942E+01  0.92471291457E+02  0.89964202551E+02 0.  0.
          5    1    1    2  502    0  0.59419841658E+02  0.27661275684E+02 -0.37013499745E+02  0.75418518406E+02  0.47000000000E+01 0.  1.
         -5    1    1    2    0  502 -0.38415645645E+02 -0.30242600578E+02  0.18872846679E+02  0.52617972802E+02  0.47000000000E+01 0.  1.
        -11    1    3    3    0    0 -0.21524198836E+02 -0.38399430462E+02  0.19727273419E+02  0.48238705537E+02  0.00000000000E+00 0.  1.
         11    1    3    3    0    0  0.52000282320E+00  0.40980755356E+02 -0.16638177325E+02  0.44232585920E+02  0.00000000000E+00 0. -1.
<mgrwt>
<rscale>  0 0.21999348E+03</rscale>
<asrwt>0</asrwt>
<pdfrwt beam="1">  1        1 0.15804325E-01 0.21999348E+03</pdfrwt>
<pdfrwt beam="2">  1       -1 0.18119949E-01 0.21999348E+03</pdfrwt>
<totfact> 0.80510930E+03</totfact>
</mgrwt>
</event>
<event>
 7    1  0.1330601E-005  0.1252317E+03  0.7546771E-02  0.1248630E+00
          1   -1    0    0  501    0  0.00000000000E+00  0.00000000000E+00  0.37481095609E+03  0.37481095609E+03  0.00000000000E+00 0. -1.
         -1   -1    0    0    0  501 -0.00000000000E+00 -0.00000000000E+00 -0.33576084425E+02  0.33576084425E+02  0.00000000000E+00 0.  1.
         23    2    1    2    0    0  0.50553134331E+01  0.56425991359E+01  0.18876381263E+03  0.21107913839E+03  0.94155353472E+02 0.  0.
          5    1    1    2  502    0  0.47025090406E+02  0.21942560534E+02  0.27179540213E+02  0.58767784514E+02  0.47000000000E+01 0. -1.
         -5    1    1    2    0  502 -0.52080403839E+02 -0.27585159670E+02  0.12529151882E+03  0.13854011760E+03  0.47000000000E+01 0. -1.
        -11    1    3    3    0    0 -0.28306636818E+02 -0.55990544785E+01  0.16746476420E+03  0.16993252292E+03  0.00000000000E+00 0. -1.
         11    1    3    3    0    0  0.33361950252E+02  0.11241653614E+02  0.21299048432E+02  0.41146615470E+02  0.00000000000E+00 0.  1.
<mgrwt>
<rscale>  0 0.11670712E+03</rscale>
<asrwt>0</asrwt>
<pdfrwt beam="1">  1        1 0.57663221E-01 0.12523172E+03</pdfrwt>
<pdfrwt beam="2">  1       -1 0.51655517E-02 0.12523172E+03</pdfrwt>
<totfact> 0.10400443E+04</totfact>
</mgrwt>
</event>
<event>
 7    1  0.1330601E-005  0.1268341E+03  0.7546771E-02  0.1246752E+00
          1   -1    0    0  501    0  0.00000000000E+00  0.00000000000E+00  0.80163418742E+03  0.80163418742E+03  0.00000000000E+00 0. -1.
         -1   -1    0    0    0  501 -0.00000000000E+00 -0.00000000000E+00 -0.15377105875E+02  0.15377105875E+02  0.00000000000E+00 0.  1.
         23    2    1    2    0    0  0.18811903252E+02 -0.10430143326E+02  0.37029687103E+03  0.38214373405E+03  0.91931415663E+02 0.  0.
          5    1    1    2  502    0  0.26154073395E+02  0.94440325005E+01  0.36751656839E+03  0.36859699314E+03  0.47000000000E+01 0. -1.
         -5    1    1    2    0  502 -0.44965976646E+02  0.98611082534E+00  0.48443642118E+02  0.66270566106E+02  0.47000000000E+01 0. -1.
        -11    1    3    3    0    0  0.51636682092E+02 -0.23115142611E+02  0.18212701754E+03  0.19071158138E+03  0.00000000000E+00 0.  1.
         11    1    3    3    0    0 -0.32824778840E+02  0.12684999285E+02  0.18816985349E+03  0.19143215267E+03  0.00000000000E+00 0. -1.
<mgrwt>
<rscale>  0 0.11781119E+03</rscale>
<asrwt>0</asrwt>
<pdfrwt beam="1">  1        1 0.12332830E+00 0.12683413E+03</pdfrwt>
<pdfrwt beam="2">  1       -1 0.23657092E-02 0.12683413E+03</pdfrwt>
<totfact> 0.11730147E+04</totfact>
</mgrwt>
</event>
<event>
 7    1  0.1330601E-005  0.2129449E+03  0.7546771E-02  0.1143111E+00
         -2   -1    0    0    0  501 -0.00000000000E+00  0.00000000000E+00  0.40230070997E+02  0.40230070997E+02  0.00000000000E+00 0.  1.
          2   -1    0    0  501    0  0.00000000000E+00 -0.00000000000E+00 -0.14248396023E+04  0.14248396023E+04  0.00000000000E+00 0. -1.
         23    2    1    2    0    0 -0.72957321647E+02  0.15619651721E+03 -0.10546882714E+04  0.10723948052E+04  0.89124326058E+02 0.  0.
          5    1    1    2  502    0  0.76077818910E+02 -0.17407042241E+03 -0.31803144700E+03  0.37047866034E+03  0.47000000000E+01 0. -1.
         -5    1    1    2    0  502 -0.31204972630E+01  0.17873905199E+02 -0.11889812887E+02  0.22196207801E+02  0.47000000000E+01 0. -1.
        -11    1    3    3    0    0 -0.77636065168E+02  0.60985202744E+02 -0.52899201589E+03  0.53812554896E+03  0.00000000000E+00 0.  1.
         11    1    3    3    0    0  0.46787435207E+01  0.95211314463E+02 -0.52569625553E+03  0.53426925620E+03  0.00000000000E+00 0. -1.
<mgrwt>
<rscale>  0 0.20806073E+03</rscale>
<asrwt>0</asrwt>
<pdfrwt beam="2">  1        2 0.21920608E+00 0.21294486E+03</pdfrwt>
<pdfrwt beam="1">  1       -2 0.61892421E-02 0.21294486E+03</pdfrwt>
<totfact> 0.21148594E+03</totfact>
</mgrwt>
</event>
<event>
 7    1  0.1330601E-005  0.1414083E+03  0.7546771E-02  0.1222036E+00
          2   -1    0    0  501    0  0.00000000000E+00  0.00000000000E+00  0.48129005859E+02  0.48129005859E+02  0.00000000000E+00 0. -1.
         -2   -1    0    0    0  501 -0.00000000000E+00 -0.00000000000E+00 -0.39720377721E+03  0.39720377721E+03  0.00000000000E+00 0.  1.
         23    2    1    2    0    0  0.65912786200E+02  0.52172594818E+01 -0.71425594366E+02  0.13374753612E+03  0.91733705406E+02 0.  0.
          5    1    1    2  502    0 -0.77402698429E+02  0.31080613725E+02 -0.10224602378E+03  0.13203606194E+03  0.47000000000E+01 0.  1.
         -5    1    1    2    0  502  0.11489912228E+02 -0.36297873207E+02 -0.17540315320E+03  0.17954918501E+03  0.47000000000E+01 0.  1.
        -11    1    3    3    0    0  0.55031593145E+02 -0.25483588456E+02 -0.63521337459E+01  0.60977365700E+02  0.00000000000E+00 0. -1.
         11    1    3    3    0    0  0.10881193056E+02  0.30700847937E+02 -0.65073460620E+02  0.72770170424E+02  0.00000000000E+00 0.  1.
<mgrwt>
<rscale>  0 0.13372152E+03</rscale>
<asrwt>0</asrwt>
<pdfrwt beam="1">  1        2 0.74044625E-02 0.14140828E+03</pdfrwt>
<pdfrwt beam="2">  1       -2 0.61108273E-01 0.14140828E+03</pdfrwt>
<totfact> 0.23053548E+03</totfact>
</mgrwt>
</event>
<event>
 7    1  0.1330601E-005  0.1354449E+03  0.7546771E-02  0.1232058E+00
          2   -1    0    0  501    0  0.00000000000E+00  0.00000000000E+00  0.29237001434E+03  0.29237001434E+03  0.00000000000E+00 0. -1.
         -2   -1    0    0    0  501 -0.00000000000E+00 -0.00000000000E+00 -0.50639134936E+02  0.50639134936E+02  0.00000000000E+00 0.  1.
         23    2    1    2    0    0 -0.44332211887E+02  0.27457953211E+02  0.13401710037E+03  0.16995549247E+03  0.90581466212E+02 0.  0.
          5    1    1    2  502    0  0.56833644711E+02 -0.29930632081E+02  0.13106787479E+03  0.14603692584E+03  0.47000000000E+01 0.  1.
         -5    1    1    2    0  502 -0.12501432824E+02  0.24726788702E+01 -0.23354095759E+02  0.27016730967E+02  0.47000000000E+01 0.  1.
        -11    1    3    3    0    0 -0.67098703737E+02  0.38419450264E+02  0.85659456207E+02  0.11539424873E+03  0.00000000000E+00 0. -1.
         11    1    3    3    0    0  0.22766491850E+02 -0.10961497053E+02  0.48357644167E+02  0.54561243738E+02  0.00000000000E+00 0.  1.
<mgrwt>
<rscale>  0 0.12694659E+03</rscale>
<asrwt>0</asrwt>
<pdfrwt beam="1">  1        2 0.44980001E-01 0.13544486E+03</pdfrwt>
<pdfrwt beam="2">  1       -2 0.77906363E-02 0.13544486E+03</pdfrwt>
<totfact> 0.10475010E+04</totfact>
</mgrwt>
</event>
<event>
 7    1  0.1330601E-005  0.1533411E+03  0.7546771E-02  0.1205099E+00
         -3   -1    0    0    0  501 -0.00000000000E+00  0.00000000000E+00  0.10387317605E+04  0.10387317605E+04  0.00000000000E+00 0.  1.
          3   -1    0    0  501    0  0.00000000000E+00 -0.00000000000E+00 -0.24236375844E+02  0.24236375844E+02  0.00000000000E+00 0. -1.
         23    2    1    2    0    0 -0.62765639751E+01  0.88600072771E+02  0.22207430796E+03  0.25584691419E+03  0.90836540526E+02 0.  0.
          5    1    1    2  502    0 -0.17196657185E+02  0.23976714994E+02  0.29736754198E+03  0.29886477361E+03  0.47000000000E+01 0. -1.
         -5    1    1    2    0  502  0.23473221160E+02 -0.11257678776E+03  0.49505353473E+03  0.50825644857E+03  0.47000000000E+01 0. -1.
        -11    1    3    3    0    0  0.38366936618E+02  0.50475374288E+02  0.15027088744E+03  0.16309851270E+03  0.00000000000E+00 0.  1.
         11    1    3    3    0    0 -0.44643500593E+02  0.38124698483E+02  0.71803420524E+02  0.92748401488E+02  0.00000000000E+00 0. -1.
<mgrwt>
<rscale>  0 0.14629656E+03</rscale>
<asrwt>0</asrwt>
<pdfrwt beam="2">  1        3 0.37286740E-02 0.15334114E+03</pdfrwt>
<pdfrwt beam="1">  1       -3 0.15980485E+00 0.15334114E+03</pdfrwt>
<totfact> 0.25100529E+02</totfact>
</mgrwt>
</event>
<event>
 7    1  0.1330601E-005  0.1360943E+03  0.7546771E-02  0.1230556E+00
         -1   -1    0    0    0  501 -0.00000000000E+00  0.00000000000E+00  0.12015020995E+03  0.12015020995E+03  0.00000000000E+00 0.  1.
          1   -1    0    0  501    0  0.00000000000E+00 -0.00000000000E+00 -0.12231172921E+03  0.12231172921E+03  0.00000000000E+00 0. -1.
         23    2    1    2    0    0  0.11031386338E+02 -0.52676611472E+02  0.23158157204E+01  0.10629405533E+03  0.91632670572E+02 0.  0.
          5    1    1    2  502    0  0.58880614994E+01  0.74148596038E+02 -0.44999301419E+02  0.87061533933E+02  0.47000000000E+01 0.  1.
         -5    1    1    2    0  502 -0.16919447838E+02 -0.21471984565E+02  0.40521966439E+02  0.49106349899E+02  0.47000000000E+01 0.  1.
        -11    1    3    3    0    0  0.16064518939E+02  0.18660344286E+02  0.21019543330E+02  0.32374348170E+02  0.00000000000E+00 0.  1.
         11    1    3    3    0    0 -0.50331326005E+01 -0.71336955759E+02 -0.18703727610E+02  0.73919707164E+02  0.00000000000E+00 0. -1.
<mgrwt>
<rscale>  0 0.12793263E+03</rscale>
<asrwt>0</asrwt>
<pdfrwt beam="2">  1        1 0.18817189E-01 0.13609425E+03</pdfrwt>
<pdfrwt beam="1">  1       -1 0.18484648E-01 0.13609425E+03</pdfrwt>
<totfact> 0.60311870E+03</totfact>
</mgrwt>
</event>
<event>
 7    1  0.1330601E-005  0.2897068E+03  0.7546771E-02  0.1092224E+00
         -3   -1    0    0    0  501 -0.00000000000E+00  0.00000000000E+00  0.61234811691E+03  0.61234811691E+03  0.00000000000E+00 0.  1.
          3   -1    0    0  501    0  0.00000000000E+00 -0.00000000000E+00 -0.14463044848E+03  0.14463044848E+03  0.00000000000E+00 0. -1.
         23    2    1    2    0    0  0.12154547976E+03  0.23137018152E+03  0.11309298364E+03  0.29906078054E+03  0.91333799669E+02 0.  0.
          5    1    1    2  502    0 -0.18545358580E+02  0.12803092775E+02  0.16662563222E+02  0.28417961268E+02  0.47000000000E+01 0.  1.
         -5    1    1    2    0  502 -0.10300012118E+03 -0.24417327429E+03  0.33796212157E+03  0.42949982358E+03  0.47000000000E+01 0.  1.
        -11    1    3    3    0    0  0.24260965513E+02  0.59121456461E+02  0.73352186857E+02  0.97285581554E+02  0.00000000000E+00 0.  1.
         11    1    3    3    0    0  0.97284514244E+02  0.17224872506E+03  0.39740796782E+02  0.20177519898E+03  0.00000000000E+00 0. -1.
<mgrwt>
<rscale>  0 0.28643834E+03</rscale>
<asrwt>0</asrwt>
<pdfrwt beam="2">  1        3 0.22250839E-01 0.28970680E+03</pdfrwt>
<pdfrwt beam="1">  1       -3 0.94207401E-01 0.28970680E+03</pdfrwt>
<totfact> 0.48134353E+01</totfact>
</mgrwt>
</event>
<event>
 7    1  0.1330601E-005  0.1661514E+03  0.7546771E-02  0.1188862E+00
         -1   -1    0    0    0  501 -0.00000000000E+00  0.00000000000E+00  0.73801997847E+02  0.73801997847E+02  0.00000000000E+00 0.  1.
          1   -1    0    0  501    0  0.00000000000E+00 -0.00000000000E+00 -0.32908532669E+03  0.32908532669E+03  0.00000000000E+00 0. -1.
         23    2    1    2    0    0 -0.10215511402E+03  0.39331589777E+02 -0.14661326201E+03  0.20435405755E+03  0.91008191738E+02 0.  0.
          5    1    1    2  502    0  0.43560991504E+02  0.10724169659E+02  0.19311174185E+02  0.49067089216E+02  0.47000000000E+01 0. -1.
         -5    1    1    2    0  502  0.58594122517E+02 -0.50055759436E+02 -0.12798124101E+03  0.14946617777E+03  0.47000000000E+01 0. -1.
        -11    1    3    3    0    0 -0.25057947181E+02 -0.29535985453E+02 -0.34729600648E+02  0.52023267052E+02  0.00000000000E+00 0.  1.
         11    1    3    3    0    0 -0.77097166839E+02  0.68867575230E+02 -0.11188366136E+03  0.15233079049E+03  0.00000000000E+00 0. -1.
<mgrwt>
<rscale>  0 0.15985330E+03</rscale>
<asrwt>0</asrwt>
<pdfrwt beam="2">  1        1 0.50628513E-01 0.16615136E+03</pdfrwt>
<pdfrwt beam="1">  1       -1 0.11354153E-01 0.16615136E+03</pdfrwt>
<totfact> 0.37932292E+03</totfact>
</mgrwt>
</event>
<event>
 7    1  0.1330601E-005  0.1275205E+03  0.7546771E-02  0.1248151E+00
          2   -1    0    0  501    0  0.00000000000E+00  0.00000000000E+00  0.93404410032E+02  0.93404410032E+02  0.00000000000E+00 0. -1.
         -2   -1    0    0    0  501 -0.00000000000E+00 -0.00000000000E+00 -0.13895147604E+03  0.13895147604E+03  0.00000000000E+00 0.  1.
         23    2    1    2    0    0 -0.19470502816E+02 -0.16016428428E+02  0.14365299286E+02  0.91462432514E+02  0.86737467557E+02 0.  0.
          5    1    1    2  502    0  0.33527531189E+02 -0.40274155281E+02  0.60031416242E+01  0.52954986928E+02  0.47000000000E+01 0. -1.
         -5    1    1    2    0  502 -0.14057028373E+02  0.56290583709E+02 -0.65915506919E+02  0.87938466631E+02  0.47000000000E+01 0. -1.
        -11    1    3    3    0    0 -0.27145986948E+02  0.56079246617E+01  0.45202501402E+02  0.53024707066E+02  0.00000000000E+00 0. -1.
         11    1    3    3    0    0  0.76754841320E+01 -0.21624353089E+02 -0.30837202117E+02  0.38437725448E+02  0.00000000000E+00 0.  1.
<mgrwt>
<rscale>  0 0.11698756E+03</rscale>
<asrwt>0</asrwt>
<pdfrwt beam="1">  1        2 0.14369909E-01 0.12752048E+03</pdfrwt>
<pdfrwt beam="2">  1       -2 0.21377150E-01 0.12752048E+03</pdfrwt>
<totfact> 0.72303455E+03</totfact>
</mgrwt>
</event>
<event>
 7    1  0.1330601E-005  0.1356133E+03  0.7546771E-02  0.1231522E+00
          1   -1    0    0  501    0  0.00000000000E+00  0.00000000000E+00  0.38776495390E+03  0.38776495390E+03  0.00000000000E+00 0. -1.
         -1   -1    0    0    0  501 -0.00000000000E+00 -0.00000000000E+00 -0.39553453778E+02  0.39553453778E+02  0.00000000000E+00 0.  1.
         23    2    1    2    0    0 -0.52442003586E+02 -0.41106774401E+01  0.10406182002E+03  0.14803355264E+03  0.91203118991E+02 0.  0.
          5    1    1    2  502    0  0.92427166157E+02  0.11514848682E+02  0.15010542579E+03  0.17671757591E+03  0.47000000000E+01 0. -1.
         -5    1    1    2    0  502 -0.39985162571E+02 -0.74041712419E+01  0.94044254315E+02  0.10256727913E+03  0.47000000000E+01 0. -1.
        -11    1    3    3    0    0  0.47125337657E+01 -0.32451401479E+02  0.98219963395E+01  0.34231170657E+02  0.00000000000E+00 0.  1.
         11    1    3    3    0    0 -0.57154537352E+02  0.28340724039E+02  0.94239823678E+02  0.11380238199E+03  0.00000000000E+00 0. -1.
<mgrwt>
<rscale>  0 0.12729724E+03</rscale>
<asrwt>0</asrwt>
<pdfrwt beam="1">  1        1 0.59656144E-01 0.13561329E+03</pdfrwt>
<pdfrwt beam="2">  1       -1 0.60851470E-02 0.13561329E+03</pdfrwt>
<totfact> 0.78607392E+03</totfact>
</mgrwt>
</event>
<event>
 6    1  0.1330601E-005  0.1247106E+03  0.7546771E-02  0.1290437E+00
         -2   -1    0    0    0  501 -0.00000000000E+00  0.00000000000E+00  0.15573799549E+03  0.15573799549E+03  0.00000000000E+00 0.  1.
          2   -1    0    0  501    0  0.00000000000E+00 -0.00000000000E+00 -0.47608157120E+02  0.47608157120E+02  0.00000000000E+00 0. -1.
          5    1    1    2  502    0  0.66351878678E+02 -0.43891593253E+02  0.82977033957E+02  0.11504921524E+03  0.47000000000E+01 0. -1.
         -5    1    1    2    0  502 -0.27324507660E+02  0.30920348736E+02  0.17354793189E+02  0.45010837933E+02  0.47000000000E+01 0.  1.
        -11    1    1    2    0    0 -0.28591054403E+02  0.49336276653E+01  0.80546443176E+01  0.30110901164E+02  0.00000000000E+00 0.  1.
         11    1    1    2    0    0 -0.10436316615E+02  0.80376168517E+01 -0.25663309112E+00  0.13175198279E+02  0.00000000000E+00 0. -1.
<mgrwt>
<rscale>  0 0.95328707E+02</rscale>
<asrwt>0</asrwt>
<pdfrwt beam="2">  1        2 0.73243320E-02 0.12471065E+03</pdfrwt>
<pdfrwt beam="1">  1       -2 0.23959691E-01 0.12471065E+03</pdfrwt>
<totfact> 0.13498276E+04</totfact>
</mgrwt>
</event>
<event>
 7    1  0.1330601E-005  0.1600447E+03  0.7546771E-02  0.1196429E+00
          1   -1    0    0  501    0  0.00000000000E+00  0.00000000000E+00  0.16104253069E+03  0.16104253069E+03  0.00000000000E+00 0. -1.
         -1   -1    0    0    0  501 -0.00000000000E+00 -0.00000000000E+00 -0.13502680603E+03  0.13502680603E+03  0.00000000000E+00 0.  1.
         23    2    1    2    0    0 -0.59546234357E+02 -0.80282055736E+02  0.13480340042E+02  0.13553444715E+03  0.90536756615E+02 0.  0.
          5    1    1    2  502    0 -0.62771697358E+01  0.90979046741E+02  0.19324436405E+02  0.93338703913E+02  0.47000000000E+01 0.  1.
         -5    1    1    2    0  502  0.65823404093E+02 -0.10696991005E+02 -0.67890517861E+01  0.67196185659E+02  0.47000000000E+01 0.  1.
        -11    1    3    3    0    0 -0.98187328163E+01 -0.93265222655E+01 -0.34095343797E+02  0.36686291722E+02  0.00000000000E+00 0.  1.
         11    1    3    3    0    0 -0.49727501541E+02 -0.70955533470E+02  0.47575683839E+02  0.98848155432E+02  0.00000000000E+00 0. -1.
<mgrwt>
<rscale>  0 0.15333940E+03</rscale>
<asrwt>0</asrwt>
<pdfrwt beam="1">  1        1 0.24775774E-01 0.16004473E+03</pdfrwt>
<pdfrwt beam="2">  1       -1 0.20773355E-01 0.16004473E+03</pdfrwt>
<totfact> 0.35608268E+03</totfact>
</mgrwt>
</event>
<event>
 7    1  0.1330601E-005  0.2079491E+03  0.7546771E-02  0.1178024E+00
          2   -1    0    0  501    0  0.00000000000E+00  0.00000000000E+00  0.12482483521E+03  0.12482483521E+03  0.00000000000E+00 0. -1.
         -2   -1    0    0    0  501 -0.00000000000E+00 -0.00000000000E+00 -0.20386993301E+03  0.20386993301E+03  0.00000000000E+00 0.  1.
         23    2    1    2    0    0 -0.18957039513E+02  0.87047004164E+00  0.25474947088E+02  0.95956176900E+02  0.90545501771E+02 0.  0.
          5    1    1    2  502    0  0.19530420145E+02 -0.84027912296E+02  0.14362417620E+02  0.87581370141E+02  0.47000000000E+01 0. -1.
         -5    1    1    2    0  502 -0.57338063192E+00  0.83157442254E+02 -0.11888246251E+03  0.14515722118E+03  0.47000000000E+01 0.  1.
        -11    1    3    3    0    0 -0.43201531693E+02  0.25352880463E+02  0.33901563440E+02  0.60485179111E+02  0.00000000000E+00 0.  1.
         11    1    3    3    0    0  0.24244492180E+02 -0.24482410421E+02 -0.84266163518E+01  0.35470997790E+02  0.00000000000E+00 0. -1.
<mgrwt>
<rscale>  0 0.16983147E+03</rscale>
<asrwt>0</asrwt>
<pdfrwt beam="1">  1        2 0.19203821E-01 0.20794906E+03</pdfrwt>
<pdfrwt beam="2">  1       -2 0.31364605E-01 0.20794906E+03</pdfrwt>
<totfact> 0.27018300E+03</totfact>
</mgrwt>
</event>
<event>
 7    1  0.1330601E-005  0.4201853E+03  0.7546771E-02  0.1037006E+00
         -2   -1    0    0    0  501 -0.00000000000E+00  0.00000000000E+00  0.68754125697E+02  0.68754125697E+02  0.00000000000E+00 0.  1.
          2   -1    0    0  501    0  0.00000000000E+00 -0.00000000000E+00 -0.64198221971E+03  0.64198221971E+03  0.00000000000E+00 0. -1.
         23    2    1    2    0    0  0.71336984350E+02  0.21178204441E+02 -0.51954838492E+03  0.53293098214E+03  0.92452289186E+02 0.  0.
          5    1    1    2  502    0 -0.29603319627E+02 -0.33914187689E+01 -0.10494152572E+03  0.10919098898E+03  0.47000000000E+01 0. -1.
         -5    1    1    2    0  502 -0.41733664723E+02 -0.17786785672E+02  0.51261816621E+02  0.68614374289E+02  0.47000000000E+01 0.  1.
        -11    1    3    3    0    0  0.84833956895E+02  0.36978119872E+02 -0.47280718283E+03  0.48177880166E+03  0.00000000000E+00 0. -1.
         11    1    3    3    0    0 -0.13496972545E+02 -0.15799915431E+02 -0.46741202086E+02  0.51152180481E+02  0.00000000000E+00 0.  1.
<mgrwt>
<rscale>  0 0.42018532E+03</rscale>
<asrwt>0</asrwt>
<pdfrwt beam="2">  1        2 0.98766496E-01 0.42018532E+03</pdfrwt>
<pdfrwt beam="1">  1       -2 0.10577558E-01 0.42018532E+03</pdfrwt>
<totfact> 0.28400805E+03</totfact>
</mgrwt>
</event>
<event>
 7    1  0.1330601E-005  0.1913220E+03  0.7546771E-02  0.1164513E+00
         -2   -1    0    0    0  501 -0.00000000000E+00  0.00000000000E+00  0.73600219589E+03  0.73600219589E+03  0.00000000000E+00 0.  1.
          2   -1    0    0  501    0  0.00000000000E+00 -0.00000000000E+00 -0.51623528847E+02  0.51623528847E+02  0.00000000000E+00 0. -1.
         23    2    1    2    0    0  0.98980233885E+02  0.86180234137E+02  0.15203550988E+03  0.22194617059E+03  0.94452035019E+02 0.  0.
          5    1    1    2  502    0 -0.80007692395E+02 -0.52448362137E+02  0.13012049539E+03  0.16157194946E+03  0.47000000000E+01 0. -1.
         -5    1    1    2    0  502 -0.18972541491E+02 -0.33731872000E+02  0.40222266177E+03  0.40410760468E+03  0.47000000000E+01 0.  1.
        -11    1    3    3    0    0  0.10561380717E+02 -0.10401320751E+02  0.60229294492E+02  0.62026592289E+02  0.00000000000E+00 0. -1.
         11    1    3    3    0    0  0.88418853169E+02  0.96581554888E+02  0.91806215392E+02  0.15991957830E+03  0.00000000000E+00 0.  1.
<mgrwt>
<rscale>  0 0.18344166E+03</rscale>
<asrwt>0</asrwt>
<pdfrwt beam="2">  1        2 0.79420819E-02 0.19132203E+03</pdfrwt>
<pdfrwt beam="1">  1       -2 0.11323110E+00 0.19132203E+03</pdfrwt>
<totfact> 0.54404390E+02</totfact>
</mgrwt>
</event>
<event>
 7    1  0.1330601E-005  0.1337341E+03  0.7546771E-02  0.1233898E+00
         -4   -1    0    0    0  501 -0.00000000000E+00  0.00000000000E+00  0.14168446828E+04  0.14168446828E+04  0.00000000000E+00 0.  1.
          4   -1    0    0  501    0  0.00000000000E+00 -0.00000000000E+00 -0.12205251732E+02  0.12205251732E+02  0.00000000000E+00 0. -1.
         23    2    1    2    0    0  0.47523438482E+02 -0.33241227967E+00  0.33117512520E+03  0.34728728100E+03  0.93128428989E+02 0.  0.
          5    1    1    2  502    0 -0.68615976844E+01  0.52557841722E+02  0.24846097268E+03  0.25409516563E+03  0.47000000000E+01 0.  1.
         -5    1    1    2    0  502 -0.40661840798E+02 -0.52225429442E+02  0.82500333318E+03  0.82766748791E+03  0.47000000000E+01 0.  1.
        -11    1    3    3    0    0  0.70668967984E+02 -0.79029546252E+01  0.29654753197E+03  0.30495409236E+03  0.00000000000E+00 0. -1.
         11    1    3    3    0    0 -0.23145529501E+02  0.75705423455E+01  0.34627593230E+02  0.42333188638E+02  0.00000000000E+00 0.  1.
<mgrwt>
<rscale>  0 0.12575251E+03</rscale>
<asrwt>0</asrwt>
<pdfrwt beam="2">  1        4 0.18777322E-02 0.13373415E+03</pdfrwt>
<pdfrwt beam="1">  1       -4 0.21797597E+00 0.13373415E+03</pdfrwt>
<totfact> 0.21239975E+02</totfact>
</mgrwt>
</event>
<event>
 7    1  0.1330601E-005  0.3151987E+03  0.7546771E-02  0.1079172E+00
          1   -1    0    0  501    0  0.00000000000E+00  0.00000000000E+00  0.56406173431E+03  0.56406173431E+03  0.00000000000E+00 0. -1.
         -1   -1    0    0    0  501 -0.00000000000E+00 -0.00000000000E+00 -0.17428774533E+03  0.17428774533E+03  0.00000000000E+00 0.  1.
         23    2    1    2    0    0  0.15761777754E+03 -0.24265612243E+03  0.13468287901E+03  0.33286006598E+03  0.94503905104E+02 0.  0.
          5    1    1    2  502    0 -0.61605006408E+02  0.14034316937E+02  0.28192060362E+02  0.69347106168E+02  0.47000000000E+01 0.  1.
         -5    1    1    2    0  502 -0.96012771134E+02  0.22862180549E+03  0.22689904961E+03  0.33614230748E+03  0.47000000000E+01 0.  1.
        -11    1    3    3    0    0  0.91070252924E+02 -0.19851869275E+03  0.12696631881E+03  0.25263394160E+03  0.00000000000E+00 0.  1.
         11    1    3    3    0    0  0.66547524618E+02 -0.44137429681E+02  0.77165601926E+01  0.80226124379E+02  0.00000000000E+00 0. -1.
<mgrwt>
<rscale>  0 0.31246232E+03</rscale>
<asrwt>0</asrwt>
<pdfrwt beam="1">  1        1 0.86778728E-01 0.31519865E+03</pdfrwt>
<pdfrwt beam="2">  1       -1 0.26813500E-01 0.31519865E+03</pdfrwt>
<totfact> 0.47578582E+02</totfact>
</mgrwt>
</event>
<event>
 7    1  0.1330601E-005  0.1675918E+03  0.7546771E-02  0.1186772E+00
          1   -1    0    0  501    0  0.00000000000E+00  0.00000000000E+00  0.24713679777E+03  0.24713679777E+03  0.00000000000E+00 0. -1.
         -1   -1    0    0    0  501 -0.00000000000E+00 -0.00000000000E+00 -0.99181703603E+02  0.99181703603E+02  0.00000000000E+00 0.  1.
         23    2    1    2    0    0  0.66556016166E+02  0.89614185091E+02  0.75342144810E+02  0.16367221983E+03  0.93014790772E+02 0.  0.
          5    1    1    2  502    0 -0.56396256606E+02 -0.79339463151E+02 -0.10625776168E+02  0.98032062569E+02  0.47000000000E+01 0. -1.
         -5    1    1    2    0  502 -0.10159759560E+02 -0.10274721940E+02  0.83238725524E+02  0.84614218971E+02  0.47000000000E+01 0. -1.
        -11    1    3    3    0    0  0.14262549969E+02  0.43626915190E+02  0.81735732984E+02  0.93741442847E+02  0.00000000000E+00 0. -1.
         11    1    3    3    0    0  0.52293466198E+02  0.45987269900E+02 -0.63935881738E+01  0.69930776984E+02  0.00000000000E+00 0.  1.
<mgrwt>
<rscale>  0 0.16171720E+03</rscale>
<asrwt>0</asrwt>
<pdfrwt beam="1">  1        1 0.38021046E-01 0.16759184E+03</pdfrwt>
<pdfrwt beam="2">  1       -1 0.15258724E-01 0.16759184E+03</pdfrwt>
<totfact> 0.34176391E+03</totfact>
</mgrwt>
</event>
<event>
 7    1  0.1330601E-005  0.1818635E+03  0.7546771E-02  0.1172028E+00
         -2   -1    0    0    0  501 -0.00000000000E+00  0.00000000000E+00  0.46814514473E+03  0.46814514473E+03  0.00000000000E+00 0.  1.
          2   -1    0    0  501    0  0.00000000000E+00 -0.00000000000E+00 -0.61951462114E+02  0.61951462114E+02  0.00000000000E+00 0. -1.
         23    2    1    2    0    0  0.31084929936E+02  0.12838326393E+03  0.17817226559E+03  0.23843224706E+03  0.87498827922E+02 0.  0.
          5    1    1    2  502    0 -0.35836085668E+02 -0.28688401531E+02  0.16993465802E+03  0.17608840795E+03  0.47000000000E+01 0. -1.
         -5    1    1    2    0  502  0.47511557318E+01 -0.99694862400E+02  0.58086759014E+02  0.11557595183E+03  0.47000000000E+01 0. -1.
        -11    1    3    3    0    0 -0.14354306802E+02  0.72516236732E+02  0.13649831070E+03  0.15523027906E+03  0.00000000000E+00 0.  1.
         11    1    3    3    0    0  0.45439236738E+02  0.55867027199E+02  0.41673954890E+02  0.83201968003E+02  0.00000000000E+00 0. -1.
<mgrwt>
<rscale>  0 0.17570264E+03</rscale>
<asrwt>0</asrwt>
<pdfrwt beam="2">  1        2 0.95309945E-02 0.18186350E+03</pdfrwt>
<pdfrwt beam="1">  1       -2 0.72022328E-01 0.18186350E+03</pdfrwt>
<totfact> 0.12024210E+03</totfact>
</mgrwt>
</event>
<event>
 7    1  0.1330601E-005  0.2267004E+03  0.7546771E-02  0.1128984E+00
          3   -1    0    0  501    0  0.00000000000E+00  0.00000000000E+00  0.13459902326E+03  0.13459902326E+03  0.00000000000E+00 0. -1.
         -3   -1    0    0    0  501 -0.00000000000E+00 -0.00000000000E+00 -0.95455888788E+02  0.95455888788E+02  0.00000000000E+00 0.  1.
         23    2    1    2    0    0  0.79752680547E+01 -0.32005010245E+02  0.13450686309E+01  0.95368710732E+02  0.89473214963E+02 0.  0.
          5    1    1    2  502    0  0.36133560715E+02 -0.15670132824E+02 -0.22784832632E+02  0.45743041774E+02  0.47000000000E+01 0.  1.
         -5    1    1    2    0  502 -0.44108828770E+02  0.47675143069E+02  0.60582898472E+02  0.88943159542E+02  0.47000000000E+01 0.  1.
        -11    1    3    3    0    0 -0.25552740138E+02  0.93707674037E+01 -0.24094444484E+02  0.36349636384E+02  0.00000000000E+00 0. -1.
         11    1    3    3    0    0  0.33528008193E+02 -0.41375777648E+02  0.25439513115E+02  0.59019074348E+02  0.00000000000E+00 0.  1.
<mgrwt>
<rscale>  0 0.22670041E+03</rscale>
<asrwt>0</asrwt>
<pdfrwt beam="1">  1        3 0.20707542E-01 0.22670041E+03</pdfrwt>
<pdfrwt beam="2">  1       -3 0.14685521E-01 0.22670041E+03</pdfrwt>
<totfact> 0.20194601E+03</totfact>
</mgrwt>
</event>
<event>
 6    1  0.1625765E-005  0.2446728E+03  0.7546771E-02  0.1159175E+00
          2   -1    0    0  501    0  0.00000000000E+00  0.00000000000E+00  0.94608666352E+03  0.94608666352E+03  0.00000000000E+00 0. -1.
         -2   -1    0    0    0  501 -0.00000000000E+00 -0.00000000000E+00 -0.30322402402E+02  0.30322402402E+02  0.00000000000E+00 0.  1.
          5    1    1    2  502    0 -0.65847361068E+02  0.10962559874E+03  0.45976824014E+03  0.47724477105E+03  0.47000000000E+01 0. -1.
         -5    1    1    2    0  502 -0.18672043520E+02 -0.91712742334E+02  0.12166675031E+03  0.15357330643E+03  0.47000000000E+01 0.  1.
        -11    1    1    2    0    0  0.14322113607E+02 -0.81164100738E+01  0.55100123639E+02  0.57506718527E+02  0.00000000000E+00 0.  1.
         11    1    1    2    0    0  0.70197290980E+02 -0.97964463284E+01  0.27922914703E+03  0.28808426991E+03  0.00000000000E+00 0. -1.
<mgrwt>
<rscale>  0 0.18921134E+03</rscale>
<asrwt>0</asrwt>
<pdfrwt beam="1">  1        2 0.14555177E+00 0.24467284E+03</pdfrwt>
<pdfrwt beam="2">  1       -2 0.46649857E-02 0.24467284E+03</pdfrwt>
<totfact> 0.61386270E+03</totfact>
</mgrwt>
</event>
<event>
 7    1  0.1330601E-005  0.1280380E+03  0.7546771E-02  0.1244465E+00
          1   -1    0    0  501    0  0.00000000000E+00  0.00000000000E+00  0.26235963660E+03  0.26235963660E+03  0.00000000000E+00 0. -1.
         -1   -1    0    0    0  501 -0.00000000000E+00 -0.00000000000E+00 -0.53038361973E+02  0.53038361973E+02  0.00000000000E+00 0.  1.
         23    2    1    2    0    0  0.13543369180E+02 -0.24193613183E+02  0.13997095649E+03  0.16978478346E+03  0.92012228889E+02 0.  0.
          5    1    1    2  502    0 -0.44710890490E+02  0.44784953344E+02  0.83947066373E+02  0.10523286429E+03  0.47000000000E+01 0.  1.
         -5    1    1    2    0  502  0.31167521309E+02 -0.20591340161E+02 -0.14596748231E+02  0.40380350830E+02  0.47000000000E+01 0.  1.
        -11    1    3    3    0    0  0.52361923151E+02 -0.59568044538E+01  0.68400839734E+02  0.86347723720E+02  0.00000000000E+00 0.  1.
         11    1    3    3    0    0 -0.38818553971E+02 -0.18236808729E+02  0.71570116755E+02  0.83437059736E+02  0.00000000000E+00 0. -1.
<mgrwt>
<rscale>  0 0.11917466E+03</rscale>
<asrwt>0</asrwt>
<pdfrwt beam="1">  1        1 0.40363020E-01 0.12803805E+03</pdfrwt>
<pdfrwt beam="2">  1       -1 0.81597481E-02 0.12803805E+03</pdfrwt>
<totfact> 0.81919267E+03</totfact>
</mgrwt>
</event>
<event>
 7    1  0.1330601E-005  0.1173626E+03  0.7546771E-02  0.1257471E+00
          1   -1    0    0  501    0  0.00000000000E+00  0.00000000000E+00  0.40535538365E+03  0.40535538365E+03  0.00000000000E+00 0. -1.
         -1   -1    0    0    0  501 -0.00000000000E+00 -0.00000000000E+00 -0.28607961507E+02  0.28607961507E+02  0.00000000000E+00 0.  1.
         23    2    1    2    0    0 -0.93150574580E+01 -0.31986655257E+02  0.19749699696E+03  0.21970952290E+03  0.90317740420E+02 0.  0.
          5    1    1    2  502    0 -0.27933950779E+02  0.28582607569E+02  0.17098950971E+03  0.17566096178E+03  0.47000000000E+01 0. -1.
         -5    1    1    2    0  502  0.37249008236E+02  0.34040476877E+01  0.82609154668E+01  0.38592860475E+02  0.47000000000E+01 0.  1.
        -11    1    3    3    0    0 -0.39826752948E+02 -0.32592377143E+01  0.39267163991E+02  0.56024129165E+02  0.00000000000E+00 0. -1.
         11    1    3    3    0    0  0.30511695490E+02 -0.28727417542E+02  0.15822983297E+03  0.16368539374E+03  0.00000000000E+00 0.  1.
<mgrwt>
<rscale>  0 0.11169044E+03</rscale>
<asrwt>0</asrwt>
<pdfrwt beam="1">  1        1 0.62362362E-01 0.11736262E+03</pdfrwt>
<pdfrwt beam="2">  1       -1 0.44012251E-02 0.11736262E+03</pdfrwt>
<totfact> 0.11874635E+04</totfact>
</mgrwt>
</event>
<event>
 7    1  0.1330601E-005  0.1378656E+03  0.7546771E-02  0.1228777E+00
          2   -1    0    0  501    0  0.00000000000E+00  0.00000000000E+00  0.19025223473E+03  0.19025223473E+03  0.00000000000E+00 0. -1.
         -2   -1    0    0    0  501 -0.00000000000E+00 -0.00000000000E+00 -0.80434422064E+02  0.80434422064E+02  0.00000000000E+00 0.  1.
         23    2    1    2    0    0  0.17955754095E+02  0.55311069530E+02  0.70420097566E+02  0.12730221699E+03  0.88685628998E+02 0.  0.
          5    1    1    2  502    0 -0.39787453470E+02 -0.88889392611E+02  0.29400460665E+02  0.10183733431E+03  0.47000000000E+01 0. -1.
         -5    1    1    2    0  502  0.21831699375E+02  0.33578323081E+02  0.99972544297E+01  0.41547105491E+02  0.47000000000E+01 0. -1.
        -11    1    3    3    0    0  0.14777793778E+02  0.71682337315E+02  0.22510798967E+02  0.76573342241E+02  0.00000000000E+00 0.  1.
         11    1    3    3    0    0  0.31779603165E+01 -0.16371267784E+02  0.47909298600E+02  0.50728874746E+02  0.00000000000E+00 0. -1.
<mgrwt>
<rscale>  0 0.12911325E+03</rscale>
<asrwt>0</asrwt>
<pdfrwt beam="1">  1        2 0.29269574E-01 0.13786558E+03</pdfrwt>
<pdfrwt beam="2">  1       -2 0.12374527E-01 0.13786558E+03</pdfrwt>
<totfact> 0.80333930E+03</totfact>
</mgrwt>
</event>
<event>
 7    1  0.1330601E-005  0.1702745E+03  0.7546771E-02  0.1184167E+00
         -3   -1    0    0    0  501 -0.00000000000E+00  0.00000000000E+00  0.49831948677E+03  0.49831948677E+03  0.00000000000E+00 0.  1.
          3   -1    0    0  501    0  0.00000000000E+00 -0.00000000000E+00 -0.57306099886E+02  0.57306099886E+02  0.00000000000E+00 0. -1.
         23    2    1    2    0    0 -0.11214854147E+03 -0.28103474671E+02  0.11022628582E+03  0.18358591892E+03  0.90481240576E+02 0.  0.
          5    1    1    2  502    0  0.49188231553E+02 -0.59176776057E+01  0.20924117868E+02  0.53985273364E+02  0.47000000000E+01 0. -1.
         -5    1    1    2    0  502  0.62960309916E+02  0.34021152277E+02  0.30986298319E+03  0.31805439437E+03  0.47000000000E+01 0. -1.
        -11    1    3    3    0    0 -0.98589724724E+02 -0.42651108597E+02  0.46902733819E+02  0.11721312779E+03  0.00000000000E+00 0. -1.
         11    1    3    3    0    0 -0.13558816746E+02  0.14547633926E+02  0.63323552002E+02  0.66372791131E+02  0.00000000000E+00 0.  1.
<mgrwt>
<rscale>  0 0.16407904E+03</rscale>
<asrwt>0</asrwt>
<pdfrwt beam="2">  1        3 0.88163234E-02 0.17027451E+03</pdfrwt>
<pdfrwt beam="1">  1       -3 0.76664534E-01 0.17027451E+03</pdfrwt>
<totfact> 0.35631908E+02</totfact>
</mgrwt>
</event>
<event>
 7    1  0.1330601E-005  0.1478409E+03  0.7546771E-02  0.1212374E+00
          3   -1    0    0  501    0  0.00000000000E+00  0.00000000000E+00  0.59902621483E+02  0.59902621483E+02  0.00000000000E+00 0. -1.
         -3   -1    0    0    0  501 -0.00000000000E+00 -0.00000000000E+00 -0.30236715825E+03  0.30236715825E+03  0.00000000000E+00 0.  1.
         23    2    1    2    0    0 -0.20736356199E+02  0.76171352337E+02 -0.10863160485E+03  0.16285013540E+03  0.92126378640E+02 0.  0.
          5    1    1    2  502    0  0.50590454030E+02  0.49488552819E+01 -0.16581592345E+02  0.53674243472E+02  0.47000000000E+01 0.  1.
         -5    1    1    2    0  502 -0.29854097831E+02 -0.81120207619E+02 -0.11725133957E+03  0.14574540086E+03  0.47000000000E+01 0.  1.
        -11    1    3    3    0    0 -0.32920893030E+02  0.66159552723E+02 -0.12169325961E+03  0.14237317532E+03  0.00000000000E+00 0.  1.
         11    1    3    3    0    0  0.12184536831E+02  0.10011799614E+02  0.13061654758E+02  0.20476960085E+02  0.00000000000E+00 0. -1.
<mgrwt>
<rscale>  0 0.14071230E+03</rscale>
<asrwt>0</asrwt>
<pdfrwt beam="1">  1        3 0.92157879E-02 0.14784093E+03</pdfrwt>
<pdfrwt beam="2">  1       -3 0.46518025E-01 0.14784093E+03</pdfrwt>
<totfact> 0.91207887E+02</totfact>
</mgrwt>
</event>
<event>
 7    1  0.1330601E-005  0.1412505E+03  0.7546771E-02  0.1232452E+00
          2   -1    0    0  501    0  0.00000000000E+00  0.00000000000E+00  0.42215164710E+02  0.42215164710E+02  0.00000000000E+00 0. -1.
         -2   -1    0    0    0  501 -0.00000000000E+00 -0.00000000000E+00 -0.41065758710E+03  0.41065758710E+03  0.00000000000E+00 0.  1.
         23    2    1    2    0    0  0.89656683664E+00  0.99353744054E+01 -0.49274375771E+02  0.10384562501E+03  0.90864922984E+02 0.  0.
          5    1    1    2  502    0 -0.48162988313E+02 -0.93020606350E+00 -0.32474120473E+02  0.58285480413E+02  0.47000000000E+01 0. -1.
         -5    1    1    2    0  502  0.47266421476E+02 -0.90051683419E+01 -0.28669392615E+03  0.29074164639E+03  0.47000000000E+01 0.  1.
        -11    1    3    3    0    0  0.10288262524E+02  0.42200361248E+02  0.91409003784E+00  0.43445994014E+02  0.00000000000E+00 0. -1.
         11    1    3    3    0    0 -0.93916956873E+01 -0.32264986843E+02 -0.50188465809E+02  0.60399630993E+02  0.00000000000E+00 0.  1.
<mgrwt>
<rscale>  0 0.12668987E+03</rscale>
<asrwt>0</asrwt>
<pdfrwt beam="1">  1        2 0.64946407E-02 0.14125046E+03</pdfrwt>
<pdfrwt beam="2">  1       -2 0.63178091E-01 0.14125046E+03</pdfrwt>
<totfact> 0.25424925E+03</totfact>
</mgrwt>
</event>
<event>
 7    1  0.1330601E-005  0.2369214E+03  0.7546771E-02  0.1124665E+00
          2   -1    0    0  501    0  0.00000000000E+00  0.00000000000E+00  0.12954531793E+04  0.12954531793E+04  0.00000000000E+00 0.  1.
         -2   -1    0    0    0  501 -0.00000000000E+00 -0.00000000000E+00 -0.55408367965E+02  0.55408367965E+02  0.00000000000E+00 0. -1.
         23    2    1    2    0    0 -0.74540003140E+02 -0.18694157996E+03  0.95490137117E+03  0.98013448819E+03  0.91233874749E+02 0.  0.
          5    1    1    2  502    0 -0.28872948342E+02  0.46958870770E+02  0.33335820926E+02  0.64592179455E+02  0.47000000000E+01 0. -1.
         -5    1    1    2    0  502  0.10341295148E+03  0.13998270919E+03  0.25180761921E+03  0.30613487958E+03  0.47000000000E+01 0. -1.
        -11    1    3    3    0    0  0.19893775840E+02 -0.15965910195E+02  0.12187053211E+03  0.12451144206E+03  0.00000000000E+00 0.  1.
         11    1    3    3    0    0 -0.94433778980E+02 -0.17097566976E+03  0.83303083905E+03  0.85562304613E+03  0.00000000000E+00 0. -1.
<mgrwt>
<rscale>  0 0.23282830E+03</rscale>
<asrwt>0</asrwt>
<pdfrwt beam="1">  1        2 0.19930047E+00 0.23692144E+03</pdfrwt>
<pdfrwt beam="2">  1       -2 0.85243653E-02 0.23692144E+03</pdfrwt>
<totfact> 0.15122714E+03</totfact>
</mgrwt>
</event>
<event>
 7    1  0.1330601E-005  0.1590095E+03  0.7546771E-02  0.1197503E+00
         -2   -1    0    0    0  501 -0.00000000000E+00  0.00000000000E+00  0.10945833088E+03  0.10945833088E+03  0.00000000000E+00 0.  1.
          2   -1    0    0  501    0  0.00000000000E+00 -0.00000000000E+00 -0.23246282070E+03  0.23246282070E+03  0.00000000000E+00 0. -1.
         23    2    1    2    0    0  0.98070623731E+02 -0.63736726275E+01 -0.12414565531E+03  0.18290759888E+03  0.91567325256E+02 0.  0.
          5    1    1    2  502    0 -0.71225016855E+02 -0.36852833228E+02  0.44643428165E+02  0.91903536500E+02  0.47000000000E+01 0.  1.
         -5    1    1    2    0  502 -0.26845606875E+02  0.43226505855E+02 -0.43502262672E+02  0.67110016201E+02  0.47000000000E+01 0.  1.
        -11    1    3    3    0    0  0.95176200769E+02 -0.36932569639E+02 -0.82998569037E+02  0.13157236167E+03  0.00000000000E+00 0. -1.
         11    1    3    3    0    0  0.28944229616E+01  0.30558897011E+02 -0.41147086276E+02  0.51335237214E+02  0.00000000000E+00 0.  1.
<mgrwt>
<rscale>  0 0.15244246E+03</rscale>
<asrwt>0</asrwt>
<pdfrwt beam="2">  1        2 0.35763511E-01 0.15900946E+03</pdfrwt>
<pdfrwt beam="1">  1       -2 0.16839743E-01 0.15900946E+03</pdfrwt>
<totfact> 0.39493806E+03</totfact>
</mgrwt>
</event>
<event>
 7    1  0.1330601E-005  0.1365408E+03  0.7546771E-02  0.1229913E+00
         -2   -1    0    0    0  501 -0.00000000000E+00  0.00000000000E+00  0.26629414185E+03  0.26629414185E+03  0.00000000000E+00 0.  1.
          2   -1    0    0  501    0  0.00000000000E+00 -0.00000000000E+00 -0.60983028844E+02  0.60983028844E+02  0.00000000000E+00 0. -1.
         23    2    1    2    0    0  0.19271416320E+02  0.51432596909E+02  0.42506463296E+02  0.11479480596E+03  0.91402125477E+02 0.  0.
          5    1    1    2  502    0 -0.62120144280E+02 -0.34160111282E+02  0.14727473986E+03  0.16351686313E+03  0.47000000000E+01 0. -1.
         -5    1    1    2    0  502  0.42848727960E+02 -0.17272485627E+02  0.15529909856E+02  0.48965501607E+02  0.47000000000E+01 0. -1.
        -11    1    3    3    0    0  0.37041710809E+02  0.70678338373E+02  0.37314191431E+02  0.88090094431E+02  0.00000000000E+00 0.  1.
         11    1    3    3    0    0 -0.17770294489E+02 -0.19245741464E+02  0.51922718653E+01  0.26704711529E+02  0.00000000000E+00 0. -1.
<mgrwt>
<rscale>  0 0.12835772E+03</rscale>
<asrwt>0</asrwt>
<pdfrwt beam="2">  1        2 0.93820046E-02 0.13654084E+03</pdfrwt>
<pdfrwt beam="1">  1       -2 0.40968329E-01 0.13654084E+03</pdfrwt>
<totfact> 0.37760522E+03</totfact>
</mgrwt>
</event>
<event>
 7    1  0.1330601E-005  0.1390811E+03  0.7546771E-02  0.1226066E+00
         -2   -1    0    0    0  501 -0.00000000000E+00  0.00000000000E+00  0.30134310293E+03  0.30134310293E+03  0.00000000000E+00 0.  1.
          2   -1    0    0  501    0  0.00000000000E+00 -0.00000000000E+00 -0.56487048789E+02  0.56487048789E+02  0.00000000000E+00 0. -1.
         23    2    1    2    0    0  0.47330325142E+01 -0.60793301053E+02  0.54580869189E+02  0.12214348613E+03  0.90673771686E+02 0.  0.
          5    1    1    2  502    0  0.19588908272E+02  0.84027975424E+02  0.18086152829E+03  0.20044303030E+03  0.47000000000E+01 0.  1.
         -5    1    1    2    0  502 -0.24321940786E+02 -0.23234674371E+02  0.94136566599E+01  0.35243635290E+02  0.47000000000E+01 0.  1.
        -11    1    3    3    0    0  0.27650268212E+02 -0.26743580602E+02  0.68702191818E+02  0.78738475958E+02  0.00000000000E+00 0.  1.
         11    1    3    3    0    0 -0.22917235698E+02 -0.34049720451E+02 -0.14121322629E+02  0.43405010167E+02  0.00000000000E+00 0. -1.
<mgrwt>
<rscale>  0 0.13094125E+03</rscale>
<asrwt>0</asrwt>
<pdfrwt beam="2">  1        2 0.86903153E-02 0.13908112E+03</pdfrwt>
<pdfrwt beam="1">  1       -2 0.46360477E-01 0.13908112E+03</pdfrwt>
<totfact> 0.32768193E+03</totfact>
</mgrwt>
</event>
<event>
 7    1  0.1330601E-005  0.2961413E+03  0.7546771E-02  0.1088758E+00
         -3   -1    0    0    0  501 -0.00000000000E+00  0.00000000000E+00  0.32777007564E+03  0.32777007564E+03  0.00000000000E+00 0. -1.
          3   -1    0    0  501    0  0.00000000000E+00 -0.00000000000E+00 -0.25676586350E+03  0.25676586350E+03  0.00000000000E+00 0.  1.
         23    2    1    2    0    0  0.11763924301E+03 -0.24131604942E+03  0.37712943517E+02  0.28652923800E+03  0.92759424958E+02 0.  0.
          5    1    1    2  502    0 -0.82138454214E+02  0.11511417007E+03  0.75272683998E+02  0.16026872673E+03  0.47000000000E+01 0.  1.
         -5    1    1    2    0  502 -0.35500788801E+02  0.12620187934E+03 -0.41981415377E+02  0.13773797440E+03  0.47000000000E+01 0.  1.
        -11    1    3    3    0    0  0.76958430395E+02 -0.62568472367E+02 -0.90275907041E+00  0.99187845612E+02  0.00000000000E+00 0.  1.
         11    1    3    3    0    0  0.40680812620E+02 -0.17874757705E+03  0.38615702588E+02  0.18734139239E+03  0.00000000000E+00 0. -1.
<mgrwt>
<rscale>  0 0.29306760E+03</rscale>
<asrwt>0</asrwt>
<pdfrwt beam="2">  1        3 0.39502441E-01 0.29614133E+03</pdfrwt>
<pdfrwt beam="1">  1       -3 0.50426165E-01 0.29614133E+03</pdfrwt>
<totfact> 0.62802815E+01</totfact>
</mgrwt>
</event>
<event>
 7    1  0.1330601E-005  0.1610014E+03  0.7546771E-02  0.1195420E+00
          1   -1    0    0  501    0  0.00000000000E+00  0.00000000000E+00  0.11104048084E+03  0.11104048084E+03  0.00000000000E+00 0. -1.
         -1   -1    0    0    0  501 -0.00000000000E+00 -0.00000000000E+00 -0.20591635999E+03  0.20591635999E+03  0.00000000000E+00 0.  1.
         23    2    1    2    0    0 -0.78297800712E+02  0.64519924184E+02 -0.12221335737E+02  0.13597836208E+03  0.89707233237E+02 0.  0.
          5    1    1    2  502    0  0.36222366415E+02  0.19601609325E+02  0.16144633054E+02  0.44486201156E+02  0.47000000000E+01 0.  1.
         -5    1    1    2    0  502  0.42075434297E+02 -0.84121533508E+02 -0.98799176468E+02  0.13649227759E+03  0.47000000000E+01 0.  1.
        -11    1    3    3    0    0 -0.55882020644E+02  0.60841052289E+02 -0.46543888937E+02  0.94819657626E+02  0.00000000000E+00 0.  1.
         11    1    3    3    0    0 -0.22415780069E+02  0.36788718944E+01  0.34322553201E+02  0.41158704459E+02  0.00000000000E+00 0. -1.
<mgrwt>
<rscale>  0 0.15418755E+03</rscale>
<asrwt>0</asrwt>
<pdfrwt beam="1">  1        1 0.17083151E-01 0.16100135E+03</pdfrwt>
<pdfrwt beam="2">  1       -1 0.31679440E-01 0.16100135E+03</pdfrwt>
<totfact> 0.28451690E+03</totfact>
</mgrwt>
</event>
<event>
 7    1  0.1330601E-005  0.1258072E+03  0.7546771E-02  0.1250811E+00
          2   -1    0    0  501    0  0.00000000000E+00  0.00000000000E+00  0.74988619871E+02  0.74988619871E+02  0.00000000000E+00 0.  1.
         -2   -1    0    0    0  501 -0.00000000000E+00 -0.00000000000E+00 -0.16956146639E+03  0.16956146639E+03  0.00000000000E+00 0. -1.
         23    2    1    2    0    0  0.69497173888E+01 -0.12368384593E+02 -0.35461832547E+01  0.89265471333E+02  0.88059488117E+02 0.  0.
          5    1    1    2  502    0  0.27741894111E+02  0.52532870893E+02 -0.13316580111E+02  0.61063381163E+02  0.47000000000E+01 0. -1.
         -5    1    1    2    0  502 -0.34691611500E+02 -0.40164486301E+02 -0.77710083151E+02  0.94221233762E+02  0.47000000000E+01 0. -1.
        -11    1    3    3    0    0  0.45590952435E+02  0.44867745749E+01 -0.92146465471E+01  0.46728747052E+02  0.00000000000E+00 0. -1.
         11    1    3    3    0    0 -0.38641235047E+02 -0.16855159168E+02  0.56684632924E+01  0.42536724281E+02  0.00000000000E+00 0.  1.
<mgrwt>
<rscale>  0 0.11544213E+03</rscale>
<asrwt>0</asrwt>
<pdfrwt beam="1">  1        2 0.11536711E-01 0.12580723E+03</pdfrwt>
<pdfrwt beam="2">  1       -2 0.26086379E-01 0.12580723E+03</pdfrwt>
<totfact> 0.66474305E+03</totfact>
</mgrwt>
</event>
<event>
 7    1  0.1330601E-005  0.1373697E+03  0.7546771E-02  0.1231010E+00
          1   -1    0    0  501    0  0.00000000000E+00  0.00000000000E+00  0.32247022261E+03  0.32247022261E+03  0.00000000000E+00 0. -1.
         -1   -1    0    0    0  501 -0.00000000000E+00 -0.00000000000E+00 -0.45098354418E+02  0.45098354418E+02  0.00000000000E+00 0.  1.
         23    2    1    2    0    0  0.42523288005E+02  0.37919149341E+02  0.13855774753E+03  0.17227442300E+03  0.85053721322E+02 0.  0.
          5    1    1    2  502    0  0.26097040542E+02 -0.29922664663E+02  0.11550965226E+03  0.12223334713E+03  0.47000000000E+01 0. -1.
         -5    1    1    2    0  502 -0.68620328547E+02 -0.79964846776E+01  0.23304468406E+02  0.73060806899E+02  0.47000000000E+01 0. -1.
        -11    1    3    3    0    0 -0.78906961165E+00  0.12779031246E+02 -0.95216765536E+01  0.15955832627E+02  0.00000000000E+00 0.  1.
         11    1    3    3    0    0  0.43312357617E+02  0.25140118095E+02  0.14807942408E+03  0.15631859037E+03  0.00000000000E+00 0. -1.
<mgrwt>
<rscale>  0 0.12763349E+03</rscale>
<asrwt>0</asrwt>
<pdfrwt beam="1">  1        1 0.49610802E-01 0.13736974E+03</pdfrwt>
<pdfrwt beam="2">  1       -1 0.69382086E-02 0.13736974E+03</pdfrwt>
<totfact> 0.81407272E+03</totfact>
</mgrwt>
</event>
<event>
 7    1  0.1330601E-005  0.1815427E+03  0.7546771E-02  0.1171782E+00
          1   -1    0    0  501    0  0.00000000000E+00  0.00000000000E+00  0.89414154021E+02  0.89414154021E+02  0.00000000000E+00 0.  1.
         -1   -1    0    0    0  501 -0.00000000000E+00 -0.00000000000E+00 -0.33183672149E+03  0.33183672149E+03  0.00000000000E+00 0. -1.
         23    2    1    2    0    0 -0.11928360224E+03 -0.55687823486E+02 -0.87104979123E+02  0.18233395347E+03  0.91261611602E+02 0.  0.
          5    1    1    2  502    0  0.92394837907E+02  0.57508227280E+01 -0.23927760642E+02  0.95731425161E+02  0.47000000000E+01 0.  1.
         -5    1    1    2    0  502  0.26888764335E+02  0.49937000758E+02 -0.13138982770E+03  0.14318549688E+03  0.47000000000E+01 0.  1.
        -11    1    3    3    0    0 -0.56329800594E+02 -0.64255955112E+02 -0.15923070776E+02  0.86921909697E+02  0.00000000000E+00 0.  1.
         11    1    3    3    0    0 -0.62953801648E+02  0.85681316262E+01 -0.71181908347E+02  0.95412043776E+02  0.00000000000E+00 0. -1.
<mgrwt>
<rscale>  0 0.17594937E+03</rscale>
<asrwt>0</asrwt>
<pdfrwt beam="1">  1        1 0.13756024E-01 0.18154267E+03</pdfrwt>
<pdfrwt beam="2">  1       -1 0.51051803E-01 0.18154267E+03</pdfrwt>
<totfact> 0.16303341E+03</totfact>
</mgrwt>
</event>
<event>
 7    1  0.1330601E-005  0.4777568E+03  0.7546771E-02  0.1020283E+00
          2   -1    0    0  501    0  0.00000000000E+00  0.00000000000E+00  0.67737001131E+03  0.67737001131E+03  0.00000000000E+00 0.  1.
         -2   -1    0    0    0  501 -0.00000000000E+00 -0.00000000000E+00 -0.35989621735E+03  0.35989621735E+03  0.00000000000E+00 0. -1.
         23    2    1    2    0    0 -0.95412197422E+00 -0.46111563790E+03  0.30290698806E+03  0.55928743002E+03  0.91767336757E+02 0.  0.
          5    1    1    2  502    0  0.19779208451E+01  0.37186892040E+03  0.61618570995E+02  0.37697393070E+03  0.47000000000E+01 0. -1.
         -5    1    1    2    0  502 -0.10237988709E+01  0.89246717498E+02 -0.47051765105E+02  0.10100486794E+03  0.47000000000E+01 0. -1.
        -11    1    3    3    0    0 -0.22033719514E+02 -0.29180216624E+03  0.23629766593E+03  0.37612574485E+03  0.00000000000E+00 0.  1.
         11    1    3    3    0    0  0.21079597539E+02 -0.16931347166E+03  0.66609322136E+02  0.18316168517E+03  0.00000000000E+00 0. -1.
<mgrwt>
<rscale>  0 0.47584598E+03</rscale>
<asrwt>0</asrwt>
<pdfrwt beam="1">  1        2 0.10421077E+00 0.47775678E+03</pdfrwt>
<pdfrwt beam="2">  1       -2 0.55368649E-01 0.47775678E+03</pdfrwt>
<totfact> 0.13484889E+02</totfact>
</mgrwt>
</event>
<event>
 7    1  0.1330601E-005  0.1845606E+03  0.7546771E-02  0.1168502E+00
          2   -1    0    0  501    0  0.00000000000E+00  0.00000000000E+00  0.62380282599E+03  0.62380282599E+03  0.00000000000E+00 0. -1.
         -2   -1    0    0    0  501 -0.00000000000E+00 -0.00000000000E+00 -0.48783920919E+02  0.48783920919E+02  0.00000000000E+00 0.  1.
         23    2    1    2    0    0 -0.11122181258E+03  0.77895474191E+02  0.27255078786E+03  0.31825697645E+03  0.92550389508E+02 0.  0.
          5    1    1    2  502    0 -0.14026125185E+02  0.19438404762E+02  0.26907277480E+02  0.36341097243E+02  0.47000000000E+01 0.  1.
         -5    1    1    2    0  502  0.12524793776E+03 -0.97333878954E+02  0.27556083973E+03  0.31798867323E+03  0.47000000000E+01 0.  1.
        -11    1    3    3    0    0 -0.37806206885E+02 -0.84807577086E+01  0.25346472636E+02  0.46299851030E+02  0.00000000000E+00 0.  1.
         11    1    3    3    0    0 -0.73415605695E+02  0.86376231900E+02  0.24720431523E+03  0.27195712542E+03  0.00000000000E+00 0. -1.
<mgrwt>
<rscale>  0 0.17928004E+03</rscale>
<asrwt>0</asrwt>
<pdfrwt beam="1">  1        2 0.95969660E-01 0.18456063E+03</pdfrwt>
<pdfrwt beam="2">  1       -2 0.75052190E-02 0.18456063E+03</pdfrwt>
<totfact> 0.49422713E+03</totfact>
</mgrwt>
</event>
<event>
 7    1  0.1330601E-005  0.1553480E+03  0.7546771E-02  0.1202487E+00
         -1   -1    0    0    0  501 -0.00000000000E+00  0.00000000000E+00  0.11539217798E+03  0.11539217798E+03  0.00000000000E+00 0.  1.
          1   -1    0    0  501    0  0.00000000000E+00 -0.00000000000E+00 -0.53424257449E+03  0.53424257449E+03  0.00000000000E+00 0. -1.
         23    2    1    2    0    0  0.67900263172E+02 -0.62766416586E+02 -0.46892403920E+03  0.48641595106E+03  0.90336338821E+02 0.  0.
          5    1    1    2  502    0  0.18668920207E+02 -0.24728049131E+02  0.17137890748E+02  0.35718374750E+02  0.47000000000E+01 0.  1.
         -5    1    1    2    0  502 -0.86569183379E+02  0.87494465717E+02  0.32935751946E+02  0.12750042666E+03  0.47000000000E+01 0.  1.
        -11    1    3    3    0    0 -0.15346325115E+02 -0.38065629062E+02 -0.11900021110E+03  0.12587911683E+03  0.00000000000E+00 0.  1.
         11    1    3    3    0    0  0.83246588287E+02 -0.24700787524E+02 -0.34992382810E+03  0.36053683423E+03  0.00000000000E+00 0. -1.
<mgrwt>
<rscale>  0 0.14837260E+03</rscale>
<asrwt>0</asrwt>
<pdfrwt beam="2">  1        1 0.82191163E-01 0.15534802E+03</pdfrwt>
<pdfrwt beam="1">  1       -1 0.17752643E-01 0.15534802E+03</pdfrwt>
<totfact> 0.10103461E+03</totfact>
</mgrwt>
</event>
<event>
 7    1  0.1330601E-005  0.1654411E+03  0.7546771E-02  0.1189569E+00
          2   -1    0    0  501    0  0.00000000000E+00  0.00000000000E+00  0.14430066460E+03  0.14430066460E+03  0.00000000000E+00 0. -1.
         -2   -1    0    0    0  501 -0.00000000000E+00 -0.00000000000E+00 -0.20539215915E+03  0.20539215915E+03  0.00000000000E+00 0.  1.
         23    2    1    2    0    0  0.87310555750E+02 -0.64219214909E+02  0.49893711933E+02  0.15047319513E+03  0.91681837092E+02 0.  0.
          5    1    1    2  502    0  0.81725962440E+01 -0.18750709649E+01  0.21157528333E+02  0.23238722548E+02  0.47000000000E+01 0.  1.
         -5    1    1    2    0  502 -0.95483151994E+02  0.66094285874E+02 -0.13214273481E+03  0.17598090608E+03  0.47000000000E+01 0.  1.
        -11    1    3    3    0    0  0.77087665728E+02 -0.37488465759E+02  0.73854912914E+02  0.11314787419E+03  0.00000000000E+00 0. -1.
         11    1    3    3    0    0  0.10222890021E+02 -0.26730749150E+02 -0.23961200982E+02  0.37325320936E+02  0.00000000000E+00 0.  1.
<mgrwt>
<rscale>  0 0.15922982E+03</rscale>
<asrwt>0</asrwt>
<pdfrwt beam="1">  1        2 0.22200102E-01 0.16544106E+03</pdfrwt>
<pdfrwt beam="2">  1       -2 0.31598794E-01 0.16544106E+03</pdfrwt>
<totfact> 0.22388418E+03</totfact>
</mgrwt>
</event>
<event>
 7    1  0.1330601E-005  0.2088974E+03  0.7546771E-02  0.1146191E+00
         -1   -1    0    0    0  501 -0.00000000000E+00  0.00000000000E+00  0.14292562702E+04  0.14292562702E+04  0.00000000000E+00 0.  1.
          1   -1    0    0  501    0  0.00000000000E+00 -0.00000000000E+00 -0.33680433876E+02  0.33680433876E+02  0.00000000000E+00 0. -1.
         23    2    1    2    0    0  0.41894685088E+02 -0.16204641152E+03  0.37080926066E+03  0.41709510525E+03  0.91948979942E+02 0.  0.
          5    1    1    2  502    0 -0.54957045233E+02  0.51207442153E+02  0.66203781870E+03  0.66630221547E+03  0.47000000000E+01 0. -1.
         -5    1    1    2    0  502  0.13062360145E+02  0.11083896937E+03  0.36272875693E+03  0.37953938331E+03  0.47000000000E+01 0. -1.
        -11    1    3    3    0    0  0.43293417677E+02 -0.93609805021E+02  0.30568082731E+03  0.32261104103E+03  0.00000000000E+00 0.  1.
         11    1    3    3    0    0 -0.13987325887E+01 -0.68436606498E+02  0.65128433349E+02  0.94484064225E+02  0.00000000000E+00 0. -1.
<mgrwt>
<rscale>  0 0.20426312E+03</rscale>
<asrwt>0</asrwt>
<pdfrwt beam="2">  1        1 0.51816063E-02 0.20889738E+03</pdfrwt>
<pdfrwt beam="1">  1       -1 0.21988553E+00 0.20889738E+03</pdfrwt>
<totfact> 0.19657172E+02</totfact>
</mgrwt>
</event>
<event>
 7    1  0.1330601E-005  0.1831189E+03  0.7546771E-02  0.1168178E+00
          1   -1    0    0  501    0  0.00000000000E+00  0.00000000000E+00  0.30905077531E+03  0.30905077531E+03  0.00000000000E+00 0. -1.
         -1   -1    0    0    0  501 -0.00000000000E+00 -0.00000000000E+00 -0.11376135153E+03  0.11376135153E+03  0.00000000000E+00 0.  1.
         23    2    1    2    0    0 -0.17469081882E+02 -0.14182487098E+03  0.16622827207E+03  0.23740150388E+03  0.91149178589E+02 0.  0.
          5    1    1    2  502    0 -0.35708549537E+02  0.33245022475E+02 -0.22445992677E+02  0.53909596703E+02  0.47000000000E+01 0. -1.
         -5    1    1    2    0  502  0.53177631419E+02  0.10857984851E+03  0.51507144382E+02  0.13150102626E+03  0.47000000000E+01 0.  1.
        -11    1    3    3    0    0  0.30275798876E+02 -0.72437611502E+02  0.47263695092E+02  0.91638902391E+02  0.00000000000E+00 0. -1.
         11    1    3    3    0    0 -0.47744880758E+02 -0.69387259482E+02  0.11896457698E+03  0.14576260149E+03  0.00000000000E+00 0.  1.
<mgrwt>
<rscale>  0 0.17961287E+03</rscale>
<asrwt>0</asrwt>
<pdfrwt beam="1">  1        1 0.47546273E-01 0.18311895E+03</pdfrwt>
<pdfrwt beam="2">  1       -1 0.17501747E-01 0.18311895E+03</pdfrwt>
<totfact> 0.20873138E+03</totfact>
</mgrwt>
</event>
<event>
 7    1  0.1330601E-005  0.1317448E+03  0.7546771E-02  0.1236484E+00
         -1   -1    0    0    0  501 -0.00000000000E+00  0.00000000000E+00  0.99912423510E+02  0.99912423510E+02  0.00000000000E+00 0.  1.
          1   -1    0    0  501    0  0.00000000000E+00 -0.00000000000E+00 -0.25293625243E+03  0.25293625243E+03  0.00000000000E+00 0. -1.
         23    2    1    2    0    0 -0.35683920087E+02 -0.21420484402E+02 -0.18960353814E+03  0.21611987413E+03  0.95005889368E+02 0.  0.
          5    1    1    2  502    0 -0.51939254097E+01 -0.48259153338E+02  0.22226306697E+01  0.48815497838E+02  0.47000000000E+01 0.  1.
         -5    1    1    2    0  502  0.40877845497E+02  0.69679637739E+02  0.34357078554E+02  0.87913303969E+02  0.47000000000E+01 0.  1.
        -11    1    3    3    0    0 -0.62003842598E+02 -0.26598008259E+02 -0.16999127826E+03  0.18289058266E+03  0.00000000000E+00 0. -1.
         11    1    3    3    0    0  0.26319922511E+02  0.51775238569E+01 -0.19612259880E+02  0.33229291474E+02  0.00000000000E+00 0.  1.
<mgrwt>
<rscale>  0 0.12409893E+03</rscale>
<asrwt>0</asrwt>
<pdfrwt beam="2">  1        1 0.38913269E-01 0.13174479E+03</pdfrwt>
<pdfrwt beam="1">  1       -1 0.15371142E-01 0.13174479E+03</pdfrwt>
<totfact> 0.32462146E+03</totfact>
</mgrwt>
</event>
<event>
 7    1  0.1330601E-005  0.1891778E+03  0.7546771E-02  0.1164008E+00
          2   -1    0    0  501    0  0.00000000000E+00  0.00000000000E+00  0.41192691742E+03  0.41192691742E+03  0.00000000000E+00 0. -1.
         -2   -1    0    0    0  501 -0.00000000000E+00 -0.00000000000E+00 -0.78089631229E+02  0.78089631229E+02  0.00000000000E+00 0.  1.
         23    2    1    2    0    0  0.13795191508E+03  0.33668880549E+02  0.16776726492E+03  0.23828751622E+03  0.92036736211E+02 0.  0.
          5    1    1    2  502    0 -0.31181115273E+02  0.42707130603E+02  0.24073029206E+02  0.58290322431E+02  0.47000000000E+01 0.  1.
         -5    1    1    2    0  502 -0.10677079981E+03 -0.76376011152E+02  0.14199699206E+03  0.19343871000E+03  0.47000000000E+01 0.  1.
        -11    1    3    3    0    0  0.14742958262E+03  0.25833793883E+02  0.12892850313E+03  0.19754854000E+03  0.00000000000E+00 0.  1.
         11    1    3    3    0    0 -0.94776675396E+01  0.78350866659E+01  0.38838761798E+02  0.40738976215E+02  0.00000000000E+00 0. -1.
<mgrwt>
<rscale>  0 0.18397762E+03</rscale>
<asrwt>0</asrwt>
<pdfrwt beam="1">  1        2 0.63373371E-01 0.18917784E+03</pdfrwt>
<pdfrwt beam="2">  1       -2 0.12013790E-01 0.18917784E+03</pdfrwt>
<totfact> 0.37442541E+03</totfact>
</mgrwt>
</event>
<event>
 7    1  0.1330601E-005  0.1596901E+03  0.7546771E-02  0.1196193E+00
         -2   -1    0    0    0  501 -0.00000000000E+00  0.00000000000E+00  0.56388184536E+02  0.56388184536E+02  0.00000000000E+00 0.  1.
          2   -1    0    0  501    0  0.00000000000E+00 -0.00000000000E+00 -0.39111533494E+03  0.39111533494E+03  0.00000000000E+00 0. -1.
         23    2    1    2    0    0  0.11562771806E+02 -0.98710466370E+02 -0.13734112662E+03  0.19360952465E+03  0.93512614718E+02 0.  0.
          5    1    1    2  502    0 -0.27506269065E+01  0.30660317617E+02 -0.18037385071E+03  0.18304217286E+03  0.47000000000E+01 0.  1.
         -5    1    1    2    0  502 -0.88121448991E+01  0.68050148754E+02 -0.17012173074E+02  0.70851821965E+02  0.47000000000E+01 0.  1.
        -11    1    3    3    0    0  0.25509413281E+02  0.82513940854E+01 -0.40968584521E+02  0.48961623625E+02  0.00000000000E+00 0. -1.
         11    1    3    3    0    0 -0.13946641476E+02 -0.10696186046E+03 -0.96372542095E+02  0.14464790102E+03  0.00000000000E+00 0.  1.
<mgrwt>
<rscale>  0 0.15353660E+03</rscale>
<asrwt>0</asrwt>
<pdfrwt beam="2">  1        2 0.60171590E-01 0.15969007E+03</pdfrwt>
<pdfrwt beam="1">  1       -2 0.86751052E-02 0.15969007E+03</pdfrwt>
<totfact> 0.65763656E+03</totfact>
</mgrwt>
</event>
<event>
 7    1  0.1330601E-005  0.2685874E+03  0.7546771E-02  0.1105447E+00
         -1   -1    0    0    0  501 -0.00000000000E+00  0.00000000000E+00  0.86547006012E+02  0.86547006012E+02  0.00000000000E+00 0.  1.
          1   -1    0    0  501    0  0.00000000000E+00 -0.00000000000E+00 -0.79397780038E+03  0.79397780038E+03  0.00000000000E+00 0. -1.
         23    2    1    2    0    0  0.10384369070E+03 -0.21384593024E+03 -0.42168487957E+03  0.48836419470E+03  0.64558926821E+02 0.  0.
          5    1    1    2  502    0  0.84619801106E+01  0.56741129795E+01 -0.73422314889E+02  0.74274672595E+02  0.47000000000E+01 0. -1.
         -5    1    1    2    0  502 -0.11230567081E+03  0.20817181726E+03 -0.21232359992E+03  0.31788593910E+03  0.47000000000E+01 0. -1.
        -11    1    3    3    0    0  0.67691151511E+02 -0.10189047091E+03 -0.15961820726E+03  0.20110129822E+03  0.00000000000E+00 0.  1.
         11    1    3    3    0    0  0.36152539191E+02 -0.11195545933E+03 -0.26206667230E+03  0.28726289648E+03  0.00000000000E+00 0. -1.
<mgrwt>
<rscale>  0 0.26284292E+03</rscale>
<asrwt>0</asrwt>
<pdfrwt beam="2">  1        1 0.12215043E+00 0.26858745E+03</pdfrwt>
<pdfrwt beam="1">  1       -1 0.13314924E-01 0.26858745E+03</pdfrwt>
<totfact> 0.90808110E+02</totfact>
</mgrwt>
</event>
<event>
 7    1  0.1330601E-005  0.1318994E+03  0.7546771E-02  0.1232642E+00
          1   -1    0    0  501    0  0.00000000000E+00  0.00000000000E+00  0.53537952359E+02  0.53537952359E+02  0.00000000000E+00 0. -1.
         -1   -1    0    0    0  501 -0.00000000000E+00 -0.00000000000E+00 -0.27932809302E+03  0.27932809302E+03  0.00000000000E+00 0.  1.
         23    2    1    2    0    0 -0.25754272683E+02 -0.33291284057E+02 -0.89814147593E+02  0.14342763016E+03  0.10360169801E+03 0.  0.
          5    1    1    2  502    0 -0.26976928334E+02  0.64103910124E+02 -0.83563891154E+02  0.10882132080E+03  0.47000000000E+01 0.  1.
         -5    1    1    2    0  502  0.52731201017E+02 -0.30812626067E+02 -0.52412101916E+02  0.80617094422E+02  0.47000000000E+01 0.  1.
        -11    1    3    3    0    0 -0.52028127289E+02 -0.39503215071E+02 -0.19601232542E+02  0.68202920372E+02  0.00000000000E+00 0.  1.
         11    1    3    3    0    0  0.26273854607E+02  0.62119310140E+01 -0.70212915052E+02  0.75224709789E+02  0.00000000000E+00 0. -1.
<mgrwt>
<rscale>  0 0.12656601E+03</rscale>
<asrwt>0</asrwt>
<pdfrwt beam="1">  1        1 0.82366080E-02 0.13189936E+03</pdfrwt>
<pdfrwt beam="2">  1       -1 0.42973553E-01 0.13189936E+03</pdfrwt>
<totfact> 0.43294264E+03</totfact>
</mgrwt>
</event>
<event>
 7    1  0.1330601E-005  0.1697477E+03  0.7546771E-02  0.1185596E+00
          1   -1    0    0  501    0  0.00000000000E+00  0.00000000000E+00  0.36594695728E+03  0.36594695728E+03  0.00000000000E+00 0. -1.
         -1   -1    0    0    0  501 -0.00000000000E+00 -0.00000000000E+00 -0.12070897902E+03  0.12070897902E+03  0.00000000000E+00 0.  1.
         23    2    1    2    0    0 -0.45971230084E+02 -0.10519998747E+03  0.27883809651E+03  0.31361479170E+03  0.86157774739E+02 0.  0.
          5    1    1    2  502    0  0.74394445430E+02  0.10996649767E+03 -0.46991001845E+02  0.14091631692E+03  0.47000000000E+01 0. -1.
         -5    1    1    2    0  502 -0.28423215346E+02 -0.47665102014E+01  0.13390883592E+02  0.32124827680E+02  0.47000000000E+01 0. -1.
        -11    1    3    3    0    0 -0.22129534188E+02  0.75004490551E+01  0.84786288284E+02  0.87947073291E+02  0.00000000000E+00 0. -1.
         11    1    3    3    0    0 -0.23841695896E+02 -0.11270043652E+03  0.19405180823E+03  0.22566771841E+03  0.00000000000E+00 0.  1.
<mgrwt>
<rscale>  0 0.16277797E+03</rscale>
<asrwt>0</asrwt>
<pdfrwt beam="1">  1        1 0.56299532E-01 0.16974767E+03</pdfrwt>
<pdfrwt beam="2">  1       -1 0.18570612E-01 0.16974767E+03</pdfrwt>
<totfact> 0.15325748E+03</totfact>
</mgrwt>
</event>
<event>
 7    1  0.1330601E-005  0.1804936E+03  0.7546771E-02  0.1175447E+00
         -2   -1    0    0    0  501 -0.00000000000E+00  0.00000000000E+00  0.31642827076E+03  0.31642827076E+03  0.00000000000E+00 0.  1.
          2   -1    0    0  501    0  0.00000000000E+00 -0.00000000000E+00 -0.95656454046E+02  0.95656454046E+02  0.00000000000E+00 0. -1.
         23    2    1    2    0    0  0.62097623508E+02  0.11444696137E+03  0.36917039802E+02  0.15444056819E+03  0.74396232850E+02 0.  0.
          5    1    1    2  502    0 -0.42451989925E+02  0.17731765876E+02  0.56176069785E+02  0.72762818707E+02  0.47000000000E+01 0.  1.
         -5    1    1    2    0  502 -0.19645633582E+02 -0.13217872724E+03  0.12767870712E+03  0.18488133791E+03  0.47000000000E+01 0.  1.
        -11    1    3    3    0    0  0.39412789470E+02  0.30142359397E+02 -0.16263384748E+02  0.52215203603E+02  0.00000000000E+00 0. -1.
         11    1    3    3    0    0  0.22684834038E+02  0.84304601970E+02  0.53180424550E+02  0.10222536458E+03  0.00000000000E+00 0.  1.
<mgrwt>
<rscale>  0 0.17232276E+03</rscale>
<asrwt>0</asrwt>
<pdfrwt beam="2">  1        2 0.14716378E-01 0.18049358E+03</pdfrwt>
<pdfrwt beam="1">  1       -2 0.48681272E-01 0.18049358E+03</pdfrwt>
<totfact> 0.15902333E+03</totfact>
</mgrwt>
</event>
<event>
 7    1  0.1330601E-005  0.1612722E+03  0.7546771E-02  0.1195683E+00
          2   -1    0    0  501    0  0.00000000000E+00  0.00000000000E+00  0.13986075345E+03  0.13986075345E+03  0.00000000000E+00 0. -1.
         -2   -1    0    0    0  501 -0.00000000000E+00 -0.00000000000E+00 -0.20304585749E+03  0.20304585749E+03  0.00000000000E+00 0.  1.
         23    2    1    2    0    0  0.80214851187E+02  0.62835000332E+02  0.53067846868E+02  0.14410151724E+03  0.86985006077E+02 0.  0.
          5    1    1    2  502    0  0.15153823865E+02 -0.48745969961E+02 -0.49796718423E+01  0.51504321147E+02  0.47000000000E+01 0.  1.
         -5    1    1    2    0  502 -0.95368675052E+02 -0.14089030371E+02 -0.11127327907E+03  0.14730077255E+03  0.47000000000E+01 0.  1.
        -11    1    3    3    0    0  0.61158303527E+02  0.33823731074E+01  0.54008862340E+02  0.81662327602E+02  0.00000000000E+00 0. -1.
         11    1    3    3    0    0  0.19056547659E+02  0.59452627225E+02 -0.94101547143E+00  0.62439189638E+02  0.00000000000E+00 0.  1.
<mgrwt>
<rscale>  0 0.15396598E+03</rscale>
<asrwt>0</asrwt>
<pdfrwt beam="1">  1        2 0.21517039E-01 0.16127218E+03</pdfrwt>
<pdfrwt beam="2">  1       -2 0.31237824E-01 0.16127218E+03</pdfrwt>
<totfact> 0.23654397E+03</totfact>
</mgrwt>
</event>
<event>
 7    1  0.1330601E-005  0.1356975E+03  0.7546771E-02  0.1231168E+00
          2   -1    0    0  501    0  0.00000000000E+00  0.00000000000E+00  0.70571173900E+03  0.70571173900E+03  0.00000000000E+00 0. -1.
         -2   -1    0    0    0  501 -0.00000000000E+00 -0.00000000000E+00 -0.20980689544E+02  0.20980689544E+02  0.00000000000E+00 0.  1.
         23    2    1    2    0    0 -0.34112661470E+02 -0.40248166840E+02  0.25686051530E+03  0.27781937649E+03  0.91775231007E+02 0.  0.
          5    1    1    2  502    0  0.69846615600E+02 -0.71588286647E+01  0.16568686817E+03  0.18001118527E+03  0.47000000000E+01 0.  1.
         -5    1    1    2    0  502 -0.35733954131E+02  0.47406995505E+02  0.26218366599E+03  0.26886186679E+03  0.47000000000E+01 0.  1.
        -11    1    3    3    0    0  0.89234067211E+01 -0.49946065325E+02  0.74070695879E+02  0.89781426904E+02  0.00000000000E+00 0.  1.
         11    1    3    3    0    0 -0.43036068191E+02  0.96978984845E+01  0.18278981942E+03  0.18803794959E+03  0.00000000000E+00 0. -1.
<mgrwt>
<rscale>  0 0.12752980E+03</rscale>
<asrwt>0</asrwt>
<pdfrwt beam="1">  1        2 0.10857102E+00 0.13569754E+03</pdfrwt>
<pdfrwt beam="2">  1       -2 0.32277989E-02 0.13569754E+03</pdfrwt>
<totfact> 0.14990736E+04</totfact>
</mgrwt>
</event>
<event>
 7    1  0.1330601E-005  0.1501164E+03  0.7546771E-02  0.1208885E+00
          2   -1    0    0  501    0  0.00000000000E+00  0.00000000000E+00  0.59299184009E+03  0.59299184009E+03  0.00000000000E+00 0. -1.
         -2   -1    0    0    0  501 -0.00000000000E+00 -0.00000000000E+00 -0.32667386241E+02  0.32667386241E+02  0.00000000000E+00 0.  1.
         23    2    1    2    0    0 -0.80308407329E+02 -0.21451747413E+02  0.30361135472E+03  0.32827641316E+03  0.93144677594E+02 0.  0.
          5    1    1    2  502    0  0.42609357149E+02 -0.27962681690E+02  0.24115406276E+02  0.56578367808E+02  0.47000000000E+01 0. -1.
         -5    1    1    2    0  502  0.37699050180E+02  0.49414429103E+02  0.23259769285E+03  0.24080444537E+03  0.47000000000E+01 0. -1.
        -11    1    3    3    0    0 -0.13968748655E+02 -0.42689517111E+02  0.60299100999E+02  0.75189775844E+02  0.00000000000E+00 0.  1.
         11    1    3    3    0    0 -0.66339658674E+02  0.21237769698E+02  0.24331225372E+03  0.25308663731E+03  0.00000000000E+00 0. -1.
<mgrwt>
<rscale>  0 0.14335449E+03</rscale>
<asrwt>0</asrwt>
<pdfrwt beam="1">  1        2 0.91229506E-01 0.15011636E+03</pdfrwt>
<pdfrwt beam="2">  1       -2 0.50257522E-02 0.15011636E+03</pdfrwt>
<totfact> 0.95592567E+03</totfact>
</mgrwt>
</event>
<event>
 7    1  0.1330601E-005  0.1295166E+03  0.7546771E-02  0.1245597E+00
         -2   -1    0    0    0  501 -0.00000000000E+00  0.00000000000E+00  0.11251918912E+03  0.11251918912E+03  0.00000000000E+00 0.  1.
          2   -1    0    0  501    0  0.00000000000E+00 -0.00000000000E+00 -0.11243108013E+03  0.11243108013E+03  0.00000000000E+00 0. -1.
         23    2    1    2    0    0  0.20238466382E+02  0.27278386002E+02 -0.22451479140E+02  0.93486993714E+02  0.84154876352E+02 0.  0.
          5    1    1    2  502    0 -0.52552075473E+01 -0.65792470509E+02 -0.22751912438E+02  0.69971464910E+02  0.47000000000E+01 0. -1.
         -5    1    1    2    0  502 -0.14983258835E+02  0.38514084508E+02  0.45291500567E+02  0.61491810628E+02  0.47000000000E+01 0. -1.
        -11    1    3    3    0    0 -0.20934783713E+02  0.21098080295E+02  0.18563936216E+02  0.35043029108E+02  0.00000000000E+00 0.  1.
         11    1    3    3    0    0  0.41173250095E+02  0.61803057070E+01 -0.41015415356E+02  0.58443964606E+02  0.00000000000E+00 0. -1.
<mgrwt>
<rscale>  0 0.11849692E+03</rscale>
<asrwt>0</asrwt>
<pdfrwt beam="2">  1        2 0.17297089E-01 0.12951664E+03</pdfrwt>
<pdfrwt beam="1">  1       -2 0.17310644E-01 0.12951664E+03</pdfrwt>
<totfact> 0.83221164E+03</totfact>
</mgrwt>
</event>
<event>
 7    1  0.1330601E-005  0.1276620E+03  0.7546771E-02  0.1245898E+00
          2   -1    0    0  501    0  0.00000000000E+00  0.00000000000E+00  0.16778503017E+03  0.16778503017E+03  0.00000000000E+00 0. -1.
         -2   -1    0    0    0  501 -0.00000000000E+00 -0.00000000000E+00 -0.29209978152E+03  0.29209978152E+03  0.00000000000E+00 0.  1.
         23    2    1    2    0    0 -0.46617974958E+01  0.25182680852E+02  0.13862147032E+03  0.16759548920E+03  0.90644559657E+02 0.  0.
          5    1    1    2  502    0 -0.22462279130E+02 -0.25564567754E+02 -0.72314844174E+01  0.35106772495E+02  0.47000000000E+01 0. -1.
         -5    1    1    2    0  502  0.27124076625E+02  0.38188690208E+00 -0.25570473725E+03  0.25718255000E+03  0.47000000000E+01 0. -1.
        -11    1    3    3    0    0 -0.19823083438E+02  0.51408448319E+02  0.51735243026E+02  0.75579882022E+02  0.00000000000E+00 0.  1.
         11    1    3    3    0    0  0.15161285943E+02 -0.26225767467E+02  0.86886227295E+02  0.92015607177E+02  0.00000000000E+00 0. -1.
<mgrwt>
<rscale>  0 0.11831806E+03</rscale>
<asrwt>0</asrwt>
<pdfrwt beam="1">  1        2 0.25813082E-01 0.12766202E+03</pdfrwt>
<pdfrwt beam="2">  1       -2 0.44938427E-01 0.12766202E+03</pdfrwt>
<totfact> 0.96956814E+02</totfact>
</mgrwt>
</event>
<event>
 7    1  0.1330601E-005  0.1555206E+03  0.7546771E-02  0.1202396E+00
          1   -1    0    0  501    0  0.00000000000E+00  0.00000000000E+00  0.10547546602E+04  0.10547546602E+04  0.00000000000E+00 0. -1.
         -1   -1    0    0    0  501 -0.00000000000E+00 -0.00000000000E+00 -0.21024688277E+02  0.21024688277E+02  0.00000000000E+00 0.  1.
         23    2    1    2    0    0  0.70117424082E+02 -0.60365158670E+02  0.63086721181E+03  0.64394017941E+03  0.90028385395E+02 0.  0.
          5    1    1    2  502    0 -0.35936202121E+02 -0.29904597817E+02  0.22052393064E+03  0.22547414393E+03  0.47000000000E+01 0. -1.
         -5    1    1    2    0  502 -0.34181221962E+02  0.90269756487E+02  0.18233882950E+03  0.20636502517E+03  0.47000000000E+01 0. -1.
        -11    1    3    3    0    0 -0.98861235815E+01  0.79622481974E+01  0.17522541343E+02  0.21637289362E+02  0.00000000000E+00 0.  1.
         11    1    3    3    0    0  0.80003547664E+02 -0.68327406867E+02  0.61334467047E+03  0.62230289005E+03  0.00000000000E+00 0. -1.
<mgrwt>
<rscale>  0 0.14844594E+03</rscale>
<asrwt>0</asrwt>
<pdfrwt beam="1">  1        1 0.16226991E+00 0.15552062E+03</pdfrwt>
<pdfrwt beam="2">  1       -1 0.32345682E-02 0.15552062E+03</pdfrwt>
<totfact> 0.48261771E+03</totfact>
</mgrwt>
</event>
<event>
 7    1  0.1330601E-005  0.1284198E+03  0.7546771E-02  0.1243609E+00
          3   -1    0    0  501    0  0.00000000000E+00  0.00000000000E+00  0.98789273271E+02  0.98789273271E+02  0.00000000000E+00 0. -1.
         -3   -1    0    0    0  501 -0.00000000000E+00 -0.00000000000E+00 -0.20458090548E+03  0.20458090548E+03  0.00000000000E+00 0.  1.
         23    2    1    2    0    0  0.27754656638E+01  0.29299499223E+02  0.43693632136E+02  0.10629785927E+03  0.92325172800E+02 0.  0.
          5    1    1    2  502    0 -0.52712745870E+02  0.18932546372E+02 -0.47391355863E+02  0.73519422603E+02  0.47000000000E+01 0.  1.
         -5    1    1    2    0  502  0.49937280206E+02 -0.48232045596E+02 -0.10209390849E+03  0.12355289688E+03  0.47000000000E+01 0.  1.
        -11    1    3    3    0    0  0.31703459548E+02  0.35014067682E+02  0.56932098424E+02  0.73975388569E+02  0.00000000000E+00 0. -1.
         11    1    3    3    0    0 -0.28927993884E+02 -0.57145684587E+01 -0.13238466288E+02  0.32322470705E+02  0.00000000000E+00 0.  1.
<mgrwt>
<rscale>  0 0.11969000E+03</rscale>
<asrwt>0</asrwt>
<pdfrwt beam="1">  1        3 0.15198350E-01 0.12841984E+03</pdfrwt>
<pdfrwt beam="2">  1       -3 0.31473985E-01 0.12841984E+03</pdfrwt>
<totfact> 0.81553507E+02</totfact>
</mgrwt>
</event>
<event>
 7    1  0.1330601E-005  0.1902708E+03  0.7546771E-02  0.1163541E+00
          2   -1    0    0  501    0  0.00000000000E+00  0.00000000000E+00  0.21531309019E+03  0.21531309019E+03  0.00000000000E+00 0. -1.
         -2   -1    0    0    0  501 -0.00000000000E+00 -0.00000000000E+00 -0.16378490260E+03  0.16378490260E+03  0.00000000000E+00 0.  1.
         23    2    1    2    0    0 -0.14221806753E+03  0.18782794460E+02  0.80893369188E+02  0.18657450046E+03  0.87678588847E+02 0.  0.
          5    1    1    2  502    0 -0.13671456987E+02 -0.30618444151E+02 -0.48741720874E+01  0.34208849906E+02  0.47000000000E+01 0.  1.
         -5    1    1    2    0  502  0.15588952452E+03  0.11835649691E+02 -0.24491009510E+02  0.15831464242E+03  0.47000000000E+01 0.  1.
        -11    1    3    3    0    0 -0.70831123598E+02  0.90175976715E+00 -0.78687275332E+01  0.71272562138E+02  0.00000000000E+00 0.  1.
         11    1    3    3    0    0 -0.71386943936E+02  0.17881034693E+02  0.88762096721E+02  0.11530193832E+03  0.00000000000E+00 0. -1.
<mgrwt>
<rscale>  0 0.18447510E+03</rscale>
<asrwt>0</asrwt>
<pdfrwt beam="1">  1        2 0.33125091E-01 0.19027081E+03</pdfrwt>
<pdfrwt beam="2">  1       -2 0.25197677E-01 0.19027081E+03</pdfrwt>
<totfact> 0.21710720E+03</totfact>
</mgrwt>
</event>
<event>
 7    1  0.1330601E-005  0.1328330E+03  0.7546771E-02  0.1241531E+00
          2   -1    0    0  501    0  0.00000000000E+00  0.00000000000E+00  0.27655605127E+03  0.27655605127E+03  0.00000000000E+00 0. -1.
         -2   -1    0    0    0  501 -0.00000000000E+00 -0.00000000000E+00 -0.50219001704E+02  0.50219001704E+02  0.00000000000E+00 0.  1.
         23    2    1    2    0    0 -0.20444522182E+02  0.40027049243E+02  0.14393156606E+03  0.17045717658E+03  0.79493459985E+02 0.  0.
          5    1    1    2  502    0 -0.45048995261E+02 -0.30020568475E+01  0.10461690309E+01  0.45404942341E+02  0.47000000000E+01 0. -1.
         -5    1    1    2    0  502  0.65493517443E+02 -0.37024992395E+02  0.81359314476E+02  0.11091293406E+03  0.47000000000E+01 0. -1.
        -11    1    3    3    0    0 -0.11806277026E+02  0.15534876654E+02 -0.42895364060E+01  0.19978005217E+02  0.00000000000E+00 0.  1.
         11    1    3    3    0    0 -0.86382451557E+01  0.24492172589E+02  0.14822110246E+03  0.15047917136E+03  0.00000000000E+00 0. -1.
<mgrwt>
<rscale>  0 0.12095424E+03</rscale>
<asrwt>0</asrwt>
<pdfrwt beam="1">  1        2 0.42547084E-01 0.13283303E+03</pdfrwt>
<pdfrwt beam="2">  1       -2 0.77260004E-02 0.13283303E+03</pdfrwt>
<totfact> 0.11237566E+04</totfact>
</mgrwt>
</event>
<event>
 7    1  0.1330601E-005  0.2059009E+03  0.7546771E-02  0.1149388E+00
         -2   -1    0    0    0  501 -0.00000000000E+00  0.00000000000E+00  0.34678380709E+03  0.34678380709E+03  0.00000000000E+00 0.  1.
          2   -1    0    0  501    0  0.00000000000E+00 -0.00000000000E+00 -0.11114590961E+03  0.11114590961E+03  0.00000000000E+00 0. -1.
         23    2    1    2    0    0 -0.12674456346E+03 -0.10346905753E+03  0.88918378328E+02  0.20510213333E+03  0.85967301097E+02 0.  0.
          5    1    1    2  502    0  0.15364989684E+02  0.76709562221E+02  0.10456764097E+03  0.13067869521E+03  0.47000000000E+01 0. -1.
         -5    1    1    2    0  502  0.11137957378E+03  0.26759495310E+02  0.42151878176E+02  0.12214888816E+03  0.47000000000E+01 0. -1.
        -11    1    3    3    0    0 -0.67601389846E+02 -0.10585830198E+03  0.62202888648E+02  0.14016107649E+03  0.00000000000E+00 0.  1.
         11    1    3    3    0    0 -0.59143173616E+02  0.23892444475E+01  0.26715489681E+02  0.64941056838E+02  0.00000000000E+00 0. -1.
<mgrwt>
<rscale>  0 0.20041675E+03</rscale>
<asrwt>0</asrwt>
<pdfrwt beam="2">  1        2 0.17099371E-01 0.20590087E+03</pdfrwt>
<pdfrwt beam="1">  1       -2 0.53351355E-01 0.20590087E+03</pdfrwt>
<totfact> 0.11149748E+03</totfact>
</mgrwt>
</event>
<event>
 7    1  0.1330601E-005  0.1331944E+03  0.7546771E-02  0.1235506E+00
          3   -1    0    0  501    0  0.00000000000E+00  0.00000000000E+00  0.85120320113E+03  0.85120320113E+03  0.00000000000E+00 0. -1.
         -3   -1    0    0    0  501 -0.00000000000E+00 -0.00000000000E+00 -0.17060621560E+02  0.17060621560E+02  0.00000000000E+00 0.  1.
         23    2    1    2    0    0  0.26887216957E+02 -0.37323378527E+02  0.45578144993E+03  0.46714301859E+03  0.91487226972E+02 0.  0.
          5    1    1    2  502    0  0.12207773693E+02  0.69554282025E+02  0.29570929330E+03  0.30406069136E+03  0.47000000000E+01 0. -1.
         -5    1    1    2    0  502 -0.39094990650E+02 -0.32230903498E+02  0.82651836345E+02  0.97060112742E+02  0.47000000000E+01 0. -1.
        -11    1    3    3    0    0  0.34112516654E+02 -0.65051803352E+02  0.31143300046E+03  0.31997799094E+03  0.00000000000E+00 0.  1.
         11    1    3    3    0    0 -0.72252996966E+01  0.27728424825E+02  0.14434844947E+03  0.14716502765E+03  0.00000000000E+00 0. -1.
<mgrwt>
<rscale>  0 0.12472115E+03</rscale>
<asrwt>0</asrwt>
<pdfrwt beam="1">  1        3 0.13095431E+00 0.13319443E+03</pdfrwt>
<pdfrwt beam="2">  1       -3 0.26247117E-02 0.13319443E+03</pdfrwt>
<totfact> 0.69671341E+02</totfact>
</mgrwt>
</event>
<event>
 7    1  0.2218725E-005  0.2281788E+03  0.7546771E-02  0.1131541E+00
          2   -1    0    0  501    0  0.00000000000E+00  0.00000000000E+00  0.45322247847E+02  0.45322247847E+02  0.00000000000E+00 0. -1.
         -2   -1    0    0    0  501 -0.00000000000E+00 -0.00000000000E+00 -0.10767441246E+04  0.10767441246E+04  0.00000000000E+00 0.  1.
         23    2    1    2    0    0  0.10852436076E+03 -0.15704533477E+03 -0.41057591121E+03  0.46061699817E+03  0.84585259217E+02 0.  0.
          5    1    1    2  502    0 -0.57888192038E+02  0.86747228524E+01 -0.28220764126E+03  0.28825255659E+03  0.47000000000E+01 0. -1.
         -5    1    1    2    0  502 -0.50636168726E+02  0.14837061192E+03 -0.33863832427E+03  0.37319681769E+03  0.47000000000E+01 0. -1.
        -11    1    3    3    0    0  0.92301291398E+02 -0.12050110558E+03 -0.22933003320E+03  0.27501328871E+03  0.00000000000E+00 0. -1.
         11    1    3    3    0    0  0.16223069366E+02 -0.36544229197E+02 -0.18124587801E+03  0.18560370946E+03  0.00000000000E+00 0.  1.
<mgrwt>
<rscale>  0 0.22317040E+03</rscale>
<asrwt>0</asrwt>
<pdfrwt beam="1">  1        2 0.69726542E-02 0.22817879E+03</pdfrwt>
<pdfrwt beam="2">  1       -2 0.16565293E+00 0.22817879E+03</pdfrwt>
<totfact> 0.24743023E+02</totfact>
</mgrwt>
</event>
<event>
 7    1  0.1330601E-005  0.1296321E+03  0.7546771E-02  0.1240346E+00
         -2   -1    0    0    0  501 -0.00000000000E+00  0.00000000000E+00  0.11118556947E+04  0.11118556947E+04  0.00000000000E+00 0.  1.
          2   -1    0    0  501    0  0.00000000000E+00 -0.00000000000E+00 -0.13422438635E+02  0.13422438635E+02  0.00000000000E+00 0. -1.
         23    2    1    2    0    0 -0.34166218918E+02  0.31788023696E+01  0.30107036104E+03  0.31744642083E+03  0.94612010319E+02 0.  0.
          5    1    1    2  502    0  0.11157069529E+02  0.56941556436E+02  0.25062229726E+03  0.25729447513E+03  0.47000000000E+01 0. -1.
         -5    1    1    2    0  502  0.23009149388E+02 -0.60120358806E+02  0.54674059778E+03  0.55053723740E+03  0.47000000000E+01 0. -1.
        -11    1    3    3    0    0  0.87823481304E+01  0.24408915910E+02  0.21190617078E+02  0.33495776849E+02  0.00000000000E+00 0. -1.
         11    1    3    3    0    0 -0.42948567048E+02 -0.21230113541E+02  0.27987974397E+03  0.28395064398E+03  0.00000000000E+00 0.  1.
<mgrwt>
<rscale>  0 0.12168292E+03</rscale>
<asrwt>0</asrwt>
<pdfrwt beam="2">  1        2 0.20649914E-02 0.12963213E+03</pdfrwt>
<pdfrwt beam="1">  1       -2 0.17105465E+00 0.12963213E+03</pdfrwt>
<totfact> 0.11290700E+03</totfact>
</mgrwt>
</event>
<event>
 7    1  0.1330601E-005  0.1879376E+03  0.7546771E-02  0.1164829E+00
          2   -1    0    0  501    0  0.00000000000E+00  0.00000000000E+00  0.44303220278E+03  0.44303220278E+03  0.00000000000E+00 0. -1.
         -2   -1    0    0    0  501 -0.00000000000E+00 -0.00000000000E+00 -0.72135302976E+02  0.72135302976E+02  0.00000000000E+00 0.  1.
         23    2    1    2    0    0 -0.13759165281E+03  0.27632815734E+02  0.18546035877E+03  0.25114619969E+03  0.94783086662E+02 0.  0.
          5    1    1    2  502    0  0.75695765175E+02 -0.22990296215E+02  0.18555902421E+03  0.20177374470E+03  0.47000000000E+01 0.  1.
         -5    1    1    2    0  502  0.61895887637E+02 -0.46425195183E+01 -0.12248316926E+00  0.62247561365E+02  0.47000000000E+01 0.  1.
        -11    1    3    3    0    0 -0.21032052496E+02  0.46605333980E+02  0.60494857119E+02  0.79208788183E+02  0.00000000000E+00 0. -1.
         11    1    3    3    0    0 -0.11655960032E+03 -0.18972518247E+02  0.12496550165E+03  0.17193741151E+03  0.00000000000E+00 0.  1.
<mgrwt>
<rscale>  0 0.18310723E+03</rscale>
<asrwt>0</asrwt>
<pdfrwt beam="1">  1        2 0.68158799E-01 0.18793759E+03</pdfrwt>
<pdfrwt beam="2">  1       -2 0.11097739E-01 0.18793759E+03</pdfrwt>
<totfact> 0.39271399E+03</totfact>
</mgrwt>
</event>
<event>
 7    1  0.1330601E-005  0.1836664E+03  0.7546771E-02  0.1168050E+00
          2   -1    0    0  501    0  0.00000000000E+00  0.00000000000E+00  0.37773648356E+03  0.37773648356E+03  0.00000000000E+00 0. -1.
         -2   -1    0    0    0  501 -0.00000000000E+00 -0.00000000000E+00 -0.84009147066E+02  0.84009147066E+02  0.00000000000E+00 0.  1.
         23    2    1    2    0    0 -0.12226750282E+03 -0.56218407573E+02  0.17571592082E+03  0.24343383738E+03  0.10136121918E+03 0.  0.
          5    1    1    2  502    0  0.14485210351E+02 -0.37435773108E+02  0.32042384794E+02  0.51575797138E+02  0.47000000000E+01 0. -1.
         -5    1    1    2    0  502  0.10778229247E+03  0.93654180681E+02  0.85969030887E+02  0.16673599612E+03  0.47000000000E+01 0. -1.
        -11    1    3    3    0    0  0.20603720026E+01  0.17611900097E+02  0.26775383877E+01  0.17933024553E+02  0.00000000000E+00 0.  1.
         11    1    3    3    0    0 -0.12432787483E+03 -0.73830307670E+02  0.17303838243E+03  0.22550081282E+03  0.00000000000E+00 0. -1.
<mgrwt>
<rscale>  0 0.17974482E+03</rscale>
<asrwt>0</asrwt>
<pdfrwt beam="1">  1        2 0.58113304E-01 0.18366640E+03</pdfrwt>
<pdfrwt beam="2">  1       -2 0.12924484E-01 0.18366640E+03</pdfrwt>
<totfact> 0.36494111E+03</totfact>
</mgrwt>
</event>
<event>
 7    1  0.1330601E-005  0.1362920E+03  0.7546771E-02  0.1230135E+00
          2   -1    0    0  501    0  0.00000000000E+00  0.00000000000E+00  0.30874588945E+03  0.30874588945E+03  0.00000000000E+00 0.  1.
         -2   -1    0    0    0  501 -0.00000000000E+00 -0.00000000000E+00 -0.50602931232E+02  0.50602931232E+02  0.00000000000E+00 0. -1.
         23    2    1    2    0    0  0.47428965401E+02 -0.26555065105E+02  0.15605416396E+03  0.18906187944E+03  0.91852130769E+02 0.  0.
          5    1    1    2  502    0  0.29957243862E+01  0.69377441547E+02  0.58536555680E+02  0.90944060340E+02  0.47000000000E+01 0. -1.
         -5    1    1    2    0  502 -0.50424689787E+02 -0.42822376442E+02  0.43552238572E+02  0.79342880896E+02  0.47000000000E+01 0. -1.
        -11    1    3    3    0    0  0.27326978169E+02 -0.18219247658E+02  0.16295520074E+03  0.16623207323E+03  0.00000000000E+00 0.  1.
         11    1    3    3    0    0  0.20101987232E+02 -0.83358174469E+01 -0.69010367787E+01  0.22829806215E+02  0.00000000000E+00 0. -1.
<mgrwt>
<rscale>  0 0.12821105E+03</rscale>
<asrwt>0</asrwt>
<pdfrwt beam="1">  1        2 0.47499366E-01 0.13629204E+03</pdfrwt>
<pdfrwt beam="2">  1       -2 0.77850665E-02 0.13629204E+03</pdfrwt>
<totfact> 0.99028045E+03</totfact>
</mgrwt>
</event>
<event>
 6    1  0.1330601E-005  0.3051283E+03  0.7546771E-02  0.1082705E+00
          1   -1    0    0  501    0  0.00000000000E+00  0.00000000000E+00  0.34123333346E+03  0.34123333346E+03  0.00000000000E+00 0. -1.
         -1   -1    0    0    0  501 -0.00000000000E+00 -0.00000000000E+00 -0.68210855079E+02  0.68210855079E+02  0.00000000000E+00 0.  1.
          5    1    1    2  502    0  0.38030511714E+02  0.10892220814E+02  0.33100458551E+02  0.51794697140E+02  0.47000000000E+01 0. -1.
         -5    1    1    2    0  502 -0.99862610072E+02  0.71801069747E+01  0.59086968468E+02  0.11635056798E+03  0.47000000000E+01 0. -1.
        -11    1    1    2    0    0 -0.29728117008E+02 -0.45842158138E+02  0.29065418432E+02  0.61887502391E+02  0.00000000000E+00 0.  1.
         11    1    1    2    0    0  0.91560215366E+02  0.27769830349E+02  0.15176963293E+03  0.17941142102E+03  0.00000000000E+00 0. -1.
<mgrwt>
<rscale>  0 0.30512828E+03</rscale>
<asrwt>0</asrwt>
<pdfrwt beam="1">  1        1 0.52497435E-01 0.30512828E+03</pdfrwt>
<pdfrwt beam="2">  1       -1 0.10493978E-01 0.30512828E+03</pdfrwt>
<totfact> 0.41973287E+03</totfact>
</mgrwt>
</event>
<event>
 7    1  0.1330601E-005  0.1105631E+03  0.7546771E-02  0.1274246E+00
          1   -1    0    0  501    0  0.00000000000E+00  0.00000000000E+00  0.54780465387E+02  0.54780465387E+02  0.00000000000E+00 0. -1.
         -1   -1    0    0    0  501 -0.00000000000E+00 -0.00000000000E+00 -0.38624765304E+03  0.38624765304E+03  0.00000000000E+00 0.  1.
         23    2    1    2    0    0 -0.68634573828E+01  0.83476241613E+01  0.85377148992E+01  0.83498366241E+02  0.82354688469E+02 0.  0.
          5    1    1    2  502    0  0.12407274674E+01  0.93422628571E+01  0.52340541660E+01  0.11760212709E+02  0.47000000000E+01 0. -1.
         -5    1    1    2    0  502  0.56227299154E+01 -0.17689887018E+02 -0.34523895672E+03  0.34576953948E+03  0.47000000000E+01 0.  1.
        -11    1    3    3    0    0 -0.16844755516E+02 -0.34495199685E+02 -0.13444782861E+01  0.38411875918E+02  0.00000000000E+00 0.  1.
         11    1    3    3    0    0  0.99812981332E+01  0.42842823846E+02  0.98821931853E+01  0.45086490323E+02  0.00000000000E+00 0. -1.
<mgrwt>
<rscale>  0 0.10293344E+03</rscale>
<asrwt>0</asrwt>
<pdfrwt beam="1">  1        1 0.84277640E-02 0.11056306E+03</pdfrwt>
<pdfrwt beam="2">  1       -1 0.59422715E-01 0.11056306E+03</pdfrwt>
<totfact> 0.23001208E+03</totfact>
</mgrwt>
</event>
<event>
 7    1  0.1330601E-005  0.1458499E+03  0.7546771E-02  0.1219524E+00
         -1   -1    0    0    0  501 -0.00000000000E+00  0.00000000000E+00  0.60423498707E+03  0.60423498707E+03  0.00000000000E+00 0. -1.
          1   -1    0    0  501    0  0.00000000000E+00 -0.00000000000E+00 -0.30356531939E+02  0.30356531939E+02  0.00000000000E+00 0.  1.
         23    2    1    2    0    0  0.23143485240E+02 -0.71490291967E+02  0.14224613562E+03  0.17898351577E+03  0.78451596947E+02 0.  0.
          5    1    1    2  502    0 -0.26869715318E+02  0.10555031984E+03  0.35852052825E+03  0.37472911656E+03  0.47000000000E+01 0. -1.
         -5    1    1    2    0  502  0.37262300783E+01 -0.34060027876E+02  0.73111791259E+02  0.80878886681E+02  0.47000000000E+01 0. -1.
        -11    1    3    3    0    0  0.42917788898E+01 -0.28926986078E+02 -0.73868736619E-01  0.29243723193E+02  0.00000000000E+00 0.  1.
         11    1    3    3    0    0  0.18851706350E+02 -0.42563305888E+02  0.14232000436E+03  0.14973979257E+03  0.00000000000E+00 0. -1.
<mgrwt>
<rscale>  0 0.13549400E+03</rscale>
<asrwt>0</asrwt>
<pdfrwt beam="2">  1        1 0.46702361E-02 0.14584990E+03</pdfrwt>
<pdfrwt beam="1">  1       -1 0.92959220E-01 0.14584990E+03</pdfrwt>
<totfact> 0.21105971E+03</totfact>
</mgrwt>
</event>
<event>
 7    1  0.1330601E-005  0.1387842E+03  0.7546771E-02  0.1234606E+00
         -1   -1    0    0    0  501 -0.00000000000E+00  0.00000000000E+00  0.32200892319E+03  0.32200892319E+03  0.00000000000E+00 0.  1.
          1   -1    0    0  501    0  0.00000000000E+00 -0.00000000000E+00 -0.80673793010E+02  0.80673793010E+02  0.00000000000E+00 0. -1.
         23    2    1    2    0    0  0.15133248500E+02  0.28620383773E+01 -0.30792203974E+02  0.97208755312E+02  0.90907512396E+02 0.  0.
          5    1    1    2  502    0 -0.17021907978E+02 -0.69527666168E+02  0.14884999759E+03  0.16523393567E+03  0.47000000000E+01 0. -1.
         -5    1    1    2    0  502  0.18886594779E+01  0.66665627791E+02  0.12327733656E+03  0.14024002522E+03  0.47000000000E+01 0.  1.
        -11    1    3    3    0    0  0.39332835805E+02  0.30805506661E+02 -0.13966869584E+01  0.49980015481E+02  0.00000000000E+00 0. -1.
         11    1    3    3    0    0 -0.24199587305E+02 -0.27943468283E+02 -0.29395517015E+02  0.47228739831E+02  0.00000000000E+00 0.  1.
<mgrwt>
<rscale>  0 0.12529716E+03</rscale>
<asrwt>0</asrwt>
<pdfrwt beam="2">  1        1 0.12411353E-01 0.13878420E+03</pdfrwt>
<pdfrwt beam="1">  1       -1 0.49539833E-01 0.13878420E+03</pdfrwt>
<totfact> 0.19528556E+03</totfact>
</mgrwt>
</event>
<event>
 7    1  0.1330601E-005  0.1295701E+03  0.7546771E-02  0.1241753E+00
         -4   -1    0    0    0  501 -0.00000000000E+00  0.00000000000E+00  0.47789484560E+02  0.47789484560E+02  0.00000000000E+00 0.  1.
          4   -1    0    0  501    0  0.00000000000E+00 -0.00000000000E+00 -0.27262489858E+03  0.27262489858E+03  0.00000000000E+00 0. -1.
         23    2    1    2    0    0 -0.33096590484E+02 -0.82916064850E+01 -0.10986355471E+03  0.14718929095E+03  0.91818035687E+02 0.  0.
          5    1    1    2  502    0 -0.21415536595E+02 -0.15178797175E+02  0.14763955339E+02  0.30480903343E+02  0.47000000000E+01 0. -1.
         -5    1    1    2    0  502  0.54512127079E+02  0.23470403660E+02 -0.12973581464E+03  0.14274418884E+03  0.47000000000E+01 0. -1.
        -11    1    3    3    0    0  0.24558012850E+01 -0.37783024775E+02 -0.13273067541E+02  0.40121842468E+02  0.00000000000E+00 0.  1.
         11    1    3    3    0    0 -0.35552391769E+02  0.29491418290E+02 -0.96590487168E+02  0.10706744848E+03  0.00000000000E+00 0. -1.
<mgrwt>
<rscale>  0 0.12081821E+03</rscale>
<asrwt>0</asrwt>
<pdfrwt beam="2">  1        4 0.41942292E-01 0.12957007E+03</pdfrwt>
<pdfrwt beam="1">  1       -4 0.73522284E-02 0.12957007E+03</pdfrwt>
<totfact> 0.11490195E+03</totfact>
</mgrwt>
</event>
<event>
 7    1  0.1330601E-005  0.1689746E+03  0.7546771E-02  0.1185850E+00
          2   -1    0    0  501    0  0.00000000000E+00  0.00000000000E+00  0.95177115913E+02  0.95177115913E+02  0.00000000000E+00 0. -1.
         -2   -1    0    0    0  501 -0.00000000000E+00 -0.00000000000E+00 -0.27446976060E+03  0.27446976060E+03  0.00000000000E+00 0.  1.
         23    2    1    2    0    0 -0.44566979464E+02 -0.10460361428E+03 -0.38569184423E+02  0.14974803213E+03  0.89491672020E+02 0.  0.
          5    1    1    2  502    0 -0.23522561489E+02  0.97323787845E+02 -0.87218499286E+02  0.13286981296E+03  0.47000000000E+01 0.  1.
         -5    1    1    2    0  502  0.68089540954E+02  0.72798264339E+01 -0.53504960974E+02  0.87029031415E+02  0.47000000000E+01 0.  1.
        -11    1    3    3    0    0 -0.61531583405E+02 -0.78170373195E+02  0.67229701625E+00  0.99484646981E+02  0.00000000000E+00 0. -1.
         11    1    3    3    0    0  0.16964603940E+02 -0.26433241084E+02 -0.39241481440E+02  0.50263385149E+02  0.00000000000E+00 0.  1.
<mgrwt>
<rscale>  0 0.16254741E+03</rscale>
<asrwt>0</asrwt>
<pdfrwt beam="1">  1        2 0.14642633E-01 0.16897458E+03</pdfrwt>
<pdfrwt beam="2">  1       -2 0.42226117E-01 0.16897458E+03</pdfrwt>
<totfact> 0.21050111E+03</totfact>
</mgrwt>
</event>
<event>
 7    1  0.1330601E-005  0.1430243E+03  0.7546771E-02  0.1216717E+00
          2   -1    0    0  501    0  0.00000000000E+00  0.00000000000E+00  0.16989428495E+04  0.16989428495E+04  0.00000000000E+00 0. -1.
         -2   -1    0    0    0  501 -0.00000000000E+00 -0.00000000000E+00 -0.10595872946E+02  0.10595872946E+02  0.00000000000E+00 0.  1.
         23    2    1    2    0    0 -0.65401499688E+02  0.23537641336E+02  0.65029441782E+03  0.66167944385E+03  0.10052601578E+03 0.  0.
          5    1    1    2  502    0  0.59284609860E+02 -0.49533109715E+02  0.98719679203E+03  0.99022613080E+03  0.47000000000E+01 0.  1.
         -5    1    1    2    0  502  0.61168898274E+01  0.25995468378E+02  0.50855766696E+02  0.57633147785E+02  0.47000000000E+01 0.  1.
        -11    1    3    3    0    0 -0.89579542252E+02  0.16381596795E+01  0.47744012587E+03  0.48577386894E+03  0.00000000000E+00 0. -1.
         11    1    3    3    0    0  0.24178042564E+02  0.21899481657E+02  0.17285429195E+03  0.17590557491E+03  0.00000000000E+00 0.  1.
<mgrwt>
<rscale>  0 0.13751175E+03</rscale>
<asrwt>0</asrwt>
<pdfrwt beam="1">  1        2 0.26137561E+00 0.14302431E+03</pdfrwt>
<pdfrwt beam="2">  1       -2 0.16301356E-02 0.14302431E+03</pdfrwt>
<totfact> 0.10936109E+04</totfact>
</mgrwt>
</event>
<event>
 7    1  0.1330601E-005  0.1627872E+03  0.7546771E-02  0.1194011E+00
          1   -1    0    0  501    0  0.00000000000E+00  0.00000000000E+00  0.31264371305E+02  0.31264371305E+02  0.00000000000E+00 0. -1.
         -1   -1    0    0    0  501 -0.00000000000E+00 -0.00000000000E+00 -0.75293613038E+03  0.75293613038E+03  0.00000000000E+00 0.  1.
         23    2    1    2    0    0  0.10219967929E+03 -0.20733075845E+02 -0.23567786236E+03  0.27166783415E+03  0.85934407691E+02 0.  0.
          5    1    1    2  502    0  0.67862121789E+01  0.39404216476E+02 -0.23209763852E+03  0.23556347076E+03  0.47000000000E+01 0.  1.
         -5    1    1    2    0  502 -0.10898589147E+03 -0.18671140632E+02 -0.25389625820E+03  0.27696919677E+03  0.47000000000E+01 0.  1.
        -11    1    3    3    0    0  0.42534309575E+02  0.33617206955E+02 -0.10207213294E+03  0.11557683340E+03  0.00000000000E+00 0.  1.
         11    1    3    3    0    0  0.59665369719E+02 -0.54350282800E+02 -0.13360572942E+03  0.15609100076E+03  0.00000000000E+00 0. -1.
<mgrwt>
<rscale>  0 0.15538205E+03</rscale>
<asrwt>0</asrwt>
<pdfrwt beam="1">  1        1 0.48099035E-02 0.16278719E+03</pdfrwt>
<pdfrwt beam="2">  1       -1 0.11583632E+00 0.16278719E+03</pdfrwt>
<totfact> 0.12449169E+03</totfact>
</mgrwt>
</event>
<event>
 7    1  0.1330601E-005  0.2017229E+03  0.7546771E-02  0.1152451E+00
         -1   -1    0    0    0  501 -0.00000000000E+00  0.00000000000E+00  0.30052007648E+03  0.30052007648E+03  0.00000000000E+00 0.  1.
          1   -1    0    0  501    0  0.00000000000E+00 -0.00000000000E+00 -0.12465847902E+03  0.12465847902E+03  0.00000000000E+00 0. -1.
         23    2    1    2    0    0 -0.12327436695E+03 -0.99349246523E+02  0.59232568265E+02  0.19216685132E+03  0.91393431225E+02 0.  0.
          5    1    1    2  502    0  0.13015859522E+01 -0.24314914363E+02  0.20674020014E+01  0.24885203184E+02  0.47000000000E+01 0. -1.
         -5    1    1    2    0  502  0.12197278100E+03  0.12366416089E+03  0.11456162719E+03  0.20812650100E+03  0.47000000000E+01 0. -1.
        -11    1    3    3    0    0 -0.76092173252E+02 -0.38238667037E+01  0.27500435963E+02  0.80999473856E+02  0.00000000000E+00 0.  1.
         11    1    3    3    0    0 -0.47182193702E+02 -0.95525379819E+02  0.31732132302E+02  0.11116737747E+03  0.00000000000E+00 0. -1.
<mgrwt>
<rscale>  0 0.19681878E+03</rscale>
<asrwt>0</asrwt>
<pdfrwt beam="2">  1        1 0.19178228E-01 0.20172289E+03</pdfrwt>
<pdfrwt beam="1">  1       -1 0.46233858E-01 0.20172289E+03</pdfrwt>
<totfact> 0.12723460E+03</totfact>
</mgrwt>
</event>
<event>
 7    1  0.1330601E-005  0.1497163E+03  0.7546771E-02  0.1207731E+00
         -1   -1    0    0    0  501 -0.00000000000E+00  0.00000000000E+00  0.52490727004E+02  0.52490727004E+02  0.00000000000E+00 0.  1.
          1   -1    0    0  501    0  0.00000000000E+00 -0.00000000000E+00 -0.49035740197E+03  0.49035740197E+03  0.00000000000E+00 0. -1.
         23    2    1    2    0    0  0.48957366577E+02  0.66282976013E+02 -0.34085920405E+03  0.36445132556E+03  0.99244723118E+02 0.  0.
          5    1    1    2  502    0 -0.16065769653E+02 -0.99797905838E+02 -0.76911389434E+02  0.12710304005E+03  0.47000000000E+01 0.  1.
         -5    1    1    2    0  502 -0.32891596923E+02  0.33514929825E+02 -0.20096081483E+02  0.51293763367E+02  0.47000000000E+01 0.  1.
        -11    1    3    3    0    0  0.36725008484E+02 -0.19802013390E+02 -0.98773584695E+02  0.10722437697E+03  0.00000000000E+00 0. -1.
         11    1    3    3    0    0  0.12232358093E+02  0.86084989402E+02 -0.24208561935E+03  0.25722694859E+03  0.00000000000E+00 0.  1.
<mgrwt>
<rscale>  0 0.14424316E+03</rscale>
<asrwt>0</asrwt>
<pdfrwt beam="2">  1        1 0.75439605E-01 0.14971630E+03</pdfrwt>
<pdfrwt beam="1">  1       -1 0.80754959E-02 0.14971630E+03</pdfrwt>
<totfact> 0.38285193E+03</totfact>
</mgrwt>
</event>
<event>
 7    1  0.1330601E-005  0.2286227E+03  0.7546771E-02  0.1158708E+00
          2   -1    0    0  501    0  0.00000000000E+00  0.00000000000E+00  0.50738366405E+03  0.50738366405E+03  0.00000000000E+00 0. -1.
         -2   -1    0    0    0  501 -0.00000000000E+00 -0.00000000000E+00 -0.11229078396E+03  0.11229078396E+03  0.00000000000E+00 0.  1.
         23    2    1    2    0    0 -0.35752968490E+02 -0.37919815341E+02  0.37478084325E+03  0.39015120252E+03  0.95084663363E+02 0.  0.
          5    1    1    2  502    0  0.29844064998E+00 -0.65520186187E+02  0.81068948727E+02  0.10434197771E+03  0.47000000000E+01 0. -1.
         -5    1    1    2    0  502  0.35454527840E+02  0.10344000153E+03 -0.60756911885E+02  0.12518126778E+03  0.47000000000E+01 0.  1.
        -11    1    3    3    0    0  0.30527333240E+02 -0.16499777017E+02  0.79106778342E+02  0.86383118120E+02  0.00000000000E+00 0.  1.
         11    1    3    3    0    0 -0.66280301730E+02 -0.21420038325E+02  0.29567406491E+03  0.30376808440E+03  0.00000000000E+00 0. -1.
<mgrwt>
<rscale>  0 0.18972645E+03</rscale>
<asrwt>0</asrwt>
<pdfrwt beam="1">  1        2 0.78059024E-01 0.22862271E+03</pdfrwt>
<pdfrwt beam="2">  1       -2 0.17275505E-01 0.22862271E+03</pdfrwt>
<totfact> 0.16473987E+03</totfact>
</mgrwt>
</event>
<event>
 7    1  0.1330601E-005  0.1822263E+03  0.7546771E-02  0.1171187E+00
         -3   -1    0    0    0  501 -0.00000000000E+00  0.00000000000E+00  0.29944680173E+02  0.29944680173E+02  0.00000000000E+00 0.  1.
          3   -1    0    0  501    0  0.00000000000E+00 -0.00000000000E+00 -0.99393803435E+03  0.99393803435E+03  0.00000000000E+00 0. -1.
         23    2    1    2    0    0 -0.10306449856E+03 -0.83424567648E+02 -0.51034746274E+03  0.53500540065E+03  0.90522354427E+02 0.  0.
          5    1    1    2  502    0  0.35374181040E+02  0.27125958685E+02 -0.25136602339E+02  0.51391527472E+02  0.47000000000E+01 0. -1.
         -5    1    1    2    0  502  0.67690317519E+02  0.56298608964E+02 -0.42850928910E+03  0.43748578640E+03  0.47000000000E+01 0. -1.
        -11    1    3    3    0    0 -0.51050874300E+02 -0.94432523029E+02 -0.33596482924E+03  0.35269825582E+03  0.00000000000E+00 0. -1.
         11    1    3    3    0    0 -0.52013624259E+02  0.11007955381E+02 -0.17438263350E+03  0.18230714483E+03  0.00000000000E+00 0.  1.
<mgrwt>
<rscale>  0 0.17654718E+03</rscale>
<asrwt>0</asrwt>
<pdfrwt beam="2">  1        3 0.15291354E+00 0.18222632E+03</pdfrwt>
<pdfrwt beam="1">  1       -3 0.46068741E-02 0.18222632E+03</pdfrwt>
<totfact> 0.20594332E+02</totfact>
</mgrwt>
</event>
<event>
 7    1  0.1330601E-005  0.1517804E+03  0.7546771E-02  0.1206453E+00
          1   -1    0    0  501    0  0.00000000000E+00  0.00000000000E+00  0.33793832621E+03  0.33793832621E+03  0.00000000000E+00 0. -1.
         -1   -1    0    0    0  501 -0.00000000000E+00 -0.00000000000E+00 -0.61886399972E+02  0.61886399972E+02  0.00000000000E+00 0.  1.
         23    2    1    2    0    0 -0.72405910141E+02 -0.46617125348E+02  0.17917607757E+03  0.21976297686E+03  0.93679917933E+02 0.  0.
          5    1    1    2  502    0 -0.28503956488E+02  0.39060287461E+02  0.18520101965E+02  0.51992939605E+02  0.47000000000E+01 0. -1.
         -5    1    1    2    0  502  0.10090986663E+03  0.75568378876E+01  0.78355746700E+02  0.12806880972E+03  0.47000000000E+01 0. -1.
        -11    1    3    3    0    0 -0.92612398198E+02 -0.30224786958E+02  0.16043608495E+03  0.18769744644E+03  0.00000000000E+00 0. -1.
         11    1    3    3    0    0  0.20206488056E+02 -0.16392338390E+02  0.18739992628E+02  0.32065530421E+02  0.00000000000E+00 0.  1.
<mgrwt>
<rscale>  0 0.14523571E+03</rscale>
<asrwt>0</asrwt>
<pdfrwt beam="1">  1        1 0.51990511E-01 0.15178045E+03</pdfrwt>
<pdfrwt beam="2">  1       -1 0.95209848E-02 0.15178045E+03</pdfrwt>
<totfact> 0.47875026E+03</totfact>
</mgrwt>
</event>
<event>
 7    1  0.1890771E-005  0.1431613E+03  0.7546771E-02  0.1219311E+00
         -2   -1    0    0    0  501 -0.00000000000E+00  0.00000000000E+00  0.44442823438E+02  0.44442823438E+02  0.00000000000E+00 0.  1.
          2   -1    0    0  501    0  0.00000000000E+00 -0.00000000000E+00 -0.37943139413E+03  0.37943139413E+03  0.00000000000E+00 0. -1.
         23    2    1    2    0    0  0.66516387727E+02 -0.21110089703E+02 -0.16964456126E+03  0.20516483636E+03  0.91887252615E+02 0.  0.
          5    1    1    2  502    0 -0.52803801960E+02 -0.31997202844E+02 -0.22936778711E+02  0.66032176315E+02  0.47000000000E+01 0. -1.
         -5    1    1    2    0  502 -0.13712585767E+02  0.53107292547E+02 -0.14240723072E+03  0.15267720489E+03  0.47000000000E+01 0. -1.
        -11    1    3    3    0    0 -0.52756357616E+00  0.17747640710E+02  0.96502389522E+00  0.17781685669E+02  0.00000000000E+00 0.  1.
         11    1    3    3    0    0  0.67043951303E+02 -0.38857730413E+02 -0.17060958515E+03  0.18738315070E+03  0.00000000000E+00 0. -1.
<mgrwt>
<rscale>  0 0.13564539E+03</rscale>
<asrwt>0</asrwt>
<pdfrwt beam="2">  1        2 0.58374059E-01 0.14316128E+03</pdfrwt>
<pdfrwt beam="1">  1       -2 0.68373577E-02 0.14316128E+03</pdfrwt>
<totfact> 0.97430084E+03</totfact>
</mgrwt>
</event>
<event>
 7    1  0.1330601E-005  0.1495924E+03  0.7546771E-02  0.1211012E+00
         -2   -1    0    0    0  501 -0.00000000000E+00  0.00000000000E+00  0.26135209869E+02  0.26135209869E+02  0.00000000000E+00 0.  1.
          2   -1    0    0  501    0  0.00000000000E+00 -0.00000000000E+00 -0.70009686851E+03  0.70009686851E+03  0.00000000000E+00 0. -1.
         23    2    1    2    0    0  0.20497482928E+02  0.79580231208E+02 -0.32008794081E+03  0.34203878155E+03  0.88210420195E+02 0.  0.
          5    1    1    2  502    0 -0.54587753627E+02 -0.34166941275E+01 -0.74206801087E+02  0.92305124302E+02  0.47000000000E+01 0. -1.
         -5    1    1    2    0  502  0.34090270699E+02 -0.76163537081E+02 -0.27966691675E+03  0.29188817253E+03  0.47000000000E+01 0. -1.
        -11    1    3    3    0    0 -0.88634684999E+01  0.22959869468E+02 -0.11931280408E+02  0.27350907334E+02  0.00000000000E+00 0.  1.
         11    1    3    3    0    0  0.29360951428E+02  0.56620361740E+02 -0.30815666040E+03  0.31468787422E+03  0.00000000000E+00 0. -1.
<mgrwt>
<rscale>  0 0.14173632E+03</rscale>
<asrwt>0</asrwt>
<pdfrwt beam="2">  1        2 0.10770719E+00 0.14959238E+03</pdfrwt>
<pdfrwt beam="1">  1       -2 0.40208023E-02 0.14959238E+03</pdfrwt>
<totfact> 0.11002273E+04</totfact>
</mgrwt>
</event>
<event>
 7    1  0.1330601E-005  0.1951267E+03  0.7546771E-02  0.1158262E+00
          2   -1    0    0  501    0  0.00000000000E+00  0.00000000000E+00  0.39190633198E+03  0.39190633198E+03  0.00000000000E+00 0. -1.
         -2   -1    0    0    0  501 -0.00000000000E+00 -0.00000000000E+00 -0.18355491110E+03  0.18355491110E+03  0.00000000000E+00 0.  1.
         23    2    1    2    0    0 -0.11961225388E+03  0.90234712076E+02  0.30913708199E+03  0.35584300074E+03  0.92785296098E+02 0.  0.
          5    1    1    2  502    0  0.66232515391E+02 -0.10281392109E+03 -0.10909084531E+03  0.16395228268E+03  0.47000000000E+01 0. -1.
         -5    1    1    2    0  502  0.53379738491E+02  0.12579209018E+02  0.83051841994E+01  0.55665959665E+02  0.47000000000E+01 0. -1.
        -11    1    3    3    0    0  0.19361436582E+01  0.45824570240E+02  0.98037958269E+02  0.10823622846E+03  0.00000000000E+00 0.  1.
         11    1    3    3    0    0 -0.12154839754E+03  0.44410141836E+02  0.21109912372E+03  0.24760677228E+03  0.00000000000E+00 0. -1.
<mgrwt>
<rscale>  0 0.19022170E+03</rscale>
<asrwt>0</asrwt>
<pdfrwt beam="1">  1        2 0.60293282E-01 0.19512668E+03</pdfrwt>
<pdfrwt beam="2">  1       -2 0.28239217E-01 0.19512668E+03</pdfrwt>
<totfact> 0.93141659E+02</totfact>
</mgrwt>
</event>
<event>
 6    1  0.1330601E-005  0.1463963E+03  0.7546771E-02  0.1233208E+00
          1   -1    0    0  501    0  0.00000000000E+00  0.00000000000E+00  0.45583655061E+02  0.45583655061E+02  0.00000000000E+00 0. -1.
         -1   -1    0    0    0  501 -0.00000000000E+00 -0.00000000000E+00 -0.30025538866E+03  0.30025538866E+03  0.00000000000E+00 0.  1.
          5    1    1    2  502    0 -0.21647038224E+02  0.68504124519E+01 -0.11628687806E+03  0.11857592683E+03  0.47000000000E+01 0. -1.
         -5    1    1    2    0  502  0.89942320087E+02 -0.40704119316E+02 -0.85262807833E+02  0.13053077289E+03  0.47000000000E+01 0. -1.
        -11    1    1    2    0    0 -0.49785455696E+02  0.37036935833E+02 -0.41351100285E+02  0.74567014890E+02  0.00000000000E+00 0.  1.
         11    1    1    2    0    0 -0.18509826167E+02 -0.31832289688E+01 -0.11770947421E+02  0.22165329110E+02  0.00000000000E+00 0. -1.
<mgrwt>
<rscale>  0 0.12619869E+03</rscale>
<asrwt>0</asrwt>
<pdfrwt beam="1">  1        1 0.70128702E-02 0.14639628E+03</pdfrwt>
<pdfrwt beam="2">  1       -1 0.46193135E-01 0.14639628E+03</pdfrwt>
<totfact> 0.47553208E+03</totfact>
</mgrwt>
</event>
<event>
 7    1  0.1330601E-005  0.3010642E+03  0.7546771E-02  0.1086329E+00
         -2   -1    0    0    0  501 -0.00000000000E+00  0.00000000000E+00  0.63600043973E+02  0.63600043973E+02  0.00000000000E+00 0. -1.
          2   -1    0    0  501    0  0.00000000000E+00 -0.00000000000E+00 -0.13787814764E+04  0.13787814764E+04  0.00000000000E+00 0.  1.
         23    2    1    2    0    0  0.22028228061E+03 -0.16275673465E+03 -0.57301431857E+03  0.64147472393E+03  0.90168588445E+02 0.  0.
          5    1    1    2  502    0 -0.63901716081E+02  0.72438641445E+02 -0.42534233891E+03  0.43619832802E+03  0.47000000000E+01 0.  1.
         -5    1    1    2    0  502 -0.15638056452E+03  0.90318093201E+02 -0.31682477496E+03  0.36470846844E+03  0.47000000000E+01 0.  1.
        -11    1    3    3    0    0  0.13913530270E+03 -0.11602437460E+03 -0.27682991313E+03  0.33083997455E+03  0.00000000000E+00 0.  1.
         11    1    3    3    0    0  0.81146977906E+02 -0.46732360046E+02 -0.29618440544E+03  0.31063474939E+03  0.00000000000E+00 0. -1.
<mgrwt>
<rscale>  0 0.29783347E+03</rscale>
<asrwt>0</asrwt>
<pdfrwt beam="2">  1        2 0.21212021E+00 0.30106423E+03</pdfrwt>
<pdfrwt beam="1">  1       -2 0.97846231E-02 0.30106423E+03</pdfrwt>
<totfact> 0.10903453E+03</totfact>
</mgrwt>
</event>
<event>
 7    1  0.1330601E-005  0.1462856E+03  0.7546771E-02  0.1217986E+00
         -3   -1    0    0    0  501 -0.00000000000E+00  0.00000000000E+00  0.26866222324E+02  0.26866222324E+02  0.00000000000E+00 0.  1.
          3   -1    0    0  501    0  0.00000000000E+00 -0.00000000000E+00 -0.62446702455E+03  0.62446702455E+03  0.00000000000E+00 0. -1.
         23    2    1    2    0    0 -0.16856683018E+01 -0.75949954329E+02 -0.29395480058E+03  0.31428672257E+03  0.81212573905E+02 0.  0.
          5    1    1    2  502    0 -0.40024909801E+02  0.32460659491E+02 -0.25286091085E+03  0.25810156539E+03  0.47000000000E+01 0. -1.
         -5    1    1    2    0  502  0.41710578103E+02  0.43489294839E+02 -0.50785090797E+02  0.78944958917E+02  0.47000000000E+01 0. -1.
        -11    1    3    3    0    0 -0.29343189497E-03 -0.30616773432E+02 -0.19929505584E+02  0.36531794485E+02  0.00000000000E+00 0.  1.
         11    1    3    3    0    0 -0.16853748699E+01 -0.45333180897E+02 -0.27402529499E+03  0.27775492808E+03  0.00000000000E+00 0. -1.
<mgrwt>
<rscale>  0 0.13659440E+03</rscale>
<asrwt>0</asrwt>
<pdfrwt beam="2">  1        3 0.96071849E-01 0.14628556E+03</pdfrwt>
<pdfrwt beam="1">  1       -3 0.41332650E-02 0.14628556E+03</pdfrwt>
<totfact> 0.71683478E+02</totfact>
</mgrwt>
</event>
<event>
 7    1  0.1330601E-005  0.1257350E+03  0.7546771E-02  0.1247302E+00
         -2   -1    0    0    0  501 -0.00000000000E+00  0.00000000000E+00  0.19832833201E+03  0.19832833201E+03  0.00000000000E+00 0.  1.
          2   -1    0    0  501    0  0.00000000000E+00 -0.00000000000E+00 -0.61903562153E+02  0.61903562153E+02  0.00000000000E+00 0. -1.
         23    2    1    2    0    0 -0.10602660471E+02  0.83926935894E+01  0.60798292584E+02  0.11350547514E+03  0.94890498945E+02 0.  0.
          5    1    1    2  502    0  0.26851501732E+02  0.24189056507E+02 -0.21900707627E+02  0.42518755797E+02  0.47000000000E+01 0. -1.
         -5    1    1    2    0  502 -0.16248841260E+02 -0.32581750096E+02  0.97527184902E+02  0.10420766323E+03  0.47000000000E+01 0. -1.
        -11    1    3    3    0    0 -0.30867356658E+02  0.32507126767E+02  0.67760587156E+02  0.81246564047E+02  0.00000000000E+00 0.  1.
         11    1    3    3    0    0  0.20264696187E+02 -0.24114433177E+02 -0.69622945716E+01  0.32258911090E+02  0.00000000000E+00 0. -1.
<mgrwt>
<rscale>  0 0.11748680E+03</rscale>
<asrwt>0</asrwt>
<pdfrwt beam="2">  1        2 0.95236250E-02 0.12573495E+03</pdfrwt>
<pdfrwt beam="1">  1       -2 0.30512051E-01 0.12573495E+03</pdfrwt>
<totfact> 0.63546797E+03</totfact>
</mgrwt>
</event>
<event>
 7    1  0.1330601E-005  0.1501941E+03  0.7546771E-02  0.1209088E+00
         -1   -1    0    0    0  501 -0.00000000000E+00  0.00000000000E+00  0.50503115242E+02  0.50503115242E+02  0.00000000000E+00 0.  1.
          1   -1    0    0  501    0  0.00000000000E+00 -0.00000000000E+00 -0.49773263290E+03  0.49773263290E+03  0.00000000000E+00 0. -1.
         23    2    1    2    0    0  0.60758776468E+02  0.56941130340E+02 -0.34475396351E+03  0.36641302591E+03  0.92028739858E+02 0.  0.
          5    1    1    2  502    0  0.37998725042E+02 -0.25388231294E+02 -0.24926673012E+02  0.52267527400E+02  0.47000000000E+01 0. -1.
         -5    1    1    2    0  502 -0.98757501510E+02 -0.31552899047E+02 -0.77548881141E+02  0.12955519484E+03  0.47000000000E+01 0. -1.
        -11    1    3    3    0    0  0.66504002100E+02  0.77853396497E+02 -0.28130413942E+03  0.29935923653E+03  0.00000000000E+00 0. -1.
         11    1    3    3    0    0 -0.57452256324E+01 -0.20912266156E+02 -0.63449824085E+02  0.67053789377E+02  0.00000000000E+00 0.  1.
<mgrwt>
<rscale>  0 0.14319934E+03</rscale>
<asrwt>0</asrwt>
<pdfrwt beam="2">  1        1 0.76574250E-01 0.15019408E+03</pdfrwt>
<pdfrwt beam="1">  1       -1 0.77697102E-02 0.15019408E+03</pdfrwt>
<totfact> 0.39807824E+03</totfact>
</mgrwt>
</event>
<event>
 7    1  0.1330601E-005  0.1430539E+03  0.7546771E-02  0.1219807E+00
          2   -1    0    0  501    0  0.00000000000E+00  0.00000000000E+00  0.20223605144E+03  0.20223605144E+03  0.00000000000E+00 0. -1.
         -2   -1    0    0    0  501 -0.00000000000E+00 -0.00000000000E+00 -0.84261040681E+02  0.84261040681E+02  0.00000000000E+00 0.  1.
         23    2    1    2    0    0  0.39253556910E+02 -0.57454674550E+02  0.76112618023E+02  0.13744380190E+03  0.90861359774E+02 0.  0.
          5    1    1    2  502    0 -0.60412684155E+02  0.48628699460E+02 -0.22237455427E+02  0.80814833055E+02  0.47000000000E+01 0.  1.
         -5    1    1    2    0  502  0.21159127245E+02  0.88259750906E+01  0.64099848167E+02  0.68238457171E+02  0.47000000000E+01 0.  1.
        -11    1    3    3    0    0  0.20742424354E+02 -0.21042594397E+02 -0.18174209643E+02  0.34689203554E+02  0.00000000000E+00 0.  1.
         11    1    3    3    0    0  0.18511132556E+02 -0.36412080153E+02  0.94286827666E+02  0.10275459834E+03  0.00000000000E+00 0. -1.
<mgrwt>
<rscale>  0 0.13529261E+03</rscale>
<asrwt>0</asrwt>
<pdfrwt beam="1">  1        2 0.31113239E-01 0.14305392E+03</pdfrwt>
<pdfrwt beam="2">  1       -2 0.12963237E-01 0.14305392E+03</pdfrwt>
<totfact> 0.69958302E+03</totfact>
</mgrwt>
</event>
<event>
 7    1  0.1330601E-005  0.2204054E+03  0.7546771E-02  0.1137196E+00
         -1   -1    0    0    0  501 -0.00000000000E+00  0.00000000000E+00  0.44390005075E+03  0.44390005075E+03  0.00000000000E+00 0.  1.
          1   -1    0    0  501    0  0.00000000000E+00 -0.00000000000E+00 -0.12746933792E+03  0.12746933792E+03  0.00000000000E+00 0. -1.
         23    2    1    2    0    0 -0.17367652422E+03 -0.52823017866E+02  0.21233764403E+02  0.20296773415E+03  0.88267899437E+02 0.  0.
          5    1    1    2  502    0  0.19189535906E+03  0.36539697400E+02  0.25783135709E+03  0.32350900608E+03  0.47000000000E+01 0. -1.
         -5    1    1    2    0  502 -0.18218834836E+02  0.16283320465E+02  0.37365591340E+02  0.44892648445E+02  0.47000000000E+01 0. -1.
        -11    1    3    3    0    0 -0.11199653652E+03  0.11469835014E+02  0.16062172410E+02  0.11372235792E+03  0.00000000000E+00 0.  1.
         11    1    3    3    0    0 -0.61679987702E+02 -0.64292852879E+02  0.51715919935E+01  0.89245376228E+02  0.00000000000E+00 0. -1.
<mgrwt>
<rscale>  0 0.21561353E+03</rscale>
<asrwt>0</asrwt>
<pdfrwt beam="2">  1        1 0.19610668E-01 0.22040540E+03</pdfrwt>
<pdfrwt beam="1">  1       -1 0.68292315E-01 0.22040540E+03</pdfrwt>
<totfact> 0.59126140E+02</totfact>
</mgrwt>
</event>
<event>
 6    1  0.1330601E-005  0.2814743E+03  0.7546771E-02  0.1094886E+00
         -2   -1    0    0    0  501 -0.00000000000E+00  0.00000000000E+00  0.28951667030E+02  0.28951667030E+02  0.00000000000E+00 0. -1.
          2   -1    0    0  501    0  0.00000000000E+00 -0.00000000000E+00 -0.68413842747E+03  0.68413842747E+03  0.00000000000E+00 0.  1.
          5    1    1    2  502    0 -0.68697687687E+02  0.18192162064E+02 -0.76173393048E+02  0.10428232287E+03  0.47000000000E+01 0. -1.
         -5    1    1    2    0  502  0.45817771445E+02 -0.76462843653E+01 -0.13007338240E+03  0.13819880120E+03  0.47000000000E+01 0. -1.
        -11    1    1    2    0    0 -0.56571927266E+02 -0.22103417348E+02 -0.18327005383E+03  0.19307215399E+03  0.00000000000E+00 0. -1.
         11    1    1    2    0    0  0.79451843508E+02  0.11557539649E+02 -0.26566993116E+03  0.27753681644E+03  0.00000000000E+00 0.  1.
<mgrwt>
<rscale>  0 0.28147432E+03</rscale>
<asrwt>0</asrwt>
<pdfrwt beam="2">  1        2 0.10525205E+00 0.28147432E+03</pdfrwt>
<pdfrwt beam="1">  1       -2 0.44541033E-02 0.28147432E+03</pdfrwt>
<totfact> 0.10042322E+04</totfact>
</mgrwt>
</event>
<event>
 7    1  0.1330601E-005  0.1679497E+03  0.7546771E-02  0.1187174E+00
          1   -1    0    0  501    0  0.00000000000E+00  0.00000000000E+00  0.11820223105E+03  0.11820223105E+03  0.00000000000E+00 0. -1.
         -1   -1    0    0    0  501 -0.00000000000E+00 -0.00000000000E+00 -0.20499196858E+03  0.20499196858E+03  0.00000000000E+00 0.  1.
         23    2    1    2    0    0 -0.20155950127E+02 -0.11034219860E+03 -0.46835415920E+02  0.15055744660E+03  0.88838760825E+02 0.  0.
          5    1    1    2  502    0  0.24280186719E+02 -0.17544759116E+02  0.14363193704E+02  0.33552009968E+02  0.47000000000E+01 0. -1.
         -5    1    1    2    0  502 -0.41242365915E+01  0.12788695772E+03 -0.54317515319E+02  0.13908474306E+03  0.47000000000E+01 0. -1.
        -11    1    3    3    0    0 -0.50043971090E+02 -0.60632539600E+02 -0.48781045751E+02  0.92521858635E+02  0.00000000000E+00 0.  1.
         11    1    3    3    0    0  0.29888020963E+02 -0.49709659000E+02  0.19456298304E+01  0.58035587965E+02  0.00000000000E+00 0. -1.
<mgrwt>
<rscale>  0 0.16135585E+03</rscale>
<asrwt>0</asrwt>
<pdfrwt beam="1">  1        1 0.18184959E-01 0.16794970E+03</pdfrwt>
<pdfrwt beam="2">  1       -1 0.31537226E-01 0.16794970E+03</pdfrwt>
<totfact> 0.26499510E+03</totfact>
</mgrwt>
</event>
<event>
 7    1  0.1330601E-005  0.1451683E+03  0.7546771E-02  0.1216506E+00
          2   -1    0    0  501    0  0.00000000000E+00  0.00000000000E+00  0.12061772559E+03  0.12061772559E+03  0.00000000000E+00 0. -1.
         -2   -1    0    0    0  501 -0.00000000000E+00 -0.00000000000E+00 -0.16132973082E+03  0.16132973082E+03  0.00000000000E+00 0.  1.
         23    2    1    2    0    0 -0.58094582607E+02  0.45532616672E+02  0.28966113490E+02  0.12092300066E+03  0.91296969550E+02 0.  0.
          5    1    1    2  502    0 -0.12025866493E+02 -0.22476452038E+02 -0.82037987056E+02  0.86035653547E+02  0.47000000000E+01 0. -1.
         -5    1    1    2    0  502  0.70120449100E+02 -0.23056164635E+02  0.12359868338E+02  0.74988802197E+02  0.47000000000E+01 0. -1.
        -11    1    3    3    0    0 -0.18035994541E+02 -0.17437596119E+02 -0.19638176950E+02  0.31859454663E+02  0.00000000000E+00 0.  1.
         11    1    3    3    0    0 -0.40058588066E+02  0.62970212791E+02  0.48604290440E+02  0.89063545999E+02  0.00000000000E+00 0. -1.
<mgrwt>
<rscale>  0 0.13766487E+03</rscale>
<asrwt>0</asrwt>
<pdfrwt beam="1">  1        2 0.18556573E-01 0.14516830E+03</pdfrwt>
<pdfrwt beam="2">  1       -2 0.24819959E-01 0.14516830E+03</pdfrwt>
<totfact> 0.41915228E+03</totfact>
</mgrwt>
</event>
<event>
 7    1  0.1330601E-005  0.1734279E+03  0.7546771E-02  0.1180302E+00
         -1   -1    0    0    0  501 -0.00000000000E+00  0.00000000000E+00  0.22979588938E+03  0.22979588938E+03  0.00000000000E+00 0.  1.
          1   -1    0    0  501    0  0.00000000000E+00 -0.00000000000E+00 -0.11927655590E+03  0.11927655590E+03  0.00000000000E+00 0. -1.
         23    2    1    2    0    0 -0.10188437032E+03 -0.63798966908E+02  0.18190467174E+02  0.15259892672E+03  0.92221506422E+02 0.  0.
          5    1    1    2  502    0  0.87417935744E+02  0.66219789495E+01  0.11757562043E+01  0.87802155427E+02  0.47000000000E+01 0. -1.
         -5    1    1    2    0  502  0.14466434580E+02  0.57176987959E+02  0.91153110106E+02  0.10867136312E+03  0.47000000000E+01 0. -1.
        -11    1    3    3    0    0 -0.18781236699E+02 -0.49983282143E+02 -0.23812723323E+02  0.58464597303E+02  0.00000000000E+00 0. -1.
         11    1    3    3    0    0 -0.83103133624E+02 -0.13815684765E+02  0.42003190497E+02  0.94134329421E+02  0.00000000000E+00 0.  1.
<mgrwt>
<rscale>  0 0.16766797E+03</rscale>
<asrwt>0</asrwt>
<pdfrwt beam="2">  1        1 0.18350239E-01 0.17342786E+03</pdfrwt>
<pdfrwt beam="1">  1       -1 0.35353214E-01 0.17342786E+03</pdfrwt>
<totfact> 0.21562225E+03</totfact>
</mgrwt>
</event>
<event>
 7    1  0.1330601E-005  0.1321466E+03  0.7546771E-02  0.1233715E+00
          1   -1    0    0  501    0  0.00000000000E+00  0.00000000000E+00  0.30755338948E+03  0.30755338948E+03  0.00000000000E+00 0. -1.
         -1   -1    0    0    0  501 -0.00000000000E+00 -0.00000000000E+00 -0.47272527516E+02  0.47272527516E+02  0.00000000000E+00 0.  1.
         23    2    1    2    0    0  0.14834329284E+01 -0.60930655892E+02  0.12527738588E+03  0.16591149705E+03  0.90096925808E+02 0.  0.
          5    1    1    2  502    0 -0.35188021411E+02 -0.10719555819E+02  0.90862213459E+02  0.98138359282E+02  0.47000000000E+01 0. -1.
         -5    1    1    2    0  502  0.33704588483E+02  0.71650211712E+02  0.44141262622E+02  0.90776060660E+02  0.47000000000E+01 0.  1.
        -11    1    3    3    0    0  0.33401450757E+02 -0.24093065159E+00  0.16328531730E+02  0.37179778223E+02  0.00000000000E+00 0.  1.
         11    1    3    3    0    0 -0.31918017829E+02 -0.60689725241E+02  0.10894885415E+03  0.12873171883E+03  0.00000000000E+00 0. -1.
<mgrwt>
<rscale>  0 0.12587085E+03</rscale>
<asrwt>0</asrwt>
<pdfrwt beam="1">  1        1 0.47315905E-01 0.13214658E+03</pdfrwt>
<pdfrwt beam="2">  1       -1 0.72726967E-02 0.13214658E+03</pdfrwt>
<totfact> 0.80230660E+03</totfact>
</mgrwt>
</event>
<event>
 7    1  0.1330601E-005  0.1454188E+03  0.7546771E-02  0.1216220E+00
         -1   -1    0    0    0  501 -0.00000000000E+00  0.00000000000E+00  0.14575056136E+03  0.14575056136E+03  0.00000000000E+00 0.  1.
          1   -1    0    0  501    0  0.00000000000E+00 -0.00000000000E+00 -0.13573569861E+03  0.13573569861E+03  0.00000000000E+00 0. -1.
         23    2    1    2    0    0 -0.53573864596E+02 -0.51493265207E+02 -0.45256596309E+02  0.12591779321E+03  0.91024259444E+02 0.  0.
          5    1    1    2  502    0  0.25180771725E+02 -0.41114960075E+02  0.18438421863E+02  0.51832196630E+02  0.47000000000E+01 0.  1.
         -5    1    1    2    0  502  0.28393092871E+02  0.92608225282E+02  0.36833037186E+02  0.10373627013E+03  0.47000000000E+01 0.  1.
        -11    1    3    3    0    0 -0.78457113108E+02 -0.47266898408E+02 -0.29797562764E+02  0.96320158996E+02  0.00000000000E+00 0.  1.
         11    1    3    3    0    0  0.24883248511E+02 -0.42263667997E+01 -0.15459033544E+02  0.29597634212E+02  0.00000000000E+00 0. -1.
<mgrwt>
<rscale>  0 0.13787269E+03</rscale>
<asrwt>0</asrwt>
<pdfrwt beam="2">  1        1 0.20882415E-01 0.14541875E+03</pdfrwt>
<pdfrwt beam="1">  1       -1 0.22423163E-01 0.14541875E+03</pdfrwt>
<totfact> 0.38860510E+03</totfact>
</mgrwt>
</event>
<event>
 7    1  0.1330601E-005  0.1889103E+03  0.7546771E-02  0.1163707E+00
         -1   -1    0    0    0  501 -0.00000000000E+00  0.00000000000E+00  0.10143798891E+03  0.10143798891E+03  0.00000000000E+00 0.  1.
          1   -1    0    0  501    0  0.00000000000E+00 -0.00000000000E+00 -0.33914432782E+03  0.33914432782E+03  0.00000000000E+00 0. -1.
         23    2    1    2    0    0  0.72684649700E+02  0.12156584850E+03 -0.16632020761E+03  0.23863409525E+03  0.96033880134E+02 0.  0.
          5    1    1    2  502    0 -0.75995012368E+02 -0.77900549382E+02  0.10021736023E+02  0.10939041408E+03  0.47000000000E+01 0. -1.
         -5    1    1    2    0  502  0.33103626686E+01 -0.43665299119E+02 -0.81407867329E+02  0.92557807403E+02  0.47000000000E+01 0. -1.
        -11    1    3    3    0    0  0.72486796048E+02  0.92628717586E+02 -0.17275018017E+03  0.20899052531E+03  0.00000000000E+00 0. -1.
         11    1    3    3    0    0  0.19785365147E+00  0.28937130914E+02  0.64299725573E+01  0.29643569938E+02  0.00000000000E+00 0.  1.
<mgrwt>
<rscale>  0 0.18429782E+03</rscale>
<asrwt>0</asrwt>
<pdfrwt beam="2">  1        1 0.52176050E-01 0.18891031E+03</pdfrwt>
<pdfrwt beam="1">  1       -1 0.15605845E-01 0.18891031E+03</pdfrwt>
<totfact> 0.22316353E+03</totfact>
</mgrwt>
</event>
<event>
 7    1  0.1330601E-005  0.1492850E+03  0.7546771E-02  0.1210923E+00
         -2   -1    0    0    0  501 -0.00000000000E+00  0.00000000000E+00  0.29758183007E+03  0.29758183007E+03  0.00000000000E+00 0. -1.
          2   -1    0    0  501    0  0.00000000000E+00 -0.00000000000E+00 -0.61619823165E+02  0.61619823165E+02  0.00000000000E+00 0.  1.
         23    2    1    2    0    0 -0.76088425877E+02  0.29577403707E+02  0.10441338758E+03  0.16022667005E+03  0.90034209755E+02 0.  0.
          5    1    1    2  502    0  0.55716946113E+02 -0.55836387552E+02  0.18648099392E+02  0.81190651370E+02  0.47000000000E+01 0. -1.
         -5    1    1    2    0  502  0.20371479765E+02  0.26258983845E+02  0.11290051993E+03  0.11778433181E+03  0.47000000000E+01 0. -1.
        -11    1    3    3    0    0  0.20607401185E+02  0.61923160251E+01  0.24609251469E+02  0.32689830517E+02  0.00000000000E+00 0. -1.
         11    1    3    3    0    0 -0.96695827062E+02  0.23385087682E+02  0.79804136112E+02  0.12753683953E+03  0.00000000000E+00 0.  1.
<mgrwt>
<rscale>  0 0.14180326E+03</rscale>
<asrwt>0</asrwt>
<pdfrwt beam="2">  1        2 0.94799729E-02 0.14928498E+03</pdfrwt>
<pdfrwt beam="1">  1       -2 0.45781819E-01 0.14928498E+03</pdfrwt>
<totfact> 0.30271546E+03</totfact>
</mgrwt>
</event>
<event>
 7    1  0.1330601E-005  0.1658646E+03  0.7546771E-02  0.1190615E+00
          1   -1    0    0  501    0  0.00000000000E+00  0.00000000000E+00  0.21539930590E+03  0.21539930590E+03  0.00000000000E+00 0. -1.
         -1   -1    0    0    0  501 -0.00000000000E+00 -0.00000000000E+00 -0.10791846521E+03  0.10791846521E+03  0.00000000000E+00 0.  1.
         23    2    1    2    0    0  0.29556687988E+02  0.10493860925E+03  0.33353495951E+02  0.14164245900E+03  0.84050109944E+02 0.  0.
          5    1    1    2  502    0 -0.22396850144E+02 -0.14791846748E+02  0.86123537266E+02  0.90331452428E+02  0.47000000000E+01 0.  1.
         -5    1    1    2    0  502 -0.71598378447E+01 -0.90146762505E+02 -0.11996192521E+02  0.91343859690E+02  0.47000000000E+01 0.  1.
        -11    1    3    3    0    0  0.40971085052E+02  0.24382786399E+02  0.36771189892E+02  0.60210219140E+02  0.00000000000E+00 0. -1.
         11    1    3    3    0    0 -0.11414397063E+02  0.80555822854E+02 -0.34176939409E+01  0.81432239855E+02  0.00000000000E+00 0.  1.
<mgrwt>
<rscale>  0 0.15831306E+03</rscale>
<asrwt>0</asrwt>
<pdfrwt beam="1">  1        1 0.33138355E-01 0.16586457E+03</pdfrwt>
<pdfrwt beam="2">  1       -1 0.16602841E-01 0.16586457E+03</pdfrwt>
<totfact> 0.35471565E+03</totfact>
</mgrwt>
</event>
<event>
 7    1  0.1330601E-005  0.1536572E+03  0.7546771E-02  0.1204856E+00
         -1   -1    0    0    0  501 -0.00000000000E+00  0.00000000000E+00  0.23323656659E+02  0.23323656659E+02  0.00000000000E+00 0.  1.
          1   -1    0    0  501    0  0.00000000000E+00 -0.00000000000E+00 -0.85668098959E+03  0.85668098959E+03  0.00000000000E+00 0. -1.
         23    2    1    2    0    0  0.89157196893E+02 -0.60496124615E+01 -0.43116405271E+03  0.44945852356E+03  0.90138340818E+02 0.  0.
          5    1    1    2  502    0 -0.96763222231E+01  0.36088173937E+02 -0.27465253004E+03  0.27722209466E+03  0.47000000000E+01 0.  1.
         -5    1    1    2    0  502 -0.79480874670E+02 -0.30038561475E+02 -0.12754075018E+03  0.15332402803E+03  0.47000000000E+01 0.  1.
        -11    1    3    3    0    0  0.91958215667E+02 -0.31101500629E+02 -0.38282781898E+03  0.39494399065E+03  0.00000000000E+00 0. -1.
         11    1    3    3    0    0 -0.28010187739E+01  0.25051888168E+02 -0.48336233735E+02  0.54514532912E+02  0.00000000000E+00 0.  1.
<mgrwt>
<rscale>  0 0.14648844E+03</rscale>
<asrwt>0</asrwt>
<pdfrwt beam="2">  1        1 0.13179708E+00 0.15365718E+03</pdfrwt>
<pdfrwt beam="1">  1       -1 0.35882548E-02 0.15365718E+03</pdfrwt>
<totfact> 0.58386780E+03</totfact>
</mgrwt>
</event>
<event>
 7    1  0.1330601E-005  0.1355566E+03  0.7546771E-02  0.1231693E+00
          1   -1    0    0  501    0  0.00000000000E+00  0.00000000000E+00  0.79596153790E+02  0.79596153790E+02  0.00000000000E+00 0. -1.
         -1   -1    0    0    0  501 -0.00000000000E+00 -0.00000000000E+00 -0.21382509132E+03  0.21382509132E+03  0.00000000000E+00 0.  1.
         23    2    1    2    0    0 -0.51940966734E+02  0.72378891349E+01 -0.35107048544E+01  0.10510542205E+03  0.91019633217E+02 0.  0.
          5    1    1    2  502    0  0.32249463575E+02  0.17309892141E+02 -0.14770615940E+03  0.15224605017E+03  0.47000000000E+01 0.  1.
         -5    1    1    2    0  502  0.19691503159E+02 -0.24547781276E+02  0.16987926725E+02  0.36069772894E+02  0.47000000000E+01 0.  1.
        -11    1    3    3    0    0 -0.19893253613E+02  0.48677809811E+02 -0.37395098071E+01  0.52718636561E+02  0.00000000000E+00 0. -1.
         11    1    3    3    0    0 -0.32047713121E+02 -0.41439920676E+02  0.22880495277E+00  0.52386785487E+02  0.00000000000E+00 0.  1.
<mgrwt>
<rscale>  0 0.12718509E+03</rscale>
<asrwt>0</asrwt>
<pdfrwt beam="1">  1        1 0.12245562E-01 0.13555660E+03</pdfrwt>
<pdfrwt beam="2">  1       -1 0.32896168E-01 0.13555660E+03</pdfrwt>
<totfact> 0.40774146E+03</totfact>
</mgrwt>
</event>
<event>
 7    1  0.1330601E-005  0.1589847E+03  0.7546771E-02  0.1211384E+00
         -1   -1    0    0    0  501 -0.00000000000E+00  0.00000000000E+00  0.97149561308E+02  0.97149561308E+02  0.00000000000E+00 0.  1.
          1   -1    0    0  501    0  0.00000000000E+00 -0.00000000000E+00 -0.26489172939E+03  0.26489172939E+03  0.00000000000E+00 0. -1.
         23    2    1    2    0    0  0.34790881647E+02 -0.20211956275E+02 -0.17664560773E+03  0.20280750210E+03  0.91149786378E+02 0.  0.
          5    1    1    2  502    0 -0.64934958816E+02  0.73122541328E+02  0.59443166302E+01  0.98086083757E+02  0.47000000000E+01 0. -1.
         -5    1    1    2    0  502  0.30144077169E+02 -0.52910585053E+02  0.29591230092E+01  0.61147704846E+02  0.47000000000E+01 0.  1.
        -11    1    3    3    0    0  0.56480775607E+02  0.65492112464E+01 -0.14607612554E+03  0.15675204826E+03  0.00000000000E+00 0. -1.
         11    1    3    3    0    0 -0.21689893960E+02 -0.26761167521E+02 -0.30569482183E+02  0.46055453836E+02  0.00000000000E+00 0.  1.
<mgrwt>
<rscale>  0 0.14145551E+03</rscale>
<asrwt>0</asrwt>
<pdfrwt beam="2">  1        1 0.40752574E-01 0.15898468E+03</pdfrwt>
<pdfrwt beam="1">  1       -1 0.14946086E-01 0.15898468E+03</pdfrwt>
<totfact> 0.32317270E+03</totfact>
</mgrwt>
</event>
<event>
 7    1  0.1330601E-005  0.1275017E+03  0.7546771E-02  0.1245843E+00
         -1   -1    0    0    0  501 -0.00000000000E+00  0.00000000000E+00  0.58931345980E+02  0.58931345980E+02  0.00000000000E+00 0.  1.
          1   -1    0    0  501    0  0.00000000000E+00 -0.00000000000E+00 -0.20967878161E+03  0.20967878161E+03  0.00000000000E+00 0. -1.
         23    2    1    2    0    0  0.75307724037E+01  0.23998126945E+02 -0.69380675001E+02  0.11735795164E+03  0.91250140382E+02 0.  0.
          5    1    1    2  502    0  0.38524071884E+02 -0.31618262692E+02  0.76383794728E+01  0.50638458617E+02  0.47000000000E+01 0. -1.
         -5    1    1    2    0  502 -0.46054844287E+02  0.76201357464E+01 -0.89005140102E+02  0.10061371733E+03  0.47000000000E+01 0. -1.
        -11    1    3    3    0    0 -0.35402849771E+02  0.28455648941E+02 -0.14799320309E+02  0.47771389033E+02  0.00000000000E+00 0.  1.
         11    1    3    3    0    0  0.42933622175E+02 -0.44575219960E+01 -0.54581354693E+02  0.69586562607E+02  0.00000000000E+00 0. -1.
<mgrwt>
<rscale>  0 0.11835063E+03</rscale>
<asrwt>0</asrwt>
<pdfrwt beam="2">  1        1 0.32258274E-01 0.12750165E+03</pdfrwt>
<pdfrwt beam="1">  1       -1 0.90663608E-02 0.12750165E+03</pdfrwt>
<totfact> 0.92120426E+03</totfact>
</mgrwt>
</event>
<event>
 7    1  0.1330601E-005  0.1327239E+03  0.7546771E-02  0.1236077E+00
         -1   -1    0    0    0  501 -0.00000000000E+00  0.00000000000E+00  0.16638035364E+03  0.16638035364E+03  0.00000000000E+00 0.  1.
          1   -1    0    0  501    0  0.00000000000E+00 -0.00000000000E+00 -0.83059267633E+02  0.83059267633E+02  0.00000000000E+00 0. -1.
         23    2    1    2    0    0  0.33122863794E+02 -0.29917172073E+02  0.32702500169E+02  0.10739073440E+03  0.92038877802E+02 0.  0.
          5    1    1    2  502    0 -0.23586710389E+02  0.63734621461E+02 -0.12877135609E+02  0.69327811888E+02  0.47000000000E+01 0.  1.
         -5    1    1    2    0  502 -0.95361534042E+01 -0.33817449388E+02  0.63495721446E+02  0.72721074984E+02  0.47000000000E+01 0.  1.
        -11    1    3    3    0    0  0.22934173643E+01 -0.47244811068E+02  0.49302560131E+02  0.68323307674E+02  0.00000000000E+00 0.  1.
         11    1    3    3    0    0  0.30829446429E+02  0.17327638995E+02 -0.16600059962E+02  0.39067426726E+02  0.00000000000E+00 0. -1.
<mgrwt>
<rscale>  0 0.12435711E+03</rscale>
<asrwt>0</asrwt>
<pdfrwt beam="2">  1        1 0.12778349E-01 0.13272394E+03</pdfrwt>
<pdfrwt beam="1">  1       -1 0.25596978E-01 0.13272394E+03</pdfrwt>
<totfact> 0.58592363E+03</totfact>
</mgrwt>
</event>
<event>
 7    1  0.1330601E-005  0.1606826E+03  0.7546771E-02  0.1196438E+00
          2   -1    0    0  501    0  0.00000000000E+00  0.00000000000E+00  0.25461516626E+03  0.25461516626E+03  0.00000000000E+00 0. -1.
         -2   -1    0    0    0  501 -0.00000000000E+00 -0.00000000000E+00 -0.86462527302E+02  0.86462527302E+02  0.00000000000E+00 0.  1.
         23    2    1    2    0    0  0.56007528437E+02 -0.84004232126E+02  0.99760053741E+02  0.16644538597E+03  0.86939311772E+02 0.  0.
          5    1    1    2  502    0 -0.13112364952E+02  0.10952900712E+03  0.43688473545E+02  0.11874051641E+03  0.47000000000E+01 0.  1.
         -5    1    1    2    0  502 -0.42895163484E+02 -0.25524774995E+02  0.24704111677E+02  0.55891791192E+02  0.47000000000E+01 0.  1.
        -11    1    3    3    0    0  0.35828070014E+02  0.87288007024E+01  0.17343878140E+02  0.40751106384E+02  0.00000000000E+00 0. -1.
         11    1    3    3    0    0  0.20179458423E+02 -0.92733032828E+02  0.82416175601E+02  0.12569427959E+03  0.00000000000E+00 0.  1.
<mgrwt>
<rscale>  0 0.15333191E+03</rscale>
<asrwt>0</asrwt>
<pdfrwt beam="1">  1        2 0.39171564E-01 0.16068260E+03</pdfrwt>
<pdfrwt beam="2">  1       -2 0.13301927E-01 0.16068260E+03</pdfrwt>
<totfact> 0.52764737E+03</totfact>
</mgrwt>
</event>
<event>
 7    1  0.1330601E-005  0.1607584E+03  0.7546771E-02  0.1195506E+00
         -2   -1    0    0    0  501 -0.00000000000E+00  0.00000000000E+00  0.32203146458E+02  0.32203146458E+02  0.00000000000E+00 0.  1.
          2   -1    0    0  501    0  0.00000000000E+00 -0.00000000000E+00 -0.74037946517E+03  0.74037946517E+03  0.00000000000E+00 0. -1.
         23    2    1    2    0    0 -0.98288405425E+02 -0.23317534661E+02 -0.21911124640E+03  0.25777400996E+03  0.90737995601E+02 0.  0.
          5    1    1    2  502    0  0.90587805374E+02  0.59834180940E+02 -0.24711604265E+03  0.26995315932E+03  0.47000000000E+01 0.  1.
         -5    1    1    2    0  502  0.77006000502E+01 -0.36516646279E+02 -0.24194902966E+03  0.24485544235E+03  0.47000000000E+01 0.  1.
        -11    1    3    3    0    0 -0.53519132350E+02 -0.55611676400E+02 -0.98550325705E+02  0.12517636668E+03  0.00000000000E+00 0. -1.
         11    1    3    3    0    0 -0.44769273075E+02  0.32294141739E+02 -0.12056092070E+03  0.13259764327E+03  0.00000000000E+00 0.  1.
<mgrwt>
<rscale>  0 0.15411451E+03</rscale>
<asrwt>0</asrwt>
<pdfrwt beam="2">  1        2 0.11390452E+00 0.16075836E+03</pdfrwt>
<pdfrwt beam="1">  1       -2 0.49543310E-02 0.16075836E+03</pdfrwt>
<totfact> 0.75537015E+03</totfact>
</mgrwt>
</event>
<event>
 7    1  0.1330601E-005  0.1388492E+03  0.7546771E-02  0.1226128E+00
          1   -1    0    0  501    0  0.00000000000E+00  0.00000000000E+00  0.30097874354E+03  0.30097874354E+03  0.00000000000E+00 0. -1.
         -1   -1    0    0    0  501 -0.00000000000E+00 -0.00000000000E+00 -0.54711038130E+02  0.54711038130E+02  0.00000000000E+00 0.  1.
         23    2    1    2    0    0  0.52841562923E+02  0.29276700961E+02  0.15367434062E+03  0.18879874065E+03  0.91541277643E+02 0.  0.
          5    1    1    2  502    0 -0.18900385511E+02 -0.21629212207E+02 -0.28545414729E+02  0.40767365566E+02  0.47000000000E+01 0.  1.
         -5    1    1    2    0  502 -0.33941177412E+02 -0.76474887540E+01  0.12113877951E+03  0.12612367546E+03  0.47000000000E+01 0.  1.
        -11    1    3    3    0    0 -0.22085192163E+02  0.12213819362E+02  0.73643284386E+02  0.77847713078E+02  0.00000000000E+00 0. -1.
         11    1    3    3    0    0  0.74926755086E+02  0.17062881599E+02  0.80031056237E+02  0.11095102757E+03  0.00000000000E+00 0.  1.
<mgrwt>
<rscale>  0 0.13089916E+03</rscale>
<asrwt>0</asrwt>
<pdfrwt beam="1">  1        1 0.46304421E-01 0.13884916E+03</pdfrwt>
<pdfrwt beam="2">  1       -1 0.84170830E-02 0.13884916E+03</pdfrwt>
<totfact> 0.66335231E+03</totfact>
</mgrwt>
</event>
<event>
 7    1  0.1330601E-005  0.1365656E+03  0.7546771E-02  0.1229673E+00
          2   -1    0    0  501    0  0.00000000000E+00  0.00000000000E+00  0.37227790161E+03  0.37227790161E+03  0.00000000000E+00 0. -1.
         -2   -1    0    0    0  501 -0.00000000000E+00 -0.00000000000E+00 -0.40722788015E+02  0.40722788015E+02  0.00000000000E+00 0.  1.
         23    2    1    2    0    0  0.54896636447E+02 -0.38707235738E+01  0.17575747034E+03  0.20582188004E+03  0.91887620097E+02 0.  0.
          5    1    1    2  502    0 -0.85356992155E+02  0.18271725662E+02  0.61365609288E+02  0.10680589905E+03  0.47000000000E+01 0. -1.
         -5    1    1    2    0  502  0.30460355708E+02 -0.14401002089E+02  0.94432033970E+02  0.10037291054E+03  0.47000000000E+01 0. -1.
        -11    1    3    3    0    0 -0.11885109810E+01  0.27944500012E+02  0.13170739795E+02  0.30915627538E+02  0.00000000000E+00 0.  1.
         11    1    3    3    0    0  0.56085147428E+02 -0.31815223586E+02  0.16258673054E+03  0.17490625250E+03  0.00000000000E+00 0. -1.
<mgrwt>
<rscale>  0 0.12851701E+03</rscale>
<asrwt>0</asrwt>
<pdfrwt beam="1">  1        2 0.57273521E-01 0.13656556E+03</pdfrwt>
<pdfrwt beam="2">  1       -2 0.62650446E-02 0.13656556E+03</pdfrwt>
<totfact> 0.11322177E+04</totfact>
</mgrwt>
</event>
<event>
 7    1  0.1330601E-005  0.1512216E+03  0.7546771E-02  0.1208428E+00
          2   -1    0    0  501    0  0.00000000000E+00  0.00000000000E+00  0.82021222295E+03  0.82021222295E+03  0.00000000000E+00 0. -1.
         -2   -1    0    0    0  501 -0.00000000000E+00 -0.00000000000E+00 -0.22979412572E+02  0.22979412572E+02  0.00000000000E+00 0.  1.
         23    2    1    2    0    0 -0.41797431015E+02 -0.74131308999E+02  0.36431948286E+03  0.38462656558E+03  0.89254877411E+02 0.  0.
          5    1    1    2  502    0 -0.36403047811E+02  0.48815453786E+02  0.11557006737E+03  0.13071595499E+03  0.47000000000E+01 0.  1.
         -5    1    1    2    0  502  0.78200478826E+02  0.25315855214E+02  0.31734326015E+03  0.32784911496E+03  0.47000000000E+01 0.  1.
        -11    1    3    3    0    0  0.37274539349E+01 -0.66476031387E+02  0.28658676913E+03  0.29421919193E+03  0.00000000000E+00 0. -1.
         11    1    3    3    0    0 -0.45524884950E+02 -0.76552776125E+01  0.77732713733E+02  0.90407373645E+02  0.00000000000E+00 0.  1.
<mgrwt>
<rscale>  0 0.14370525E+03</rscale>
<asrwt>0</asrwt>
<pdfrwt beam="1">  1        2 0.12618647E+00 0.15122161E+03</pdfrwt>
<pdfrwt beam="2">  1       -2 0.35352949E-02 0.15122161E+03</pdfrwt>
<totfact> 0.10979605E+04</totfact>
</mgrwt>
</event>
<event>
 7    1  0.1330601E-005  0.1494817E+03  0.7546771E-02  0.1209381E+00
          3   -1    0    0  501    0  0.00000000000E+00  0.00000000000E+00  0.80257736276E+02  0.80257736276E+02  0.00000000000E+00 0. -1.
         -3   -1    0    0    0  501 -0.00000000000E+00 -0.00000000000E+00 -0.24196436951E+03  0.24196436951E+03  0.00000000000E+00 0.  1.
         23    2    1    2    0    0 -0.23499743633E+01 -0.81955087302E+02 -0.46386719107E+02  0.13342733307E+03  0.94493210266E+02 0.  0.
          5    1    1    2  502    0 -0.38229980358E+02  0.55249664077E+01 -0.90712919090E+02  0.98706536469E+02  0.47000000000E+01 0. -1.
         -5    1    1    2    0  502  0.40579954722E+02  0.76430120894E+02 -0.24606995037E+02  0.90088236246E+02  0.47000000000E+01 0. -1.
        -11    1    3    3    0    0 -0.39884317386E+02 -0.76203020242E+01 -0.24115754447E+02  0.47227083213E+02  0.00000000000E+00 0. -1.
         11    1    3    3    0    0  0.37534343023E+02 -0.74334785278E+02 -0.22270964660E+02  0.86200249857E+02  0.00000000000E+00 0.  1.
<mgrwt>
<rscale>  0 0.14297472E+03</rscale>
<asrwt>0</asrwt>
<pdfrwt beam="1">  1        3 0.12347344E-01 0.14948172E+03</pdfrwt>
<pdfrwt beam="2">  1       -3 0.37225287E-01 0.14948172E+03</pdfrwt>
<totfact> 0.86552389E+02</totfact>
</mgrwt>
</event>
<event>
 7    1  0.2958997E-005  0.2342219E+03  0.7546771E-02  0.1126465E+00
         -2   -1    0    0    0  501 -0.00000000000E+00  0.00000000000E+00  0.74481868530E+02  0.74481868530E+02  0.00000000000E+00 0.  1.
          2   -1    0    0  501    0  0.00000000000E+00 -0.00000000000E+00 -0.73295688563E+03  0.73295688563E+03  0.00000000000E+00 0. -1.
         23    2    1    2    0    0  0.13545611924E+03 -0.14452148407E+03 -0.41787399161E+03  0.47165795814E+03  0.92777890750E+02 0.  0.
          5    1    1    2  502    0  0.10789495763E+02  0.22584221581E+02 -0.88325141125E+02  0.91923233396E+02  0.47000000000E+01 0. -1.
         -5    1    1    2    0  502 -0.14624561500E+03  0.12193726249E+03 -0.15227588436E+03  0.24385756263E+03  0.47000000000E+01 0. -1.
        -11    1    3    3    0    0  0.87385503741E+02 -0.29283288514E+02 -0.14888136693E+03  0.17509825433E+03  0.00000000000E+00 0. -1.
         11    1    3    3    0    0  0.48070615496E+02 -0.11523819556E+03 -0.26899262468E+03  0.29655970381E+03  0.00000000000E+00 0.  1.
<mgrwt>
<rscale>  0 0.23024881E+03</rscale>
<asrwt>0</asrwt>
<pdfrwt beam="2">  1        2 0.11276260E+00 0.23422188E+03</pdfrwt>
<pdfrwt beam="1">  1       -2 0.11458749E-01 0.23422188E+03</pdfrwt>
<totfact> 0.21043237E+03</totfact>
</mgrwt>
</event>
<event>
 7    1  0.1406339E-005  0.1714462E+03  0.7546771E-02  0.1182775E+00
         -2   -1    0    0    0  501 -0.00000000000E+00  0.00000000000E+00  0.28450411430E+02  0.28450411430E+02  0.00000000000E+00 0.  1.
          2   -1    0    0  501    0  0.00000000000E+00 -0.00000000000E+00 -0.10067675736E+04  0.10067675736E+04  0.00000000000E+00 0. -1.
         23    2    1    2    0    0  0.27731879983E+02 -0.11401809878E+03 -0.62679171010E+03  0.64411194513E+03  0.90791882877E+02 0.  0.
          5    1    1    2  502    0 -0.45256734389E+02  0.11543381577E+03 -0.35165869786E+03  0.37290624507E+03  0.47000000000E+01 0.  1.
         -5    1    1    2    0  502  0.17524854406E+02 -0.14157169843E+01  0.13324581210E+00  0.18199794806E+02  0.47000000000E+01 0.  1.
        -11    1    3    3    0    0  0.59971444996E+02 -0.58395509409E+02 -0.33178002303E+03  0.34217626075E+03  0.00000000000E+00 0.  1.
         11    1    3    3    0    0 -0.32239565013E+02 -0.55622589374E+02 -0.29501168707E+03  0.30193568439E+03  0.00000000000E+00 0. -1.
<mgrwt>
<rscale>  0 0.16535950E+03</rscale>
<asrwt>0</asrwt>
<pdfrwt beam="2">  1        2 0.15488730E+00 0.17144618E+03</pdfrwt>
<pdfrwt beam="1">  1       -2 0.43769870E-02 0.17144618E+03</pdfrwt>
<totfact> 0.61244690E+03</totfact>
</mgrwt>
</event>
<event>
 7    1  0.1330601E-005  0.1283864E+03  0.7546771E-02  0.1244126E+00
         -2   -1    0    0    0  501 -0.00000000000E+00  0.00000000000E+00  0.64179205502E+02  0.64179205502E+02  0.00000000000E+00 0. -1.
          2   -1    0    0  501    0  0.00000000000E+00 -0.00000000000E+00 -0.20890199664E+03  0.20890199664E+03  0.00000000000E+00 0.  1.
         23    2    1    2    0    0 -0.43777304184E+01 -0.28891670521E+02 -0.96042325578E+02  0.13577552821E+03  0.91416478868E+02 0.  0.
          5    1    1    2  502    0 -0.27549791341E+02  0.51032021003E+02 -0.71359159309E+02  0.92073219710E+02  0.47000000000E+01 0. -1.
         -5    1    1    2    0  502  0.31927521759E+02 -0.22140350482E+02  0.22678693747E+02  0.45232454226E+02  0.47000000000E+01 0. -1.
        -11    1    3    3    0    0 -0.19005765713E+02 -0.23029087762E+01  0.12636570623E+02  0.22939168168E+02  0.00000000000E+00 0. -1.
         11    1    3    3    0    0  0.14628035294E+02 -0.26588761745E+02 -0.10867889620E+03  0.11283636004E+03  0.00000000000E+00 0.  1.
<mgrwt>
<rscale>  0 0.11937867E+03</rscale>
<asrwt>0</asrwt>
<pdfrwt beam="2">  1        2 0.32138769E-01 0.12838637E+03</pdfrwt>
<pdfrwt beam="1">  1       -2 0.98737239E-02 0.12838637E+03</pdfrwt>
<totfact> 0.10327559E+04</totfact>
</mgrwt>
</event>
<event>
 6    1  0.1330601E-005  0.1398024E+03  0.7546771E-02  0.1249853E+00
          1   -1    0    0  501    0  0.00000000000E+00  0.00000000000E+00  0.12793636057E+03  0.12793636057E+03  0.00000000000E+00 0. -1.
         -1   -1    0    0    0  501 -0.00000000000E+00 -0.00000000000E+00 -0.82971405400E+02  0.82971405400E+02  0.00000000000E+00 0.  1.
          5    1    1    2  502    0  0.84269268588E+02  0.13794681326E+02  0.56501017969E+02  0.10249906289E+03  0.47000000000E+01 0.  1.
         -5    1    1    2    0  502 -0.22166339089E+02 -0.21639779442E+02 -0.25855313824E+02  0.40622824813E+02  0.47000000000E+01 0.  1.
        -11    1    1    2    0    0 -0.38112473983E+02  0.86234261023E+01  0.18808093952E+02  0.43366675558E+02  0.00000000000E+00 0. -1.
         11    1    1    2    0    0 -0.23990455516E+02 -0.77832798608E+00 -0.44888429263E+01  0.24419202713E+02  0.00000000000E+00 0.  1.
<mgrwt>
<rscale>  0 0.11599590E+03</rscale>
<asrwt>0</asrwt>
<pdfrwt beam="1">  1        1 0.19682517E-01 0.13980242E+03</pdfrwt>
<pdfrwt beam="2">  1       -1 0.12764832E-01 0.13980242E+03</pdfrwt>
<totfact> 0.10208948E+04</totfact>
</mgrwt>
</event>
<event>
 7    1  0.1330601E-005  0.1267019E+03  0.7546771E-02  0.1247566E+00
          2   -1    0    0  501    0  0.00000000000E+00  0.00000000000E+00  0.11850166929E+03  0.11850166929E+03  0.00000000000E+00 0. -1.
         -2   -1    0    0    0  501 -0.00000000000E+00 -0.00000000000E+00 -0.12598955044E+03  0.12598955044E+03  0.00000000000E+00 0.  1.
         23    2    1    2    0    0  0.19834550943E+02 -0.58751692558E+01  0.49562359475E+02  0.10553762152E+03  0.90850619445E+02 0.  0.
          5    1    1    2  502    0  0.36669320536E+02 -0.23818943327E+02 -0.60571178268E+02  0.74852780620E+02  0.47000000000E+01 0.  1.
         -5    1    1    2    0  502 -0.56503871478E+02  0.29694112583E+02  0.35209376367E+01  0.64100817592E+02  0.47000000000E+01 0.  1.
        -11    1    3    3    0    0  0.37880474375E+02 -0.54480691116E+01  0.69067472272E+02  0.78961557241E+02  0.00000000000E+00 0. -1.
         11    1    3    3    0    0 -0.18045923432E+02 -0.42710014420E+00 -0.19505112798E+02  0.26576064274E+02  0.00000000000E+00 0.  1.
<mgrwt>
<rscale>  0 0.11733115E+03</rscale>
<asrwt>0</asrwt>
<pdfrwt beam="1">  1        2 0.18231026E-01 0.12670190E+03</pdfrwt>
<pdfrwt beam="2">  1       -2 0.19383008E-01 0.12670190E+03</pdfrwt>
<totfact> 0.64760189E+03</totfact>
</mgrwt>
</event>
<event>
 7    1  0.1330601E-005  0.1565287E+03  0.7546771E-02  0.1201265E+00
         -1   -1    0    0    0  501 -0.00000000000E+00  0.00000000000E+00  0.62757500015E+03  0.62757500015E+03  0.00000000000E+00 0.  1.
          1   -1    0    0  501    0  0.00000000000E+00 -0.00000000000E+00 -0.36569463807E+02  0.36569463807E+02  0.00000000000E+00 0. -1.
         23    2    1    2    0    0 -0.69475526157E+02 -0.63626800993E+02  0.16252603343E+03  0.20796915201E+03  0.89225770424E+02 0.  0.
          5    1    1    2  502    0  0.62601272406E+02  0.85453337603E+02  0.19879526719E+03  0.22530610394E+03  0.47000000000E+01 0. -1.
         -5    1    1    2    0  502  0.68742537502E+01 -0.21826536609E+02  0.22968423573E+03  0.23086920801E+03  0.47000000000E+01 0. -1.
        -11    1    3    3    0    0  0.12313022795E+02  0.10608677964E+02  0.82442718089E+01  0.18224231017E+02  0.00000000000E+00 0. -1.
         11    1    3    3    0    0 -0.81788548951E+02 -0.74235478958E+02  0.15428176162E+03  0.18974492099E+03  0.00000000000E+00 0.  1.
<mgrwt>
<rscale>  0 0.14935742E+03</rscale>
<asrwt>0</asrwt>
<pdfrwt beam="2">  1        1 0.56260718E-02 0.15652869E+03</pdfrwt>
<pdfrwt beam="1">  1       -1 0.96549992E-01 0.15652869E+03</pdfrwt>
<totfact> 0.15112127E+03</totfact>
</mgrwt>
</event>
<event>
 7    1  0.1330601E-005  0.1469646E+03  0.7546771E-02  0.1213912E+00
          2   -1    0    0  501    0  0.00000000000E+00  0.00000000000E+00  0.75599710824E+03  0.75599710824E+03  0.00000000000E+00 0. -1.
         -2   -1    0    0    0  501 -0.00000000000E+00 -0.00000000000E+00 -0.23528957498E+02  0.23528957498E+02  0.00000000000E+00 0.  1.
         23    2    1    2    0    0  0.14741752981E+02 -0.75862349298E+02  0.34504906478E+03  0.36516856206E+03  0.91196525641E+02 0.  0.
          5    1    1    2  502    0 -0.43685459639E+02  0.94268603323E+02  0.21933022708E+03  0.24274024690E+03  0.47000000000E+01 0. -1.
         -5    1    1    2    0  502  0.28943706658E+02 -0.18406254026E+02  0.16808885888E+03  0.17161725678E+03  0.47000000000E+01 0. -1.
        -11    1    3    3    0    0  0.37629819144E+01 -0.89088155268E+02  0.33149685177E+03  0.34327980158E+03  0.00000000000E+00 0. -1.
         11    1    3    3    0    0  0.10978771066E+02  0.13225805971E+02  0.13552213011E+02  0.21888760477E+02  0.00000000000E+00 0.  1.
<mgrwt>
<rscale>  0 0.13956792E+03</rscale>
<asrwt>0</asrwt>
<pdfrwt beam="1">  1        2 0.11630723E+00 0.14696460E+03</pdfrwt>
<pdfrwt beam="2">  1       -2 0.36198402E-02 0.14696460E+03</pdfrwt>
<totfact> 0.11709861E+04</totfact>
</mgrwt>
</event>
<event>
 7    1  0.1330601E-005  0.1431196E+03  0.7546771E-02  0.1224355E+00
          1   -1    0    0  501    0  0.00000000000E+00  0.00000000000E+00  0.29345749871E+03  0.29345749871E+03  0.00000000000E+00 0. -1.
         -1   -1    0    0    0  501 -0.00000000000E+00 -0.00000000000E+00 -0.54256473851E+02  0.54256473851E+02  0.00000000000E+00 0.  1.
         23    2    1    2    0    0 -0.33875384364E+02 -0.60972038583E+02  0.13653024620E+03  0.17157619630E+03  0.77024358836E+02 0.  0.
          5    1    1    2  502    0 -0.20919870316E+02  0.42386491388E+01  0.94163367536E+02  0.96666627676E+02  0.47000000000E+01 0.  1.
         -5    1    1    2    0  502  0.54795254680E+02  0.56733389445E+02  0.85074111207E+01  0.79471148584E+02  0.47000000000E+01 0.  1.
        -11    1    3    3    0    0  0.45477024716E+01 -0.22542132127E+02 -0.16884451151E+01  0.23058190855E+02  0.00000000000E+00 0.  1.
         11    1    3    3    0    0 -0.38423086835E+02 -0.38429906456E+02  0.13821869131E+03  0.14851800544E+03  0.00000000000E+00 0. -1.
<mgrwt>
<rscale>  0 0.13211183E+03</rscale>
<asrwt>0</asrwt>
<pdfrwt beam="1">  1        1 0.45147306E-01 0.14311963E+03</pdfrwt>
<pdfrwt beam="2">  1       -1 0.83471500E-02 0.14311963E+03</pdfrwt>
<totfact> 0.69451987E+03</totfact>
</mgrwt>
</event>
<event>
 7    1  0.1330601E-005  0.1256025E+03  0.7546771E-02  0.1251426E+00
          1   -1    0    0  501    0  0.00000000000E+00  0.00000000000E+00  0.41874594579E+03  0.41874594579E+03  0.00000000000E+00 0. -1.
         -1   -1    0    0    0  501 -0.00000000000E+00 -0.00000000000E+00 -0.27937514685E+02  0.27937514685E+02  0.00000000000E+00 0.  1.
         23    2    1    2    0    0  0.11467408077E+02  0.50764473756E+01  0.19341940073E+03  0.21272102504E+03  0.87646438309E+02 0.  0.
          5    1    1    2  502    0  0.88694444654E+01 -0.62077646519E+02  0.12125234356E+03  0.13658887972E+03  0.47000000000E+01 0.  1.
         -5    1    1    2    0  502 -0.20336852542E+02  0.57001199144E+02  0.76136686809E+02  0.97373555719E+02  0.47000000000E+01 0.  1.
        -11    1    3    3    0    0 -0.93240658478E+01 -0.36369403040E+02  0.12133312728E+03  0.12700944633E+03  0.00000000000E+00 0. -1.
         11    1    3    3    0    0  0.20791473924E+02  0.41445850416E+02  0.72086273447E+02  0.85711578705E+02  0.00000000000E+00 0.  1.
<mgrwt>
<rscale>  0 0.11508865E+03</rscale>
<asrwt>0</asrwt>
<pdfrwt beam="1">  1        1 0.64422449E-01 0.12560252E+03</pdfrwt>
<pdfrwt beam="2">  1       -1 0.42980795E-02 0.12560252E+03</pdfrwt>
<totfact> 0.11866200E+04</totfact>
</mgrwt>
</event>
<event>
 7    1  0.1330601E-005  0.1386574E+03  0.7546771E-02  0.1227274E+00
         -1   -1    0    0    0  501 -0.00000000000E+00  0.00000000000E+00  0.57310355235E+02  0.57310355235E+02  0.00000000000E+00 0.  1.
          1   -1    0    0  501    0  0.00000000000E+00 -0.00000000000E+00 -0.26900563577E+03  0.26900563577E+03  0.00000000000E+00 0. -1.
         23    2    1    2    0    0  0.48740948534E+02  0.30797187262E+02 -0.11384990519E+03  0.15661158590E+03  0.90781281762E+02 0.  0.
          5    1    1    2  502    0 -0.11385726366E+02 -0.22865135601E+01  0.30485570529E+02  0.32959413217E+02  0.47000000000E+01 0. -1.
         -5    1    1    2    0  502 -0.37355222169E+02 -0.28510673702E+02 -0.12833094588E+03  0.13674499189E+03  0.47000000000E+01 0. -1.
        -11    1    3    3    0    0 -0.22982873732E+02  0.19122893601E+02 -0.13730375480E+02  0.32900163457E+02  0.00000000000E+00 0.  1.
         11    1    3    3    0    0  0.71723822267E+02  0.11674293661E+02 -0.10011952971E+03  0.12371142244E+03  0.00000000000E+00 0. -1.
<mgrwt>
<rscale>  0 0.13012246E+03</rscale>
<asrwt>0</asrwt>
<pdfrwt beam="2">  1        1 0.41385482E-01 0.13865737E+03</pdfrwt>
<pdfrwt beam="1">  1       -1 0.88169777E-02 0.13865737E+03</pdfrwt>
<totfact> 0.71041587E+03</totfact>
</mgrwt>
</event>
<event>
 7    1  0.1330601E-005  0.1531323E+03  0.7546771E-02  0.1205198E+00
          1   -1    0    0  501    0  0.00000000000E+00  0.00000000000E+00  0.45521505035E+03  0.45521505035E+03  0.00000000000E+00 0. -1.
         -1   -1    0    0    0  501 -0.00000000000E+00 -0.00000000000E+00 -0.43283379727E+02  0.43283379727E+02  0.00000000000E+00 0.  1.
         23    2    1    2    0    0  0.61229574215E+02  0.63830135281E+02  0.19866119850E+03  0.23594595566E+03  0.91547120509E+02 0.  0.
          5    1    1    2  502    0 -0.42740378144E+02  0.30387351514E+02  0.47427194095E+02  0.70862964909E+02  0.47000000000E+01 0. -1.
         -5    1    1    2    0  502 -0.18489196071E+02 -0.94217486795E+02  0.16584327803E+03  0.19168950952E+03  0.47000000000E+01 0. -1.
        -11    1    3    3    0    0  0.56050112733E+02  0.81779044813E+02  0.12284292814E+03  0.15786010358E+03  0.00000000000E+00 0.  1.
         11    1    3    3    0    0  0.51794614821E+01 -0.17948909532E+02  0.75818270357E+02  0.78085852077E+02  0.00000000000E+00 0. -1.
<mgrwt>
<rscale>  0 0.14621895E+03</rscale>
<asrwt>0</asrwt>
<pdfrwt beam="1">  1        1 0.70033082E-01 0.15313232E+03</pdfrwt>
<pdfrwt beam="2">  1       -1 0.66589818E-02 0.15313232E+03</pdfrwt>
<totfact> 0.56436201E+03</totfact>
</mgrwt>
</event>
<event>
 7    1  0.1330601E-005  0.1842284E+03  0.7546771E-02  0.1182148E+00
         -2   -1    0    0    0  501 -0.00000000000E+00  0.00000000000E+00  0.96967240732E+02  0.96967240732E+02  0.00000000000E+00 0.  1.
          2   -1    0    0  501    0  0.00000000000E+00 -0.00000000000E+00 -0.24495460413E+03  0.24495460413E+03  0.00000000000E+00 0. -1.
         23    2    1    2    0    0 -0.30657627622E+02 -0.73701075647E+02 -0.81281865854E+02  0.14598890884E+03  0.91292283922E+02 0.  0.
          5    1    1    2  502    0  0.12537938330E+01 -0.68509384547E+01 -0.10253514853E+03  0.10287883184E+03  0.47000000000E+01 0. -1.
         -5    1    1    2    0  502  0.29403833789E+02  0.80552014101E+02  0.35829650981E+02  0.93054104190E+02  0.47000000000E+01 0.  1.
        -11    1    3    3    0    0 -0.23086150868E+02  0.15091327032E+02 -0.37906154794E+02  0.46878514106E+02  0.00000000000E+00 0.  1.
         11    1    3    3    0    0 -0.75714767536E+01 -0.88792402679E+02 -0.43375711059E+02  0.99110394731E+02  0.00000000000E+00 0. -1.
<mgrwt>
<rscale>  0 0.16594122E+03</rscale>
<asrwt>0</asrwt>
<pdfrwt beam="2">  1        2 0.37685323E-01 0.18422837E+03</pdfrwt>
<pdfrwt beam="1">  1       -2 0.14918037E-01 0.18422837E+03</pdfrwt>
<totfact> 0.45949239E+03</totfact>
</mgrwt>
</event>
<event>
 7    1  0.1330601E-005  0.1876024E+03  0.7546771E-02  0.1190522E+00
         -2   -1    0    0    0  501 -0.00000000000E+00  0.00000000000E+00  0.25815449078E+03  0.25815449078E+03  0.00000000000E+00 0.  1.
          2   -1    0    0  501    0  0.00000000000E+00 -0.00000000000E+00 -0.89212327375E+02  0.89212327375E+02  0.00000000000E+00 0. -1.
         23    2    1    2    0    0 -0.10091321411E+01  0.33927200758E+02  0.63853130560E+00  0.95333529103E+02  0.89084234015E+02 0.  0.
          5    1    1    2  502    0  0.39516226997E+02 -0.99429998821E+02  0.71030553196E+02  0.12851181404E+03  0.47000000000E+01 0. -1.
         -5    1    1    2    0  502 -0.38507094856E+02  0.65502798064E+02  0.97273078899E+02  0.12352147500E+03  0.47000000000E+01 0.  1.
        -11    1    3    3    0    0  0.19007317010E+02 -0.25712959380E+02  0.45740942517E+01  0.32301032773E+02  0.00000000000E+00 0.  1.
         11    1    3    3    0    0 -0.20016449151E+02  0.59640160137E+02 -0.39355629461E+01  0.63032496330E+02  0.00000000000E+00 0. -1.
<mgrwt>
<rscale>  0 0.15839366E+03</rscale>
<asrwt>0</asrwt>
<pdfrwt beam="2">  1        2 0.13724974E-01 0.18760242E+03</pdfrwt>
<pdfrwt beam="1">  1       -2 0.39716075E-01 0.18760242E+03</pdfrwt>
<totfact> 0.25678287E+03</totfact>
</mgrwt>
</event>
<event>
 7    1  0.1330601E-005  0.1309569E+03  0.7546771E-02  0.1238809E+00
          1   -1    0    0  501    0  0.00000000000E+00  0.00000000000E+00  0.13179514923E+03  0.13179514923E+03  0.00000000000E+00 0. -1.
         -1   -1    0    0    0  501 -0.00000000000E+00 -0.00000000000E+00 -0.11253475341E+03  0.11253475341E+03  0.00000000000E+00 0.  1.
         23    2    1    2    0    0 -0.28087600648E+02  0.27132185135E+02  0.45913884263E+02  0.11068817005E+03  0.92837047776E+02 0.  0.
          5    1    1    2  502    0 -0.50674060661E+01  0.63896622427E+01 -0.69274464728E+02  0.69910999501E+02  0.47000000000E+01 0.  1.
         -5    1    1    2    0  502  0.33155006714E+02 -0.33521847377E+02  0.42620976286E+02  0.63730733099E+02  0.47000000000E+01 0.  1.
        -11    1    3    3    0    0  0.10199166554E+02  0.31087905278E+02  0.61101172710E+02  0.69309697442E+02  0.00000000000E+00 0. -1.
         11    1    3    3    0    0 -0.38286767203E+02 -0.39557201437E+01 -0.15187288447E+02  0.41378472604E+02  0.00000000000E+00 0.  1.
<mgrwt>
<rscale>  0 0.12263692E+03</rscale>
<asrwt>0</asrwt>
<pdfrwt beam="1">  1        1 0.20276177E-01 0.13095688E+03</pdfrwt>
<pdfrwt beam="2">  1       -1 0.17313039E-01 0.13095688E+03</pdfrwt>
<totfact> 0.60700790E+03</totfact>
</mgrwt>
</event>
<event>
 7    1  0.1330601E-005  0.1308009E+03  0.7546771E-02  0.1239982E+00
          2   -1    0    0  501    0  0.00000000000E+00  0.00000000000E+00  0.10473883966E+04  0.10473883966E+04  0.00000000000E+00 0. -1.
         -2   -1    0    0    0  501 -0.00000000000E+00 -0.00000000000E+00 -0.12812555273E+02  0.12812555273E+02  0.00000000000E+00 0.  1.
         23    2    1    2    0    0 -0.10256721673E+02  0.37127401261E+02  0.37426593688E+03  0.38706052384E+03  0.90869210077E+02 0.  0.
          5    1    1    2  502    0  0.13783398912E+02 -0.77072255433E+02  0.28274067088E+03  0.29341862861E+03  0.47000000000E+01 0. -1.
         -5    1    1    2    0  502 -0.35266772390E+01  0.39944854172E+02  0.37756923353E+03  0.37972179940E+03  0.47000000000E+01 0. -1.
        -11    1    3    3    0    0  0.21517531367E+02  0.54799758705E+02  0.17883569218E+03  0.18827698348E+03  0.00000000000E+00 0. -1.
         11    1    3    3    0    0 -0.31774253040E+02 -0.17672357444E+02  0.19543024470E+03  0.19878354036E+03  0.00000000000E+00 0.  1.
<mgrwt>
<rscale>  0 0.12190811E+03</rscale>
<asrwt>0</asrwt>
<pdfrwt beam="1">  1        2 0.16113661E+00 0.13080086E+03</pdfrwt>
<pdfrwt beam="2">  1       -2 0.19711632E-02 0.13080086E+03</pdfrwt>
<totfact> 0.18496485E+04</totfact>
</mgrwt>
</event>
<event>
 7    1  0.1330601E-005  0.1880784E+03  0.7546771E-02  0.1164009E+00
          2   -1    0    0  501    0  0.00000000000E+00  0.00000000000E+00  0.20215234349E+03  0.20215234349E+03  0.00000000000E+00 0. -1.
         -2   -1    0    0    0  501 -0.00000000000E+00 -0.00000000000E+00 -0.16083977573E+03  0.16083977573E+03  0.00000000000E+00 0.  1.
         23    2    1    2    0    0  0.13353838459E+03 -0.43777025543E+02  0.11690653766E+02  0.17259536494E+03  0.99516634228E+02 0.  0.
          5    1    1    2  502    0 -0.43736987159E+01  0.65899909629E+01  0.53081247114E+02  0.53872683398E+02  0.47000000000E+01 0.  1.
         -5    1    1    2    0  502 -0.12916468588E+03  0.37187034580E+02 -0.23459333117E+02  0.13652407088E+03  0.47000000000E+01 0.  1.
        -11    1    3    3    0    0  0.12821787970E+02 -0.10515344282E+02 -0.35182509827E+02  0.38894468885E+02  0.00000000000E+00 0.  1.
         11    1    3    3    0    0  0.12071659662E+03 -0.33261681261E+02  0.46873163593E+02  0.13370089605E+03  0.00000000000E+00 0. -1.
<mgrwt>
<rscale>  0 0.18397624E+03</rscale>
<asrwt>0</asrwt>
<pdfrwt beam="1">  1        2 0.31100360E-01 0.18807835E+03</pdfrwt>
<pdfrwt beam="2">  1       -2 0.24744581E-01 0.18807835E+03</pdfrwt>
<totfact> 0.23996382E+03</totfact>
</mgrwt>
</event>
<event>
 7    1  0.1330601E-005  0.1241902E+03  0.7546771E-02  0.1247449E+00
         -1   -1    0    0    0  501 -0.00000000000E+00  0.00000000000E+00  0.75720462706E+02  0.75720462706E+02  0.00000000000E+00 0.  1.
          1   -1    0    0  501    0  0.00000000000E+00 -0.00000000000E+00 -0.31841209076E+03  0.31841209076E+03  0.00000000000E+00 0. -1.
         23    2    1    2    0    0 -0.65089356130E+00  0.32532843646E+02 -0.25078075563E+03  0.26967915455E+03  0.93685908362E+02 0.  0.
          5    1    1    2  502    0 -0.31433819733E+02 -0.58207139566E+02 -0.25620249983E+02  0.71096014858E+02  0.47000000000E+01 0. -1.
         -5    1    1    2    0  502  0.32084713295E+02  0.25674295920E+02  0.33709377560E+02  0.53357384059E+02  0.47000000000E+01 0.  1.
        -11    1    3    3    0    0 -0.36586645967E+02  0.26519813377E+02 -0.58202999421E+02  0.73684953051E+02  0.00000000000E+00 0. -1.
         11    1    3    3    0    0  0.35935752405E+02  0.60130302690E+01 -0.19257775621E+03  0.19599420150E+03  0.00000000000E+00 0.  1.
<mgrwt>
<rscale>  0 0.11739974E+03</rscale>
<asrwt>0</asrwt>
<pdfrwt beam="2">  1        1 0.48986476E-01 0.12419024E+03</pdfrwt>
<pdfrwt beam="1">  1       -1 0.11649302E-01 0.12419024E+03</pdfrwt>
<totfact> 0.37456663E+03</totfact>
</mgrwt>
</event>
<event>
 7    1  0.1330601E-005  0.1443113E+03  0.7546771E-02  0.1215925E+00
          2   -1    0    0  501    0  0.00000000000E+00  0.00000000000E+00  0.10051759507E+03  0.10051759507E+03  0.00000000000E+00 0. -1.
         -2   -1    0    0    0  501 -0.00000000000E+00 -0.00000000000E+00 -0.33937501975E+03  0.33937501975E+03  0.00000000000E+00 0.  1.
         23    2    1    2    0    0  0.47205594456E+02  0.54499920968E+02  0.38732921693E+02  0.12703138884E+03  0.97150012834E+02 0.  0.
          5    1    1    2  502    0  0.34597268421E+02 -0.37286857264E+02 -0.16384646813E+03  0.17162469468E+03  0.47000000000E+01 0. -1.
         -5    1    1    2    0  502 -0.81802862877E+02 -0.17213063704E+02 -0.11374387825E+03  0.14123653131E+03  0.47000000000E+01 0. -1.
        -11    1    3    3    0    0  0.58447376578E+02  0.62932773221E+02  0.57667685973E+02  0.10345139815E+03  0.00000000000E+00 0. -1.
         11    1    3    3    0    0 -0.11241782122E+02 -0.84328522530E+01 -0.18934764280E+02  0.23579990686E+02  0.00000000000E+00 0.  1.
<mgrwt>
<rscale>  0 0.13808794E+03</rscale>
<asrwt>0</asrwt>
<pdfrwt beam="1">  1        2 0.15464245E-01 0.14431128E+03</pdfrwt>
<pdfrwt beam="2">  1       -2 0.52211542E-01 0.14431128E+03</pdfrwt>
<totfact> 0.12944538E+03</totfact>
</mgrwt>
</event>
<event>
 7    1  0.1330601E-005  0.1854204E+03  0.7546771E-02  0.1167949E+00
         -1   -1    0    0    0  501 -0.00000000000E+00  0.00000000000E+00  0.19821347432E+03  0.19821347432E+03  0.00000000000E+00 0.  1.
          1   -1    0    0  501    0  0.00000000000E+00 -0.00000000000E+00 -0.20042807409E+03  0.20042807409E+03  0.00000000000E+00 0. -1.
         23    2    1    2    0    0  0.95087500387E+02  0.98542814402E+02 -0.96746689453E+02  0.19051411389E+03  0.90462073102E+02 0.  0.
          5    1    1    2  502    0 -0.77195741773E+02 -0.29421371108E+02  0.10724153096E+03  0.13545344436E+03  0.47000000000E+01 0. -1.
         -5    1    1    2    0  502 -0.17891758614E+02 -0.69121443294E+02 -0.12709441273E+02  0.72673990167E+02  0.47000000000E+01 0. -1.
        -11    1    3    3    0    0  0.28037922931E+02  0.16524215742E+02  0.15605951749E+02  0.36093220391E+02  0.00000000000E+00 0.  1.
         11    1    3    3    0    0  0.67049577455E+02  0.82018598660E+02 -0.11235264120E+03  0.15442089350E+03  0.00000000000E+00 0. -1.
<mgrwt>
<rscale>  0 0.17984945E+03</rscale>
<asrwt>0</asrwt>
<pdfrwt beam="2">  1        1 0.30835088E-01 0.18542037E+03</pdfrwt>
<pdfrwt beam="1">  1       -1 0.30494381E-01 0.18542037E+03</pdfrwt>
<totfact> 0.14403328E+03</totfact>
</mgrwt>
</event>
<event>
 7    1  0.1330601E-005  0.1313547E+03  0.7546771E-02  0.1238642E+00
          2   -1    0    0  501    0  0.00000000000E+00  0.00000000000E+00  0.23628441430E+03  0.23628441430E+03  0.00000000000E+00 0. -1.
         -2   -1    0    0    0  501 -0.00000000000E+00 -0.00000000000E+00 -0.58371723695E+02  0.58371723695E+02  0.00000000000E+00 0.  1.
         23    2    1    2    0    0  0.40292323312E+02 -0.23347813280E+01  0.10199539562E+03  0.14294093558E+03  0.91652211184E+02 0.  0.
          5    1    1    2  502    0 -0.67647549956E+02  0.34653624382E+02  0.15378956882E+02  0.77689555364E+02  0.47000000000E+01 0. -1.
         -5    1    1    2    0  502  0.27355226643E+02 -0.32318843054E+02  0.60538338098E+02  0.74025647047E+02  0.47000000000E+01 0. -1.
        -11    1    3    3    0    0 -0.10528017863E+02 -0.15995243517E+02 -0.81953139505E+01  0.20829069735E+02  0.00000000000E+00 0.  1.
         11    1    3    3    0    0  0.50820341175E+02  0.13660462189E+02  0.11019070957E+03  0.12211186585E+03  0.00000000000E+00 0. -1.
<mgrwt>
<rscale>  0 0.12274160E+03</rscale>
<asrwt>0</asrwt>
<pdfrwt beam="1">  1        2 0.36351448E-01 0.13135474E+03</pdfrwt>
<pdfrwt beam="2">  1       -2 0.89802653E-02 0.13135474E+03</pdfrwt>
<totfact> 0.10515541E+04</totfact>
</mgrwt>
</event>
<event>
 7    1  0.1330601E-005  0.1304264E+03  0.7546771E-02  0.1240353E+00
          2   -1    0    0  501    0  0.00000000000E+00  0.00000000000E+00  0.88034022267E+03  0.88034022267E+03  0.00000000000E+00 0. -1.
         -2   -1    0    0    0  501 -0.00000000000E+00 -0.00000000000E+00 -0.14949563493E+02  0.14949563493E+02  0.00000000000E+00 0.  1.
         23    2    1    2    0    0 -0.24448038718E+02  0.28121058533E+02  0.35399939608E+03  0.36752840109E+03  0.91504385967E+02 0.  0.
          5    1    1    2  502    0  0.15008886185E+02 -0.25113867689E+02  0.18896488911E+02  0.35144562993E+02  0.47000000000E+01 0. -1.
         -5    1    1    2    0  502  0.94391525326E+01 -0.30071908437E+01  0.49249477419E+03  0.49261682208E+03  0.47000000000E+01 0. -1.
        -11    1    3    3    0    0 -0.14415854591E+02 -0.30576682673E+02  0.75326618258E+02  0.82564216251E+02  0.00000000000E+00 0.  1.
         11    1    3    3    0    0 -0.10032184127E+02  0.58697741206E+02  0.27867277782E+03  0.28496418484E+03  0.00000000000E+00 0. -1.
<mgrwt>
<rscale>  0 0.12167857E+03</rscale>
<asrwt>0</asrwt>
<pdfrwt beam="1">  1        2 0.13543692E+00 0.13042644E+03</pdfrwt>
<pdfrwt beam="2">  1       -2 0.22999335E-02 0.13042644E+03</pdfrwt>
<totfact> 0.18675539E+04</totfact>
</mgrwt>
</event>
<event>
 7    1  0.1330601E-005  0.2286542E+03  0.7546771E-02  0.1127591E+00
          2   -1    0    0  501    0  0.00000000000E+00  0.00000000000E+00  0.76387201512E+03  0.76387201512E+03  0.00000000000E+00 0. -1.
         -2   -1    0    0    0  501 -0.00000000000E+00 -0.00000000000E+00 -0.17111099536E+02  0.17111099536E+02  0.00000000000E+00 0.  1.
         23    2    1    2    0    0  0.27029989750E+02  0.23889020781E+02  0.33920027030E+03  0.35316470996E+03  0.91472309068E+02 0.  0.
          5    1    1    2  502    0 -0.76152426951E+02 -0.20821994129E+02  0.21751895798E+03  0.23145050151E+03  0.47000000000E+01 0. -1.
         -5    1    1    2    0  502  0.49122437201E+02 -0.30670266516E+01  0.19004168730E+03  0.19636790319E+03  0.47000000000E+01 0. -1.
        -11    1    3    3    0    0 -0.12829045375E+02  0.47213961323E+02  0.12937298778E+03  0.13831526494E+03  0.00000000000E+00 0.  1.
         11    1    3    3    0    0  0.39859035125E+02 -0.23324940542E+02  0.20982728252E+03  0.21484944501E+03  0.00000000000E+00 0. -1.
<mgrwt>
<rscale>  0 0.22865424E+03</rscale>
<asrwt>0</asrwt>
<pdfrwt beam="1">  1        2 0.11751874E+00 0.22865424E+03</pdfrwt>
<pdfrwt beam="2">  1       -2 0.26324774E-02 0.22865424E+03</pdfrwt>
<totfact> 0.19070631E+04</totfact>
</mgrwt>
</event>
<event>
 7    1  0.1330601E-005  0.1332714E+03  0.7546771E-02  0.1234199E+00
         -2   -1    0    0    0  501 -0.00000000000E+00  0.00000000000E+00  0.18494620049E+03  0.18494620049E+03  0.00000000000E+00 0.  1.
          2   -1    0    0  501    0  0.00000000000E+00 -0.00000000000E+00 -0.11091120259E+03  0.11091120259E+03  0.00000000000E+00 0. -1.
         23    2    1    2    0    0  0.57145477548E+01 -0.45864444670E+02 -0.47729512231E+02  0.11533633243E+03  0.94277038025E+02 0.  0.
          5    1    1    2  502    0  0.31673386459E+02  0.97106823766E+01  0.12381816628E+03  0.12825961587E+03  0.47000000000E+01 0. -1.
         -5    1    1    2    0  502 -0.37387934214E+02  0.36153762294E+02 -0.20536561528E+01  0.52261454786E+02  0.47000000000E+01 0. -1.
        -11    1    3    3    0    0  0.33719448957E+02 -0.31083496916E+02  0.12287179920E+02  0.47477992890E+02  0.00000000000E+00 0.  1.
         11    1    3    3    0    0 -0.28004901202E+02 -0.14780947754E+02 -0.60016692151E+02  0.67858339536E+02  0.00000000000E+00 0. -1.
<mgrwt>
<rscale>  0 0.12555872E+03</rscale>
<asrwt>0</asrwt>
<pdfrwt beam="2">  1        2 0.17063262E-01 0.13327138E+03</pdfrwt>
<pdfrwt beam="1">  1       -2 0.28453261E-01 0.13327138E+03</pdfrwt>
<totfact> 0.36089281E+03</totfact>
</mgrwt>
</event>
<event>
 7    1  0.1330601E-005  0.1442643E+03  0.7546771E-02  0.1217810E+00
         -2   -1    0    0    0  501 -0.00000000000E+00  0.00000000000E+00  0.30840895480E+03  0.30840895480E+03  0.00000000000E+00 0.  1.
          2   -1    0    0  501    0  0.00000000000E+00 -0.00000000000E+00 -0.69006961250E+02  0.69006961250E+02  0.00000000000E+00 0. -1.
         23    2    1    2    0    0  0.40541523224E+02 -0.59532376979E+02  0.25056321342E+02  0.11904360874E+03  0.91410297720E+02 0.  0.
          5    1    1    2  502    0 -0.54420564874E+02 -0.21079894362E+02  0.61260710346E+02  0.84740335494E+02  0.47000000000E+01 0.  1.
         -5    1    1    2    0  502  0.13879041650E+02  0.80612271341E+02  0.15308496187E+03  0.17363197182E+03  0.47000000000E+01 0.  1.
        -11    1    3    3    0    0  0.64954492515E+02 -0.31883666300E+02  0.35656778041E+02  0.80666350450E+02  0.00000000000E+00 0.  1.
         11    1    3    3    0    0 -0.24412969291E+02 -0.27648710679E+02 -0.10600456699E+02  0.38377258293E+02  0.00000000000E+00 0. -1.
<mgrwt>
<rscale>  0 0.13672115E+03</rscale>
<asrwt>0</asrwt>
<pdfrwt beam="2">  1        2 0.10616456E-01 0.14426428E+03</pdfrwt>
<pdfrwt beam="1">  1       -2 0.47447531E-01 0.14426428E+03</pdfrwt>
<totfact> 0.24516411E+03</totfact>
</mgrwt>
</event>
<event>
 7    1  0.1330601E-005  0.1294568E+03  0.7546771E-02  0.1236967E+00
          1   -1    0    0  501    0  0.00000000000E+00  0.00000000000E+00  0.52097940791E+03  0.52097940791E+03  0.00000000000E+00 0. -1.
         -1   -1    0    0    0  501 -0.00000000000E+00 -0.00000000000E+00 -0.45348589908E+02  0.45348589908E+02  0.00000000000E+00 0.  1.
         23    2    1    2    0    0  0.15822160031E+02  0.29732012984E+02  0.40425861449E+03  0.41850023684E+03  0.10287413427E+03 0.  0.
          5    1    1    2  502    0 -0.53002525444E+02 -0.60777656075E+02  0.43548392357E+02  0.91770058616E+02  0.47000000000E+01 0.  1.
         -5    1    1    2    0  502  0.37180365413E+02  0.31045643091E+02  0.27823811160E+02  0.56057702367E+02  0.47000000000E+01 0.  1.
        -11    1    3    3    0    0 -0.43055707707E+02  0.22843062897E+02  0.19598229120E+03  0.20195211797E+03  0.00000000000E+00 0.  1.
         11    1    3    3    0    0  0.58877867738E+02  0.68889500875E+01  0.20827632329E+03  0.21654811886E+03  0.00000000000E+00 0. -1.
<mgrwt>
<rscale>  0 0.12379343E+03</rscale>
<asrwt>0</asrwt>
<pdfrwt beam="1">  1        1 0.80150674E-01 0.12945677E+03</pdfrwt>
<pdfrwt beam="2">  1       -1 0.69767065E-02 0.12945677E+03</pdfrwt>
<totfact> 0.43783530E+03</totfact>
</mgrwt>
</event>
<event>
 7    1  0.1330601E-005  0.1819171E+03  0.7546771E-02  0.1171810E+00
         -2   -1    0    0    0  501 -0.00000000000E+00  0.00000000000E+00  0.37452538267E+02  0.37452538267E+02  0.00000000000E+00 0.  1.
          2   -1    0    0  501    0  0.00000000000E+00 -0.00000000000E+00 -0.77626864305E+03  0.77626864305E+03  0.00000000000E+00 0. -1.
         23    2    1    2    0    0  0.11087596377E+03 -0.71951825249E+02 -0.34217030643E+03  0.37734778753E+03  0.88545410112E+02 0.  0.
          5    1    1    2  502    0 -0.13655676081E+03  0.70211862521E+02 -0.35940238819E+03  0.39085754591E+03  0.47000000000E+01 0. -1.
         -5    1    1    2    0  502  0.25680797043E+02  0.17399627283E+01 -0.37243410168E+02  0.45515847877E+02  0.47000000000E+01 0. -1.
        -11    1    3    3    0    0  0.10210008232E+03 -0.44726612782E+02 -0.17316837306E+03  0.20594218152E+03  0.00000000000E+00 0.  1.
         11    1    3    3    0    0  0.87758814527E+01 -0.27225212467E+02 -0.16900193337E+03  0.17140560601E+03  0.00000000000E+00 0. -1.
<mgrwt>
<rscale>  0 0.17592135E+03</rscale>
<asrwt>0</asrwt>
<pdfrwt beam="2">  1        2 0.11942594E+00 0.18191715E+03</pdfrwt>
<pdfrwt beam="1">  1       -2 0.57619293E-02 0.18191715E+03</pdfrwt>
<totfact> 0.57008420E+03</totfact>
</mgrwt>
</event>
<event>
 7    1  0.1330601E-005  0.1468227E+03  0.7546771E-02  0.1214454E+00
         -1   -1    0    0    0  501 -0.00000000000E+00  0.00000000000E+00  0.27938540018E+03  0.27938540018E+03  0.00000000000E+00 0.  1.
          1   -1    0    0  501    0  0.00000000000E+00 -0.00000000000E+00 -0.63034379943E+02  0.63034379943E+02  0.00000000000E+00 0. -1.
         23    2    1    2    0    0  0.66623843126E+02 -0.38650619646E+02  0.92537943520E+02  0.15036098768E+03  0.90069688320E+02 0.  0.
          5    1    1    2  502    0 -0.97942474971E+02  0.42283382588E+01  0.97719678171E+02  0.13849849367E+03  0.47000000000E+01 0.  1.
         -5    1    1    2    0  502  0.31318631845E+02  0.34422281388E+02  0.26093398550E+02  0.53560298771E+02  0.47000000000E+01 0.  1.
        -11    1    3    3    0    0  0.49017424867E+02  0.19418088273E+02  0.65084903516E+02  0.83760460592E+02  0.00000000000E+00 0.  1.
         11    1    3    3    0    0  0.17606418259E+02 -0.58068707920E+02  0.27453040004E+02  0.66600527091E+02  0.00000000000E+00 0. -1.
<mgrwt>
<rscale>  0 0.13916682E+03</rscale>
<asrwt>0</asrwt>
<pdfrwt beam="2">  1        1 0.96975970E-02 0.14682269E+03</pdfrwt>
<pdfrwt beam="1">  1       -1 0.42982369E-01 0.14682269E+03</pdfrwt>
<totfact> 0.35023732E+03</totfact>
</mgrwt>
</event>
<event>
 7    1  0.1330601E-005  0.1474037E+03  0.7546771E-02  0.1213065E+00
         -2   -1    0    0    0  501 -0.00000000000E+00  0.00000000000E+00  0.18554048854E+03  0.18554048854E+03  0.00000000000E+00 0.  1.
          2   -1    0    0  501    0  0.00000000000E+00 -0.00000000000E+00 -0.97980839209E+02  0.97980839209E+02  0.00000000000E+00 0. -1.
         23    2    1    2    0    0  0.55429466967E+02 -0.55044787406E+02  0.23934441451E+02  0.12297224629E+03  0.91907352481E+02 0.  0.
          5    1    1    2  502    0 -0.64892879536E+02 -0.21748552909E+02  0.40463386800E+02  0.79645847597E+02  0.47000000000E+01 0.  1.
         -5    1    1    2    0  502  0.94634125692E+01  0.76793340316E+02  0.23161821081E+02  0.80903233867E+02  0.47000000000E+01 0.  1.
        -11    1    3    3    0    0  0.50206921463E+02  0.11360644399E+02 -0.19403041795E+01  0.51512755549E+02  0.00000000000E+00 0. -1.
         11    1    3    3    0    0  0.52225455040E+01 -0.66405431805E+02  0.25874745630E+02  0.71459490736E+02  0.00000000000E+00 0.  1.
<mgrwt>
<rscale>  0 0.14019629E+03</rscale>
<asrwt>0</asrwt>
<pdfrwt beam="2">  1        2 0.15073975E-01 0.14740367E+03</pdfrwt>
<pdfrwt beam="1">  1       -2 0.28544691E-01 0.14740367E+03</pdfrwt>
<totfact> 0.41691557E+03</totfact>
</mgrwt>
</event>
<event>
 7    1  0.1330601E-005  0.2176604E+03  0.7546771E-02  0.1139219E+00
         -1   -1    0    0    0  501 -0.00000000000E+00  0.00000000000E+00  0.48553534288E+03  0.48553534288E+03  0.00000000000E+00 0.  1.
          1   -1    0    0  501    0  0.00000000000E+00 -0.00000000000E+00 -0.11390628390E+03  0.11390628390E+03  0.00000000000E+00 0. -1.
         23    2    1    2    0    0  0.10777867958E+03 -0.14190584283E+03  0.41228272468E+02  0.20378936773E+03  0.89871151929E+02 0.  0.
          5    1    1    2  502    0  0.20487691809E+02  0.33669490721E+01  0.75295996323E+02  0.78247421197E+02  0.47000000000E+01 0. -1.
         -5    1    1    2    0  502 -0.12826637139E+03  0.13853889375E+03  0.25510479019E+03  0.31740483785E+03  0.47000000000E+01 0. -1.
        -11    1    3    3    0    0  0.69110354335E+02 -0.61167987974E+02  0.62894471321E+02  0.11168472748E+03  0.00000000000E+00 0.  1.
         11    1    3    3    0    0  0.38668325245E+02 -0.80737854852E+02 -0.21666198853E+02  0.92104640252E+02  0.00000000000E+00 0. -1.
<mgrwt>
<rscale>  0 0.21299100E+03</rscale>
<asrwt>0</asrwt>
<pdfrwt beam="2">  1        1 0.17524044E-01 0.21766036E+03</pdfrwt>
<pdfrwt beam="1">  1       -1 0.74697744E-01 0.21766036E+03</pdfrwt>
<totfact> 0.57134529E+02</totfact>
</mgrwt>
</event>
<event>
 7    1  0.1330601E-005  0.1288556E+03  0.7546771E-02  0.1242090E+00
         -2   -1    0    0    0  501 -0.00000000000E+00  0.00000000000E+00  0.24962710426E+02  0.24962710426E+02  0.00000000000E+00 0.  1.
          2   -1    0    0  501    0  0.00000000000E+00 -0.00000000000E+00 -0.54054061852E+03  0.54054061852E+03  0.00000000000E+00 0. -1.
         23    2    1    2    0    0 -0.31177564947E+02  0.26026622824E+01 -0.28045174910E+03  0.29738381044E+03  0.93835668778E+02 0.  0.
          5    1    1    2  502    0  0.36935357949E+02 -0.18005916851E+02 -0.24493593798E+03  0.24840317515E+03  0.47000000000E+01 0. -1.
         -5    1    1    2    0  502 -0.57577930018E+01  0.15403254568E+02  0.98097789858E+01  0.19716343355E+02  0.47000000000E+01 0. -1.
        -11    1    3    3    0    0 -0.82050178376E+01 -0.39693600444E+02 -0.19628516748E+03  0.20042647332E+03  0.00000000000E+00 0. -1.
         11    1    3    3    0    0 -0.22972547109E+02  0.42296262727E+02 -0.84166581619E+02  0.96957337127E+02  0.00000000000E+00 0.  1.
<mgrwt>
<rscale>  0 0.12061234E+03</rscale>
<asrwt>0</asrwt>
<pdfrwt beam="2">  1        2 0.83160094E-01 0.12885560E+03</pdfrwt>
<pdfrwt beam="1">  1       -2 0.38404170E-02 0.12885560E+03</pdfrwt>
<totfact> 0.15680455E+04</totfact>
</mgrwt>
</event>
<event>
 7    1  0.1330601E-005  0.2337488E+03  0.7546771E-02  0.1127005E+00
         -1   -1    0    0    0  501 -0.00000000000E+00  0.00000000000E+00  0.25825532200E+03  0.25825532200E+03  0.00000000000E+00 0.  1.
          1   -1    0    0  501    0  0.00000000000E+00 -0.00000000000E+00 -0.27996254264E+03  0.27996254264E+03  0.00000000000E+00 0. -1.
         23    2    1    2    0    0  0.19200261462E+03 -0.46296220157E+02 -0.15716751706E+03  0.26805492148E+03  0.90241168488E+02 0.  0.
          5    1    1    2  502    0 -0.20816479178E+03  0.30796242531E+02  0.12661983329E+03  0.24563318439E+03  0.47000000000E+01 0.  1.
         -5    1    1    2    0  502  0.16162177161E+02  0.15499977627E+02  0.88404631241E+01  0.24529758769E+02  0.47000000000E+01 0.  1.
        -11    1    3    3    0    0  0.12698493627E+03  0.14893243042E+02 -0.93554423289E+02  0.15842794212E+03  0.00000000000E+00 0. -1.
         11    1    3    3    0    0  0.65017678351E+02 -0.61189463200E+02 -0.63613093768E+02  0.10962697936E+03  0.00000000000E+00 0.  1.
<mgrwt>
<rscale>  0 0.22948241E+03</rscale>
<asrwt>0</asrwt>
<pdfrwt beam="2">  1        1 0.43071160E-01 0.23374885E+03</pdfrwt>
<pdfrwt beam="1">  1       -1 0.39731588E-01 0.23374885E+03</pdfrwt>
<totfact> 0.60029899E+02</totfact>
</mgrwt>
</event>
<event>
 7    1  0.1330601E-005  0.1351227E+03  0.7546771E-02  0.1232257E+00
         -2   -1    0    0    0  501 -0.00000000000E+00  0.00000000000E+00  0.17445013616E+02  0.17445013616E+02  0.00000000000E+00 0.  1.
          2   -1    0    0  501    0  0.00000000000E+00 -0.00000000000E+00 -0.83223670260E+03  0.83223670260E+03  0.00000000000E+00 0. -1.
         23    2    1    2    0    0 -0.27346319662E+02 -0.43363795915E+02 -0.39519782977E+03  0.40886753773E+03  0.91449979555E+02 0.  0.
          5    1    1    2  502    0  0.31729695491E+01  0.65731540308E+02 -0.39222473609E+03  0.39773488247E+03  0.47000000000E+01 0.  1.
         -5    1    1    2    0  502  0.24173350113E+02 -0.22367744393E+02 -0.27369123120E+02  0.43079296016E+02  0.47000000000E+01 0.  1.
        -11    1    3    3    0    0  0.23961816600E+02 -0.47105100060E+02 -0.22106511106E+03  0.22729461594E+03  0.00000000000E+00 0.  1.
         11    1    3    3    0    0 -0.51308136262E+02  0.37413041454E+01 -0.17413271871E+03  0.18157292180E+03  0.00000000000E+00 0. -1.
<mgrwt>
<rscale>  0 0.12681700E+03</rscale>
<asrwt>0</asrwt>
<pdfrwt beam="2">  1        2 0.12803643E+00 0.13512266E+03</pdfrwt>
<pdfrwt beam="1">  1       -2 0.26838479E-02 0.13512266E+03</pdfrwt>
<totfact> 0.16057980E+04</totfact>
</mgrwt>
</event>
<event>
 7    1  0.1330601E-005  0.1386645E+03  0.7546771E-02  0.1227996E+00
         -1   -1    0    0    0  501 -0.00000000000E+00  0.00000000000E+00  0.38167321912E+03  0.38167321912E+03  0.00000000000E+00 0.  1.
          1   -1    0    0  501    0  0.00000000000E+00 -0.00000000000E+00 -0.86657362321E+02  0.86657362321E+02  0.00000000000E+00 0. -1.
         23    2    1    2    0    0 -0.52966419641E+02  0.28230701105E+02 -0.34030664636E+02  0.11125991083E+03  0.87282687450E+02 0.  0.
          5    1    1    2  502    0  0.65936963227E+01 -0.36593015037E+02  0.16487075820E+02  0.40944343318E+02  0.47000000000E+01 0.  1.
         -5    1    1    2    0  502  0.46372723318E+02  0.83623139314E+01  0.31255944561E+03  0.31612632729E+03  0.47000000000E+01 0.  1.
        -11    1    3    3    0    0 -0.27108898459E+02 -0.70134909575E+01 -0.55796349179E+02  0.62428471171E+02  0.00000000000E+00 0. -1.
         11    1    3    3    0    0 -0.25857521182E+02  0.35244192063E+02  0.21765684543E+02  0.48831439662E+02  0.00000000000E+00 0.  1.
<mgrwt>
<rscale>  0 0.12963624E+03</rscale>
<asrwt>0</asrwt>
<pdfrwt beam="2">  1        1 0.13331902E-01 0.13866453E+03</pdfrwt>
<pdfrwt beam="1">  1       -1 0.58718956E-01 0.13866453E+03</pdfrwt>
<totfact> 0.12973210E+03</totfact>
</mgrwt>
</event>
<event>
 7    1  0.1330601E-005  0.1635411E+03  0.7546771E-02  0.1191401E+00
          1   -1    0    0  501    0  0.00000000000E+00  0.00000000000E+00  0.56052377439E+03  0.56052377439E+03  0.00000000000E+00 0. -1.
         -1   -1    0    0    0  501 -0.00000000000E+00 -0.00000000000E+00 -0.47273215368E+02  0.47273215368E+02  0.00000000000E+00 0.  1.
         23    2    1    2    0    0  0.42202936270E+02 -0.96641389240E+02  0.34692829949E+03  0.37454008470E+03  0.93810362526E+02 0.  0.
          5    1    1    2  502    0 -0.12996307847E+02  0.34014739166E+00  0.12269870683E+03  0.12347502734E+03  0.47000000000E+01 0. -1.
         -5    1    1    2    0  502 -0.29206628423E+02  0.96301241849E+02  0.43623552704E+02  0.10978187772E+03  0.47000000000E+01 0. -1.
        -11    1    3    3    0    0  0.22970467054E+02 -0.10821514906E+03  0.32437490385E+03  0.34272035115E+03  0.00000000000E+00 0. -1.
         11    1    3    3    0    0  0.19232469216E+02  0.11573759819E+02  0.22553395633E+02  0.31819733548E+02  0.00000000000E+00 0.  1.
<mgrwt>
<rscale>  0 0.15762828E+03</rscale>
<asrwt>0</asrwt>
<pdfrwt beam="1">  1        1 0.86234422E-01 0.16354109E+03</pdfrwt>
<pdfrwt beam="2">  1       -1 0.72728028E-02 0.16354109E+03</pdfrwt>
<totfact> 0.37707513E+03</totfact>
</mgrwt>
</event>
<event>
 7    1  0.1330601E-005  0.1320235E+03  0.7546771E-02  0.1237905E+00
         -2   -1    0    0    0  501 -0.00000000000E+00  0.00000000000E+00  0.22873847980E+02  0.22873847980E+02  0.00000000000E+00 0.  1.
          2   -1    0    0  501    0  0.00000000000E+00 -0.00000000000E+00 -0.58907936410E+03  0.58907936410E+03  0.00000000000E+00 0. -1.
         23    2    1    2    0    0  0.23042651267E+02  0.35700218795E+02 -0.24756130522E+03  0.26704113701E+03  0.90658146995E+02 0.  0.
          5    1    1    2  502    0 -0.34561868418E+02  0.32091258171E+02 -0.55952869669E+02  0.73329293081E+02  0.47000000000E+01 0. -1.
         -5    1    1    2    0  502  0.11519217150E+02 -0.67791476966E+02 -0.26269134123E+03  0.27158278198E+03  0.47000000000E+01 0. -1.
        -11    1    3    3    0    0 -0.31074693210E+02 -0.58383604257E+01 -0.69333112084E+02  0.76202384752E+02  0.00000000000E+00 0.  1.
         11    1    3    3    0    0  0.54117344477E+02  0.41538579220E+02 -0.17822819313E+03  0.19083875226E+03  0.00000000000E+00 0. -1.
<mgrwt>
<rscale>  0 0.12320280E+03</rscale>
<asrwt>0</asrwt>
<pdfrwt beam="2">  1        2 0.90627605E-01 0.13202351E+03</pdfrwt>
<pdfrwt beam="1">  1       -2 0.35190531E-02 0.13202351E+03</pdfrwt>
<totfact> 0.16237262E+04</totfact>
</mgrwt>
</event>
<event>
 7    1  0.1330601E-005  0.1286883E+03  0.7546771E-02  0.1242317E+00
          2   -1    0    0  501    0  0.00000000000E+00  0.00000000000E+00  0.93012076018E+02  0.93012076018E+02  0.00000000000E+00 0. -1.
         -2   -1    0    0    0  501 -0.00000000000E+00 -0.00000000000E+00 -0.14037857723E+03  0.14037857723E+03  0.00000000000E+00 0.  1.
         23    2    1    2    0    0  0.28850439019E+02  0.99790079168E+01 -0.97898151495E+01  0.99328383811E+02  0.94012546606E+02 0.  0.
          5    1    1    2  502    0 -0.22266148224E+02 -0.40206486633E+02  0.33056542030E+02  0.56808167503E+02  0.47000000000E+01 0.  1.
         -5    1    1    2    0  502 -0.65842907951E+01  0.30227478717E+02 -0.70633228091E+02  0.77254101933E+02  0.47000000000E+01 0.  1.
        -11    1    3    3    0    0  0.40000720316E+02  0.18913471563E+02 -0.43910362848E+02  0.62336963335E+02  0.00000000000E+00 0.  1.
         11    1    3    3    0    0 -0.11150281297E+02 -0.89344636460E+01  0.34120547698E+02  0.36991420477E+02  0.00000000000E+00 0. -1.
<mgrwt>
<rscale>  0 0.12047385E+03</rscale>
<asrwt>0</asrwt>
<pdfrwt beam="1">  1        2 0.14309550E-01 0.12868832E+03</pdfrwt>
<pdfrwt beam="2">  1       -2 0.21596704E-01 0.12868832E+03</pdfrwt>
<totfact> 0.71456694E+03</totfact>
</mgrwt>
</event>
<event>
 7    1  0.1330601E-005  0.1327667E+03  0.7546771E-02  0.1236970E+00
         -1   -1    0    0    0  501 -0.00000000000E+00  0.00000000000E+00  0.31014960160E+02  0.31014960160E+02  0.00000000000E+00 0.  1.
          1   -1    0    0  501    0  0.00000000000E+00 -0.00000000000E+00 -0.43825311124E+03  0.43825311124E+03  0.00000000000E+00 0. -1.
         23    2    1    2    0    0  0.10249409625E+02 -0.41143738588E+02 -0.18064604371E+03  0.20664480194E+03  0.90946266763E+02 0.  0.
          5    1    1    2  502    0 -0.45584867678E+02  0.60351171518E+02 -0.78552966569E+02  0.10914624419E+03  0.47000000000E+01 0. -1.
         -5    1    1    2    0  502  0.35335458053E+02 -0.19207432930E+02 -0.14803914081E+03  0.15347702527E+03  0.47000000000E+01 0.  1.
        -11    1    3    3    0    0 -0.25891403197E+02 -0.54539122972E+02 -0.12664883137E+03  0.14030255586E+03  0.00000000000E+00 0. -1.
         11    1    3    3    0    0  0.36140812822E+02  0.13395384384E+02 -0.53997212339E+02  0.66342246077E+02  0.00000000000E+00 0.  1.
<mgrwt>
<rscale>  0 0.12379144E+03</rscale>
<asrwt>0</asrwt>
<pdfrwt beam="2">  1        1 0.67423546E-01 0.13276671E+03</pdfrwt>
<pdfrwt beam="1">  1       -1 0.47715330E-02 0.13276671E+03</pdfrwt>
<totfact> 0.96432845E+03</totfact>
</mgrwt>
</event>
<event>
 7    1  0.1330601E-005  0.1572805E+03  0.7546771E-02  0.1199890E+00
         -1   -1    0    0    0  501 -0.00000000000E+00  0.00000000000E+00  0.58356020436E+02  0.58356020436E+02  0.00000000000E+00 0.  1.
          1   -1    0    0  501    0  0.00000000000E+00 -0.00000000000E+00 -0.36230866402E+03  0.36230866402E+03  0.00000000000E+00 0. -1.
         23    2    1    2    0    0 -0.65649536904E+02 -0.68231398319E+02 -0.16171019202E+03  0.20860318634E+03  0.91649974014E+02 0.  0.
          5    1    1    2  502    0  0.40848565055E+02 -0.31153660417E+02 -0.68526485176E+02  0.85773684747E+02  0.47000000000E+01 0. -1.
         -5    1    1    2    0  502  0.24800971849E+02  0.99385058735E+02 -0.73715966385E+02  0.12628781337E+03  0.47000000000E+01 0.  1.
        -11    1    3    3    0    0 -0.37495065258E+02 -0.48114394398E+02 -0.16293450479E+03  0.17397852660E+03  0.00000000000E+00 0. -1.
         11    1    3    3    0    0 -0.28154471646E+02 -0.20117003921E+02  0.12243127709E+01  0.34624659741E+02  0.00000000000E+00 0.  1.
<mgrwt>
<rscale>  0 0.15047553E+03</rscale>
<asrwt>0</asrwt>
<pdfrwt beam="2">  1        1 0.55739795E-01 0.15728053E+03</pdfrwt>
<pdfrwt beam="1">  1       -1 0.89778493E-02 0.15728053E+03</pdfrwt>
<totfact> 0.48077350E+03</totfact>
</mgrwt>
</event>
<event>
 7    1  0.1330601E-005  0.1638378E+03  0.7546771E-02  0.1191412E+00
         -2   -1    0    0    0  501 -0.00000000000E+00  0.00000000000E+00  0.25390131102E+02  0.25390131102E+02  0.00000000000E+00 0.  1.
          2   -1    0    0  501    0  0.00000000000E+00 -0.00000000000E+00 -0.99267529839E+03  0.99267529839E+03  0.00000000000E+00 0. -1.
         23    2    1    2    0    0  0.47105581437E+02 -0.94865009685E+02 -0.59493406403E+03  0.61126306083E+03  0.92074334790E+02 0.  0.
          5    1    1    2  502    0 -0.68781631669E+01  0.89540272362E+02 -0.11379137718E+03  0.14503564053E+03  0.47000000000E+01 0.  1.
         -5    1    1    2    0  502 -0.40227418270E+02  0.53247373234E+01 -0.25855972607E+03  0.26176672813E+03  0.47000000000E+01 0.  1.
        -11    1    3    3    0    0  0.54402161884E+02 -0.16052995354E+02 -0.32700060061E+03  0.33188354385E+03  0.00000000000E+00 0. -1.
         11    1    3    3    0    0 -0.72965804478E+01 -0.78812014331E+02 -0.26793346342E+03  0.27937951698E+03  0.00000000000E+00 0.  1.
<mgrwt>
<rscale>  0 0.15761872E+03</rscale>
<asrwt>0</asrwt>
<pdfrwt beam="2">  1        2 0.15271927E+00 0.16383779E+03</pdfrwt>
<pdfrwt beam="1">  1       -2 0.39061743E-02 0.16383779E+03</pdfrwt>
<totfact> 0.73910903E+03</totfact>
</mgrwt>
</event>
<event>
 7    1  0.1330601E-005  0.1372911E+03  0.7546771E-02  0.1225542E+00
          2   -1    0    0  501    0  0.00000000000E+00  0.00000000000E+00  0.49988362926E+02  0.49988362926E+02  0.00000000000E+00 0. -1.
         -2   -1    0    0    0  501 -0.00000000000E+00 -0.00000000000E+00 -0.42425793971E+03  0.42425793971E+03  0.00000000000E+00 0.  1.
         23    2    1    2    0    0  0.15492141609E+02  0.54638392979E+02 -0.56296080968E+02  0.12789965781E+03  0.99818401595E+02 0.  0.
          5    1    1    2  502    0 -0.66745145479E+02 -0.53723564602E+02 -0.20027246391E+03  0.21788135680E+03  0.47000000000E+01 0. -1.
         -5    1    1    2    0  502  0.51253003870E+02 -0.91482837699E+00 -0.11770103191E+03  0.12846528803E+03  0.47000000000E+01 0. -1.
        -11    1    3    3    0    0 -0.48220898589E+01  0.43322420046E+02  0.20130565040E+02  0.48013792581E+02  0.00000000000E+00 0. -1.
         11    1    3    3    0    0  0.20314231468E+02  0.11315972933E+02 -0.76426646007E+02  0.79885865230E+02  0.00000000000E+00 0.  1.
<mgrwt>
<rscale>  0 0.13129816E+03</rscale>
<asrwt>0</asrwt>
<pdfrwt beam="1">  1        2 0.76905172E-02 0.13729113E+03</pdfrwt>
<pdfrwt beam="2">  1       -2 0.65270454E-01 0.13729113E+03</pdfrwt>
<totfact> 0.19133069E+03</totfact>
</mgrwt>
</event>
<event>
 7    1  0.1330601E-005  0.2240868E+03  0.7546771E-02  0.1133895E+00
         -2   -1    0    0    0  501 -0.00000000000E+00  0.00000000000E+00  0.85939492159E+03  0.85939492159E+03  0.00000000000E+00 0.  1.
          2   -1    0    0  501    0  0.00000000000E+00 -0.00000000000E+00 -0.61618602371E+02  0.61618602371E+02  0.00000000000E+00 0. -1.
         23    2    1    2    0    0 -0.16188329661E+03 -0.91559773047E+02  0.22773981117E+03  0.30851331054E+03  0.93411173990E+02 0.  0.
          5    1    1    2  502    0  0.83026064054E+02  0.11462386413E+03  0.37221379377E+03  0.39824258413E+03  0.47000000000E+01 0.  1.
         -5    1    1    2    0  502  0.78857232559E+02 -0.23064091088E+02  0.19782271427E+03  0.21425762928E+03  0.47000000000E+01 0.  1.
        -11    1    3    3    0    0 -0.59935110354E+02 -0.69280008962E+02  0.15916253882E+03  0.18364272613E+03  0.00000000000E+00 0.  1.
         11    1    3    3    0    0 -0.10194818626E+03 -0.22279764084E+02  0.68577272348E+02  0.12487058441E+03  0.00000000000E+00 0. -1.
<mgrwt>
<rscale>  0 0.21998448E+03</rscale>
<asrwt>0</asrwt>
<pdfrwt beam="2">  1        2 0.94797856E-02 0.22408679E+03</pdfrwt>
<pdfrwt beam="1">  1       -2 0.13221459E+00 0.22408679E+03</pdfrwt>
<totfact> 0.29929687E+02</totfact>
</mgrwt>
</event>
<event>
 7    1  0.1330601E-005  0.1756465E+03  0.7546771E-02  0.1178156E+00
         -2   -1    0    0    0  501 -0.00000000000E+00  0.00000000000E+00  0.99839425828E+02  0.99839425828E+02  0.00000000000E+00 0.  1.
          2   -1    0    0  501    0  0.00000000000E+00 -0.00000000000E+00 -0.28840253567E+03  0.28840253567E+03  0.00000000000E+00 0. -1.
         23    2    1    2    0    0 -0.11940884432E+03  0.31105767671E+02 -0.13639294508E+03  0.20501149767E+03  0.90557373118E+02 0.  0.
          5    1    1    2  502    0  0.35952498153E+02  0.34338291047E+02  0.21128856313E+02  0.54223785598E+02  0.47000000000E+01 0.  1.
         -5    1    1    2    0  502  0.83456346166E+02 -0.65444058718E+02 -0.73299021073E+02  0.12900667823E+03  0.47000000000E+01 0.  1.
        -11    1    3    3    0    0 -0.12445195753E+03  0.14699289279E+02 -0.86560380553E+02  0.15230580527E+03  0.00000000000E+00 0.  1.
         11    1    3    3    0    0  0.50431132087E+01  0.16406478392E+02 -0.49832564529E+02  0.52705692402E+02  0.00000000000E+00 0. -1.
<mgrwt>
<rscale>  0 0.16970451E+03</rscale>
<asrwt>0</asrwt>
<pdfrwt beam="2">  1        2 0.44369621E-01 0.17564645E+03</pdfrwt>
<pdfrwt beam="1">  1       -2 0.15359912E-01 0.17564645E+03</pdfrwt>
<totfact> 0.36678044E+03</totfact>
</mgrwt>
</event>
<event>
 7    1  0.1330601E-005  0.1525044E+03  0.7546771E-02  0.1217791E+00
         -2   -1    0    0    0  501 -0.00000000000E+00  0.00000000000E+00  0.19796019590E+02  0.19796019590E+02  0.00000000000E+00 0.  1.
          2   -1    0    0  501    0  0.00000000000E+00 -0.00000000000E+00 -0.82198071085E+03  0.82198071085E+03  0.00000000000E+00 0. -1.
         23    2    1    2    0    0  0.27228264104E+02  0.30900193965E+02 -0.39076161340E+03  0.40299825835E+03  0.89536346680E+02 0.  0.
          5    1    1    2  502    0 -0.45353327586E+02  0.27058225570E+02 -0.34341102888E+03  0.34747992266E+03  0.47000000000E+01 0. -1.
         -5    1    1    2    0  502  0.18125063482E+02 -0.57958419535E+02 -0.68012048985E+02  0.91298549432E+02  0.47000000000E+01 0.  1.
        -11    1    3    3    0    0 -0.20019185319E+02  0.42340502878E+02 -0.14177969370E+03  0.14931499426E+03  0.00000000000E+00 0. -1.
         11    1    3    3    0    0  0.47247449423E+02 -0.11440308913E+02 -0.24898191970E+03  0.25368326409E+03  0.00000000000E+00 0.  1.
<mgrwt>
<rscale>  0 0.13673534E+03</rscale>
<asrwt>0</asrwt>
<pdfrwt beam="2">  1        2 0.12645859E+00 0.15250442E+03</pdfrwt>
<pdfrwt beam="1">  1       -2 0.30455410E-02 0.15250442E+03</pdfrwt>
<totfact> 0.13658332E+04</totfact>
</mgrwt>
</event>
<event>
 7    1  0.1330601E-005  0.1351768E+03  0.7546771E-02  0.1236570E+00
          2   -1    0    0  501    0  0.00000000000E+00  0.00000000000E+00  0.28244920011E+03  0.28244920011E+03  0.00000000000E+00 0. -1.
         -2   -1    0    0    0  501 -0.00000000000E+00 -0.00000000000E+00 -0.47324242528E+02  0.47324242528E+02  0.00000000000E+00 0.  1.
         23    2    1    2    0    0  0.37336491911E+01  0.51277982484E+02  0.10431369870E+03  0.14166615093E+03  0.80898572056E+02 0.  0.
          5    1    1    2  502    0 -0.61288061671E+02 -0.34682401226E+02  0.46278771694E+02  0.84397335075E+02  0.47000000000E+01 0. -1.
         -5    1    1    2    0  502  0.57554412480E+02 -0.16595581258E+02  0.84532487193E+02  0.10370995663E+03  0.47000000000E+01 0. -1.
        -11    1    3    3    0    0  0.52472129306E+01 -0.20733643147E+02  0.38783554412E+02  0.44289742542E+02  0.00000000000E+00 0. -1.
         11    1    3    3    0    0 -0.15135637395E+01  0.72011625631E+02  0.65530144283E+02  0.97376408390E+02  0.00000000000E+00 0.  1.
<mgrwt>
<rscale>  0 0.12404491E+03</rscale>
<asrwt>0</asrwt>
<pdfrwt beam="1">  1        2 0.43453722E-01 0.13517680E+03</pdfrwt>
<pdfrwt beam="2">  1       -2 0.72806529E-02 0.13517680E+03</pdfrwt>
<totfact> 0.12055587E+04</totfact>
</mgrwt>
</event>
<event>
 7    1  0.1330601E-005  0.1429643E+03  0.7546771E-02  0.1220812E+00
          3   -1    0    0  501    0  0.00000000000E+00  0.00000000000E+00  0.89638448894E+02  0.89638448894E+02  0.00000000000E+00 0. -1.
         -3   -1    0    0    0  501 -0.00000000000E+00 -0.00000000000E+00 -0.18588904286E+03  0.18588904286E+03  0.00000000000E+00 0.  1.
         23    2    1    2    0    0  0.66693356824E+02  0.19060142321E+02 -0.21892351413E+02  0.11438174925E+03  0.88275798730E+02 0.  0.
          5    1    1    2  502    0  0.50166358528E+01 -0.83559017595E+01  0.31186548956E+02  0.33010279691E+02  0.47000000000E+01 0.  1.
         -5    1    1    2    0  502 -0.71709992677E+02 -0.10704240561E+02 -0.10554479150E+03  0.12813546281E+03  0.47000000000E+01 0.  1.
        -11    1    3    3    0    0  0.74882270574E+02  0.43291328115E+02 -0.14052557198E+02  0.87629720416E+02  0.00000000000E+00 0.  1.
         11    1    3    3    0    0 -0.81889137504E+01 -0.24231185795E+02 -0.78397942155E+01  0.26752028834E+02  0.00000000000E+00 0. -1.
<mgrwt>
<rscale>  0 0.13458106E+03</rscale>
<asrwt>0</asrwt>
<pdfrwt beam="1">  1        3 0.13790531E-01 0.14296434E+03</pdfrwt>
<pdfrwt beam="2">  1       -3 0.28598314E-01 0.14296434E+03</pdfrwt>
<totfact> 0.11685725E+03</totfact>
</mgrwt>
</event>
<event>
 7    1  0.1330601E-005  0.2717130E+03  0.7546771E-02  0.1122007E+00
         -1   -1    0    0    0  501 -0.00000000000E+00  0.00000000000E+00  0.12782265948E+03  0.12782265948E+03  0.00000000000E+00 0.  1.
          1   -1    0    0  501    0  0.00000000000E+00 -0.00000000000E+00 -0.36395394306E+03  0.36395394306E+03  0.00000000000E+00 0. -1.
         23    2    1    2    0    0 -0.12708806903E+03  0.99924520678E+01 -0.11543271955E+03  0.19446180249E+03  0.90771435468E+02 0.  0.
          5    1    1    2  502    0 -0.71142806068E+01  0.91111355804E+02 -0.19862033525E+01  0.91531017413E+02  0.47000000000E+01 0. -1.
         -5    1    1    2    0  502  0.13420234964E+03 -0.10110380787E+03 -0.11871236068E+03  0.20578378263E+03  0.47000000000E+01 0.  1.
        -11    1    3    3    0    0 -0.87226107243E+02 -0.36632858228E+02 -0.62010540197E+02  0.11311793484E+03  0.00000000000E+00 0.  1.
         11    1    3    3    0    0 -0.39861961790E+02  0.46625310296E+02 -0.53422179353E+02  0.81343867653E+02  0.00000000000E+00 0. -1.
<mgrwt>
<rscale>  0 0.23670526E+03</rscale>
<asrwt>0</asrwt>
<pdfrwt beam="2">  1        1 0.55992913E-01 0.27171299E+03</pdfrwt>
<pdfrwt beam="1">  1       -1 0.19665025E-01 0.27171299E+03</pdfrwt>
<totfact> 0.14183985E+03</totfact>
</mgrwt>
</event>
<event>
 7    1  0.1330601E-005  0.2178042E+03  0.7546771E-02  0.1139462E+00
         -1   -1    0    0    0  501 -0.00000000000E+00  0.00000000000E+00  0.10197707774E+03  0.10197707774E+03  0.00000000000E+00 0.  1.
          1   -1    0    0  501    0  0.00000000000E+00 -0.00000000000E+00 -0.58705678846E+03  0.58705678846E+03  0.00000000000E+00 0. -1.
         23    2    1    2    0    0  0.11789203565E+03 -0.13388320874E+03 -0.41569072588E+03  0.46044365027E+03  0.85943759770E+02 0.  0.
          5    1    1    2  502    0 -0.58030265998E+02  0.14478943543E+03 -0.41429787040E+02  0.16146209969E+03  0.47000000000E+01 0.  1.
         -5    1    1    2    0  502 -0.59861769655E+02 -0.10906226682E+02 -0.27959197806E+02  0.67128116230E+02  0.47000000000E+01 0.  1.
        -11    1    3    3    0    0  0.11534751792E+03 -0.73562234167E+02 -0.26829573394E+03  0.30116283475E+03  0.00000000000E+00 0.  1.
         11    1    3    3    0    0  0.25445177287E+01 -0.60320974577E+02 -0.14739499194E+03  0.15928081552E+03  0.00000000000E+00 0. -1.
<mgrwt>
<rscale>  0 0.21267853E+03</rscale>
<asrwt>0</asrwt>
<pdfrwt beam="2">  1        1 0.90316432E-01 0.21780417E+03</pdfrwt>
<pdfrwt beam="1">  1       -1 0.15688781E-01 0.21780417E+03</pdfrwt>
<totfact> 0.10851438E+03</totfact>
</mgrwt>
</event>
<event>
 7    1  0.1330601E-005  0.1777440E+03  0.7546771E-02  0.1175860E+00
          1   -1    0    0  501    0  0.00000000000E+00  0.00000000000E+00  0.42859194726E+03  0.42859194726E+03  0.00000000000E+00 0. -1.
         -1   -1    0    0    0  501 -0.00000000000E+00 -0.00000000000E+00 -0.66184707865E+02  0.66184707865E+02  0.00000000000E+00 0.  1.
         23    2    1    2    0    0 -0.93322597072E+02  0.85186235844E+02  0.20505499808E+03  0.25738950713E+03  0.90752433791E+02 0.  0.
          5    1    1    2  502    0  0.26930351248E+02  0.73162002076E+01 -0.14021149586E+02  0.31582483112E+02  0.47000000000E+01 0.  1.
         -5    1    1    2    0  502  0.66392245824E+02 -0.92502436052E+02  0.17137339090E+03  0.20580466489E+03  0.47000000000E+01 0.  1.
        -11    1    3    3    0    0 -0.48028239973E+02  0.76927475395E+00  0.12008628472E+03  0.12933684470E+03  0.00000000000E+00 0. -1.
         11    1    3    3    0    0 -0.45294357099E+02  0.84416961090E+02  0.84968713363E+02  0.12805266243E+03  0.00000000000E+00 0.  1.
<mgrwt>
<rscale>  0 0.17192031E+03</rscale>
<asrwt>0</asrwt>
<pdfrwt beam="1">  1        1 0.65937221E-01 0.17774400E+03</pdfrwt>
<pdfrwt beam="2">  1       -1 0.10182263E-01 0.17774400E+03</pdfrwt>
<totfact> 0.32215422E+03</totfact>
</mgrwt>
</event>
<event>
 7    1  0.1330601E-005  0.1980342E+03  0.7546771E-02  0.1155845E+00
          2   -1    0    0  501    0  0.00000000000E+00  0.00000000000E+00  0.79458846555E+03  0.79458846555E+03  0.00000000000E+00 0. -1.
         -2   -1    0    0    0  501 -0.00000000000E+00 -0.00000000000E+00 -0.44727181029E+02  0.44727181029E+02  0.00000000000E+00 0.  1.
         23    2    1    2    0    0  0.14068446568E+03 -0.61652989322E+02  0.33156979555E+03  0.37651405953E+03  0.90725397363E+02 0.  0.
          5    1    1    2  502    0 -0.33084494502E+02  0.66070944248E+02  0.26673904277E+03  0.27682442159E+03  0.47000000000E+01 0. -1.
         -5    1    1    2    0  502 -0.10759997118E+03 -0.44179549266E+01  0.15155244620E+03  0.18597716546E+03  0.47000000000E+01 0. -1.
        -11    1    3    3    0    0  0.10472672571E+03 -0.37338913261E+02  0.13346165877E+03  0.17370634957E+03  0.00000000000E+00 0.  1.
         11    1    3    3    0    0  0.35957739974E+02 -0.24314076061E+02  0.19810813679E+03  0.20280770996E+03  0.00000000000E+00 0. -1.
<mgrwt>
<rscale>  0 0.19293010E+03</rscale>
<asrwt>0</asrwt>
<pdfrwt beam="1">  1        2 0.12224437E+00 0.19803419E+03</pdfrwt>
<pdfrwt beam="2">  1       -2 0.68811054E-02 0.19803419E+03</pdfrwt>
<totfact> 0.42307554E+03</totfact>
</mgrwt>
</event>
<event>
 7    1  0.1330601E-005  0.1687816E+03  0.7546771E-02  0.1186077E+00
         -1   -1    0    0    0  501 -0.00000000000E+00  0.00000000000E+00  0.48429752908E+02  0.48429752908E+02  0.00000000000E+00 0.  1.
          1   -1    0    0  501    0  0.00000000000E+00 -0.00000000000E+00 -0.50972229080E+03  0.50972229080E+03  0.00000000000E+00 0. -1.
         23    2    1    2    0    0  0.37966060230E+02 -0.10686213107E+03 -0.23491767677E+03  0.27578207881E+03  0.89490241622E+02 0.  0.
          5    1    1    2  502    0 -0.70336413470E+01  0.12630295809E+03 -0.20135814252E+03  0.23784259688E+03  0.47000000000E+01 0. -1.
         -5    1    1    2    0  502 -0.30932418883E+02 -0.19440827024E+02 -0.25016718601E+02  0.44527368021E+02  0.47000000000E+01 0. -1.
        -11    1    3    3    0    0  0.36607779124E+01 -0.18456967223E+02  0.35528965429E+01  0.19148994957E+02  0.00000000000E+00 0.  1.
         11    1    3    3    0    0  0.34305282318E+02 -0.88405163842E+02 -0.23847057332E+03  0.25663308385E+03  0.00000000000E+00 0. -1.
<mgrwt>
<rscale>  0 0.16234265E+03</rscale>
<asrwt>0</asrwt>
<pdfrwt beam="2">  1        1 0.78418812E-01 0.16878157E+03</pdfrwt>
<pdfrwt beam="1">  1       -1 0.74507314E-02 0.16878157E+03</pdfrwt>
<totfact> 0.41313931E+03</totfact>
</mgrwt>
</event>
<event>
 7    1  0.2373141E-005  0.2487274E+03  0.7546771E-02  0.1116710E+00
          2   -1    0    0  501    0  0.00000000000E+00  0.00000000000E+00  0.13635294791E+04  0.13635294791E+04  0.00000000000E+00 0.  1.
         -2   -1    0    0    0  501 -0.00000000000E+00 -0.00000000000E+00 -0.42685900470E+02  0.42685900470E+02  0.00000000000E+00 0. -1.
         23    2    1    2    0    0 -0.17320726400E+03 -0.12742964695E+03  0.68005002422E+03  0.71884234388E+03  0.89594691190E+02 0.  0.
          5    1    1    2  502    0  0.17604359085E+02  0.38421528906E+02  0.33431196758E+02  0.54091240131E+02  0.47000000000E+01 0.  1.
         -5    1    1    2    0  502  0.15560290491E+03  0.89008118044E+02  0.60736235765E+03  0.63328179555E+03  0.47000000000E+01 0.  1.
        -11    1    3    3    0    0 -0.10817452812E+03 -0.25091857694E+02  0.29832734207E+03  0.31832457160E+03  0.00000000000E+00 0. -1.
         11    1    3    3    0    0 -0.65032735875E+02 -0.10233778926E+03  0.38172268214E+03  0.40051777227E+03  0.00000000000E+00 0.  1.
<mgrwt>
<rscale>  0 0.24468591E+03</rscale>
<asrwt>0</asrwt>
<pdfrwt beam="1">  1        2 0.20977373E+00 0.24872738E+03</pdfrwt>
<pdfrwt beam="2">  1       -2 0.65670626E-02 0.24872738E+03</pdfrwt>
<totfact> 0.20831245E+03</totfact>
</mgrwt>
</event>
<event>
 7    1  0.1330601E-005  0.1305437E+03  0.7546771E-02  0.1240330E+00
         -3   -1    0    0    0  501 -0.00000000000E+00  0.00000000000E+00  0.31690543180E+03  0.31690543180E+03  0.00000000000E+00 0.  1.
          3   -1    0    0  501    0  0.00000000000E+00 -0.00000000000E+00 -0.53157425236E+02  0.53157425236E+02  0.00000000000E+00 0. -1.
         23    2    1    2    0    0 -0.36057546075E+02  0.10763767631E+02  0.31237550705E+02  0.10341185010E+03  0.91116523449E+02 0.  0.
          5    1    1    2  502    0  0.79313874657E+02 -0.14335058947E+02  0.18649604434E+03  0.20322167498E+03  0.47000000000E+01 0. -1.
         -5    1    1    2    0  502 -0.43256328581E+02  0.35712913158E+01  0.46014411518E+02  0.63429331948E+02  0.47000000000E+01 0. -1.
        -11    1    3    3    0    0  0.85413567520E+01  0.38331579969E+02 -0.51258276810E+01  0.39604783897E+02  0.00000000000E+00 0.  1.
         11    1    3    3    0    0 -0.44598902827E+02 -0.27567812338E+02  0.36363378386E+02  0.63807066208E+02  0.00000000000E+00 0. -1.
<mgrwt>
<rscale>  0 0.12169289E+03</rscale>
<asrwt>0</asrwt>
<pdfrwt beam="2">  1        3 0.81780656E-02 0.13054366E+03</pdfrwt>
<pdfrwt beam="1">  1       -3 0.48754681E-01 0.13054366E+03</pdfrwt>
<totfact> 0.99122775E+02</totfact>
</mgrwt>
</event>
<event>
 7    1  0.1330601E-005  0.1437611E+03  0.7546771E-02  0.1218120E+00
         -4   -1    0    0    0  501 -0.00000000000E+00  0.00000000000E+00  0.16394863968E+03  0.16394863968E+03  0.00000000000E+00 0.  1.
          4   -1    0    0  501    0  0.00000000000E+00 -0.00000000000E+00 -0.12122177946E+03  0.12122177946E+03  0.00000000000E+00 0. -1.
         23    2    1    2    0    0  0.33588242057E+02 -0.62560926830E+02 -0.34704058861E+02  0.12188291843E+03  0.92784883103E+02 0.  0.
          5    1    1    2  502    0  0.20995105171E+02  0.86632106747E+01 -0.25733683383E+02  0.34643298353E+02  0.47000000000E+01 0. -1.
         -5    1    1    2    0  502 -0.54583347228E+02  0.53897716155E+02  0.10316460246E+03  0.12864420237E+03  0.47000000000E+01 0. -1.
        -11    1    3    3    0    0  0.54152291836E+02 -0.66993911774E+02 -0.46367549996E+02  0.97829467026E+02  0.00000000000E+00 0. -1.
         11    1    3    3    0    0 -0.20564049779E+02  0.44329849442E+01  0.11663491135E+02  0.24053451401E+02  0.00000000000E+00 0.  1.
<mgrwt>
<rscale>  0 0.13649821E+03</rscale>
<asrwt>0</asrwt>
<pdfrwt beam="2">  1        4 0.18649504E-01 0.14376112E+03</pdfrwt>
<pdfrwt beam="1">  1       -4 0.25222868E-01 0.14376112E+03</pdfrwt>
<totfact> 0.63175107E+02</totfact>
</mgrwt>
</event>
<event>
 7    1  0.1330601E-005  0.1256369E+03  0.7546771E-02  0.1249553E+00
          1   -1    0    0  501    0  0.00000000000E+00  0.00000000000E+00  0.46010296598E+03  0.46010296598E+03  0.00000000000E+00 0. -1.
         -1   -1    0    0    0  501 -0.00000000000E+00 -0.00000000000E+00 -0.26405314530E+02  0.26405314530E+02  0.00000000000E+00 0.  1.
         23    2    1    2    0    0 -0.35377942861E+01  0.11631457730E+02  0.22339129351E+03  0.24153194446E+03  0.91028585500E+02 0.  0.
          5    1    1    2  502    0  0.54080154409E+02 -0.30378832152E+02  0.15762335243E+03  0.16945426456E+03  0.47000000000E+01 0. -1.
         -5    1    1    2    0  502 -0.50542360123E+02  0.18747374422E+02  0.52683005509E+02  0.75522071502E+02  0.47000000000E+01 0. -1.
        -11    1    3    3    0    0  0.24854603908E+02  0.41379477832E+02  0.92566008808E+02  0.10439577821E+03  0.00000000000E+00 0. -1.
         11    1    3    3    0    0 -0.28392398194E+02 -0.29748020102E+02  0.13082528470E+03  0.13713616625E+03  0.00000000000E+00 0.  1.
<mgrwt>
<rscale>  0 0.11616954E+03</rscale>
<asrwt>0</asrwt>
<pdfrwt beam="1">  1        1 0.70785066E-01 0.12563694E+03</pdfrwt>
<pdfrwt beam="2">  1       -1 0.40623564E-02 0.12563694E+03</pdfrwt>
<totfact> 0.11434568E+04</totfact>
</mgrwt>
</event>
<event>
 6    1  0.1330601E-005  0.3915469E+03  0.7546771E-02  0.1046747E+00
          1   -1    0    0  501    0  0.00000000000E+00  0.00000000000E+00  0.31363811345E+03  0.31363811345E+03  0.00000000000E+00 0. -1.
         -1   -1    0    0    0  501 -0.00000000000E+00 -0.00000000000E+00 -0.12220212853E+03  0.12220212853E+03  0.00000000000E+00 0.  1.
          5    1    1    2  502    0 -0.10392534553E+03  0.52343532159E+02 -0.49158277374E+02  0.12640786778E+03  0.47000000000E+01 0.  1.
         -5    1    1    2    0  502  0.17975471441E+01  0.55589482016E+01  0.44488071658E+02  0.45115536134E+02  0.47000000000E+01 0.  1.
        -11    1    1    2    0    0  0.69277279599E+01 -0.54166606453E+02  0.10388515192E+02  0.55587192025E+02  0.00000000000E+00 0.  1.
         11    1    1    2    0    0  0.95200070430E+02 -0.37358739075E+01  0.18571767544E+03  0.20872964603E+03  0.00000000000E+00 0. -1.
<mgrwt>
<rscale>  0 0.39154691E+03</rscale>
<asrwt>0</asrwt>
<pdfrwt beam="1">  1        1 0.48252017E-01 0.39154691E+03</pdfrwt>
<pdfrwt beam="2">  1       -1 0.18800328E-01 0.39154691E+03</pdfrwt>
<totfact> 0.18561684E+03</totfact>
</mgrwt>
</event>
<event>
 7    1  0.1330601E-005  0.1342916E+03  0.7546771E-02  0.1236105E+00
          3   -1    0    0  501    0  0.00000000000E+00  0.00000000000E+00  0.32755806005E+03  0.32755806005E+03  0.00000000000E+00 0. -1.
         -3   -1    0    0    0  501 -0.00000000000E+00 -0.00000000000E+00 -0.42119228465E+02  0.42119228465E+02  0.00000000000E+00 0.  1.
         23    2    1    2    0    0 -0.39989040218E+02  0.28441707315E+02  0.14464536945E+03  0.17510848453E+03  0.85630861258E+02 0.  0.
          5    1    1    2  502    0 -0.51889577740E+01 -0.50522259103E+02  0.69034045841E+01  0.51470097556E+02  0.47000000000E+01 0. -1.
         -5    1    1    2    0  502  0.45177997992E+02  0.22080551788E+02  0.13389005755E+03  0.14309870643E+03  0.47000000000E+01 0. -1.
        -11    1    3    3    0    0  0.16847421419E+02  0.36625814068E+02  0.47925907765E+02  0.62627298359E+02  0.00000000000E+00 0.  1.
         11    1    3    3    0    0 -0.56836461637E+02 -0.81841067525E+01  0.96719461685E+02  0.11248118618E+03  0.00000000000E+00 0. -1.
<mgrwt>
<rscale>  0 0.12433983E+03</rscale>
<asrwt>0</asrwt>
<pdfrwt beam="1">  1        3 0.50393546E-01 0.13429155E+03</pdfrwt>
<pdfrwt beam="2">  1       -3 0.64798815E-02 0.13429155E+03</pdfrwt>
<totfact> 0.13587624E+03</totfact>
</mgrwt>
</event>
<event>
 7    1  0.1330601E-005  0.1434968E+03  0.7546771E-02  0.1219292E+00
         -1   -1    0    0    0  501 -0.00000000000E+00  0.00000000000E+00  0.26938021696E+02  0.26938021696E+02  0.00000000000E+00 0.  1.
          1   -1    0    0  501    0  0.00000000000E+00 -0.00000000000E+00 -0.66346236709E+03  0.66346236709E+03  0.00000000000E+00 0. -1.
         23    2    1    2    0    0  0.34784852289E+01  0.70365904080E+02 -0.37459320093E+03  0.39173796703E+03  0.90416305554E+02 0.  0.
          5    1    1    2  502    0  0.59561389800E+01 -0.56025107452E+02 -0.27227113272E+03  0.27807903188E+03  0.47000000000E+01 0. -1.
         -5    1    1    2    0  502 -0.94346242089E+01 -0.14340796628E+02  0.10339988258E+02  0.20583389882E+02  0.47000000000E+01 0. -1.
        -11    1    3    3    0    0  0.16625110816E+02  0.88796984088E+02 -0.32300943230E+03  0.33540481817E+03  0.00000000000E+00 0.  1.
         11    1    3    3    0    0 -0.13146625587E+02 -0.18431080008E+02 -0.51583768630E+02  0.56333148862E+02  0.00000000000E+00 0. -1.
<mgrwt>
<rscale>  0 0.13565945E+03</rscale>
<asrwt>0</asrwt>
<pdfrwt beam="2">  1        1 0.10207114E+00 0.14349675E+03</pdfrwt>
<pdfrwt beam="1">  1       -1 0.41443106E-02 0.14349675E+03</pdfrwt>
<totfact> 0.68692705E+03</totfact>
</mgrwt>
</event>
<event>
 7    1  0.1330601E-005  0.1286581E+03  0.7546771E-02  0.1243579E+00
         -1   -1    0    0    0  501 -0.00000000000E+00  0.00000000000E+00  0.39593625354E+02  0.39593625354E+02  0.00000000000E+00 0.  1.
          1   -1    0    0  501    0  0.00000000000E+00 -0.00000000000E+00 -0.33764447989E+03  0.33764447989E+03  0.00000000000E+00 0. -1.
         23    2    1    2    0    0 -0.28146319965E+02 -0.11703220492E+02 -0.17163973424E+03  0.19686992767E+03  0.91478901147E+02 0.  0.
          5    1    1    2  502    0 -0.24365541493E+02 -0.43349638783E+02 -0.33286873110E+02  0.60024800844E+02  0.47000000000E+01 0.  1.
         -5    1    1    2    0  502  0.52511861458E+02  0.55052859275E+02 -0.93124247190E+02  0.12034337673E+03  0.47000000000E+01 0.  1.
        -11    1    3    3    0    0 -0.56844746227E+02 -0.66042980120E+01 -0.66349560121E+02  0.87619667051E+02  0.00000000000E+00 0.  1.
         11    1    3    3    0    0  0.28698426262E+02 -0.50989224799E+01 -0.10529017412E+03  0.10925026062E+03  0.00000000000E+00 0. -1.
<mgrwt>
<rscale>  0 0.11970824E+03</rscale>
<asrwt>0</asrwt>
<pdfrwt beam="2">  1        1 0.51945304E-01 0.12865811E+03</pdfrwt>
<pdfrwt beam="1">  1       -1 0.60913270E-02 0.12865811E+03</pdfrwt>
<totfact> 0.92956705E+03</totfact>
</mgrwt>
</event>
<event>
 7    1  0.1330601E-005  0.3467197E+03  0.7546771E-02  0.1065104E+00
          2   -1    0    0  501    0  0.00000000000E+00  0.00000000000E+00  0.34133804215E+03  0.34133804215E+03  0.00000000000E+00 0.  1.
         -2   -1    0    0    0  501 -0.00000000000E+00 -0.00000000000E+00 -0.41265424064E+03  0.41265424064E+03  0.00000000000E+00 0. -1.
         23    2    1    2    0    0  0.16939709831E+03  0.27549313011E+03  0.12149145638E+03  0.35726906059E+03  0.91044857207E+02 0.  0.
          5    1    1    2  502    0 -0.62234616270E+02 -0.22039635768E+02 -0.11574939525E+02  0.67193468671E+02  0.47000000000E+01 0.  1.
         -5    1    1    2    0  502 -0.10716248204E+03 -0.25345349434E+03 -0.18123271535E+03  0.32952975354E+03  0.47000000000E+01 0.  1.
        -11    1    3    3    0    0  0.26093861538E+02  0.67531736026E+02  0.67552157149E+02  0.99018780624E+02  0.00000000000E+00 0.  1.
         11    1    3    3    0    0  0.14330323678E+03  0.20796139408E+03  0.53939299236E+02  0.25825027996E+03  0.00000000000E+00 0. -1.
<mgrwt>
<rscale>  0 0.34400239E+03</rscale>
<asrwt>0</asrwt>
<pdfrwt beam="1">  1        2 0.52513545E-01 0.34671966E+03</pdfrwt>
<pdfrwt beam="2">  1       -2 0.63485268E-01 0.34671966E+03</pdfrwt>
<totfact> 0.22383266E+02</totfact>
</mgrwt>
</event>
<event>
 7    1  0.1330601E-005  0.1415474E+03  0.7546771E-02  0.1228629E+00
          3   -1    0    0  501    0  0.00000000000E+00  0.00000000000E+00  0.24908321245E+03  0.24908321245E+03  0.00000000000E+00 0. -1.
         -3   -1    0    0    0  501 -0.00000000000E+00 -0.00000000000E+00 -0.60203768554E+02  0.60203768554E+02  0.00000000000E+00 0.  1.
         23    2    1    2    0    0  0.37311672869E+01 -0.66310165649E+02  0.10893613114E+03  0.14672437450E+03  0.72456895650E+02 0.  0.
          5    1    1    2  502    0 -0.56421514688E+02  0.51514105903E+02  0.75400991591E+02  0.10744528822E+03  0.47000000000E+01 0. -1.
         -5    1    1    2    0  502  0.52690347401E+02  0.14796059746E+02  0.45423211603E+01  0.55117318284E+02  0.47000000000E+01 0. -1.
        -11    1    3    3    0    0 -0.33388273225E+02 -0.22854461815E+02  0.53759615369E+02  0.67284466695E+02  0.00000000000E+00 0.  1.
         11    1    3    3    0    0  0.37119440512E+02 -0.43455703834E+02  0.55176515771E+02  0.79439907806E+02  0.00000000000E+00 0. -1.
<mgrwt>
<rscale>  0 0.12921234E+03</rscale>
<asrwt>0</asrwt>
<pdfrwt beam="1">  1        3 0.38320494E-01 0.14154740E+03</pdfrwt>
<pdfrwt beam="2">  1       -3 0.92621184E-02 0.14154740E+03</pdfrwt>
<totfact> 0.13104218E+03</totfact>
</mgrwt>
</event>
<event>
 7    1  0.1330601E-005  0.1620272E+03  0.7546771E-02  0.1191147E+00
         -2   -1    0    0    0  501 -0.00000000000E+00  0.00000000000E+00  0.64213719647E+02  0.64213719647E+02  0.00000000000E+00 0.  1.
          2   -1    0    0  501    0  0.00000000000E+00 -0.00000000000E+00 -0.38174792169E+03  0.38174792169E+03  0.00000000000E+00 0. -1.
         23    2    1    2    0    0 -0.11343996890E+03  0.18588516413E+02 -0.11049942794E+03  0.18306203392E+03  0.89930112858E+02 0.  0.
          5    1    1    2  502    0 -0.51334060374E+00  0.33529406398E+02 -0.66015007783E+02  0.74192694145E+02  0.47000000000E+01 0. -1.
         -5    1    1    2    0  502  0.11395330951E+03 -0.52117922811E+02 -0.14101976631E+03  0.18870691327E+03  0.47000000000E+01 0.  1.
        -11    1    3    3    0    0 -0.10601124148E+03 -0.13828731960E+02 -0.60000837415E+02  0.12259574886E+03  0.00000000000E+00 0.  1.
         11    1    3    3    0    0 -0.74287274224E+01  0.32417248373E+02 -0.50498590529E+02  0.60466285057E+02  0.00000000000E+00 0. -1.
<mgrwt>
<rscale>  0 0.15784920E+03</rscale>
<asrwt>0</asrwt>
<pdfrwt beam="2">  1        2 0.58730449E-01 0.16202718E+03</pdfrwt>
<pdfrwt beam="1">  1       -2 0.98790338E-02 0.16202718E+03</pdfrwt>
<totfact> 0.55096668E+03</totfact>
</mgrwt>
</event>
<event>
 7    1  0.1330601E-005  0.1422046E+03  0.7546771E-02  0.1219718E+00
         -2   -1    0    0    0  501 -0.00000000000E+00  0.00000000000E+00  0.47055892093E+02  0.47055892093E+02  0.00000000000E+00 0.  1.
          2   -1    0    0  501    0  0.00000000000E+00 -0.00000000000E+00 -0.35634022066E+03  0.35634022066E+03  0.00000000000E+00 0. -1.
         23    2    1    2    0    0  0.62120570938E+02  0.26864891191E+02 -0.14337275756E+03  0.18488116164E+03  0.95103147186E+02 0.  0.
          5    1    1    2  502    0 -0.61466991585E+01 -0.57837910662E+02 -0.13549122461E+03  0.14752277034E+03  0.47000000000E+01 0.  1.
         -5    1    1    2    0  502 -0.55973871780E+02  0.30973019471E+02 -0.30420346386E+02  0.70992180777E+02  0.47000000000E+01 0.  1.
        -11    1    3    3    0    0  0.60542492153E+02  0.43172705992E+02 -0.48897440259E+02  0.88995705305E+02  0.00000000000E+00 0.  1.
         11    1    3    3    0    0  0.15780787849E+01 -0.16307814802E+02 -0.94475317306E+02  0.95885456333E+02  0.00000000000E+00 0. -1.
<mgrwt>
<rscale>  0 0.13535627E+03</rscale>
<asrwt>0</asrwt>
<pdfrwt beam="2">  1        2 0.54821573E-01 0.14220455E+03</pdfrwt>
<pdfrwt beam="1">  1       -2 0.72393679E-02 0.14220455E+03</pdfrwt>
<totfact> 0.95394607E+03</totfact>
</mgrwt>
</event>
<event>
 7    1  0.1330601E-005  0.1806593E+03  0.7546771E-02  0.1172693E+00
          2   -1    0    0  501    0  0.00000000000E+00  0.00000000000E+00  0.21262233047E+03  0.21262233047E+03  0.00000000000E+00 0. -1.
         -2   -1    0    0    0  501 -0.00000000000E+00 -0.00000000000E+00 -0.23129184034E+03  0.23129184034E+03  0.00000000000E+00 0.  1.
         23    2    1    2    0    0  0.11488676471E+03  0.61744538837E+02  0.13345200451E+03  0.20773897800E+03  0.91294516224E+02 0.  0.
          5    1    1    2  502    0 -0.54998314465E+02 -0.75925902831E+02 -0.28666527006E+02  0.98149972416E+02  0.47000000000E+01 0.  1.
         -5    1    1    2    0  502 -0.59888450244E+02  0.14181363993E+02 -0.12345498737E+03  0.13802522039E+03  0.47000000000E+01 0.  1.
        -11    1    3    3    0    0 -0.14883178868E+02  0.13367647438E+02  0.10761339308E+02  0.22715841057E+02  0.00000000000E+00 0.  1.
         11    1    3    3    0    0  0.12976994358E+03  0.48376891400E+02  0.12269066520E+03  0.18502313695E+03  0.00000000000E+00 0. -1.
<mgrwt>
<rscale>  0 0.17503864E+03</rscale>
<asrwt>0</asrwt>
<pdfrwt beam="1">  1        2 0.32711128E-01 0.18065926E+03</pdfrwt>
<pdfrwt beam="2">  1       -2 0.35583360E-01 0.18065926E+03</pdfrwt>
<totfact> 0.11765644E+03</totfact>
</mgrwt>
</event>
<event>
 7    1  0.1330601E-005  0.1509691E+03  0.7546771E-02  0.1207600E+00
          3   -1    0    0  501    0  0.00000000000E+00  0.00000000000E+00  0.16626584226E+03  0.16626584226E+03  0.00000000000E+00 0. -1.
         -3   -1    0    0    0  501 -0.00000000000E+00 -0.00000000000E+00 -0.13311682772E+03  0.13311682772E+03  0.00000000000E+00 0.  1.
         23    2    1    2    0    0  0.44137211162E+01 -0.84541439804E+02  0.69580874937E+02  0.14407993737E+03  0.93545679847E+02 0.  0.
          5    1    1    2  502    0 -0.36131989622E+02  0.89454845629E+02  0.11661239942E+02  0.97292161028E+02  0.47000000000E+01 0.  1.
         -5    1    1    2    0  502  0.31718268506E+02 -0.49134058242E+01 -0.48093100340E+02  0.58010571572E+02  0.47000000000E+01 0.  1.
        -11    1    3    3    0    0 -0.40290556028E+02 -0.66882031942E+02  0.41866928092E+02  0.88596697284E+02  0.00000000000E+00 0.  1.
         11    1    3    3    0    0  0.44704277144E+02 -0.17659407862E+02  0.27713946844E+02  0.55483240089E+02  0.00000000000E+00 0. -1.
<mgrwt>
<rscale>  0 0.14434456E+03</rscale>
<asrwt>0</asrwt>
<pdfrwt beam="1">  1        3 0.25579360E-01 0.15096906E+03</pdfrwt>
<pdfrwt beam="2">  1       -3 0.20479512E-01 0.15096906E+03</pdfrwt>
<totfact> 0.72818465E+02</totfact>
</mgrwt>
</event>
<event>
 7    1  0.1330601E-005  0.1282843E+03  0.7546771E-02  0.1245180E+00
         -2   -1    0    0    0  501 -0.00000000000E+00  0.00000000000E+00  0.24048418147E+02  0.24048418147E+02  0.00000000000E+00 0. -1.
          2   -1    0    0  501    0  0.00000000000E+00 -0.00000000000E+00 -0.54169136258E+03  0.54169136258E+03  0.00000000000E+00 0.  1.
         23    2    1    2    0    0 -0.16500255775E+02  0.23660712968E+02 -0.28381703031E+03  0.29903504782E+03  0.89653585271E+02 0.  0.
          5    1    1    2  502    0 -0.46227950355E+02  0.18549872467E+02 -0.68270140923E+02  0.84640553544E+02  0.47000000000E+01 0. -1.
         -5    1    1    2    0  502  0.62728206130E+02 -0.42210585435E+02 -0.16555577320E+03  0.18206417936E+03  0.47000000000E+01 0. -1.
        -11    1    3    3    0    0  0.28547476940E+02 -0.17223601648E+02 -0.99061367351E+02  0.10452160253E+03  0.00000000000E+00 0.  1.
         11    1    3    3    0    0 -0.45047732715E+02  0.40884314616E+02 -0.18475566296E+03  0.19451344529E+03  0.00000000000E+00 0. -1.
<mgrwt>
<rscale>  0 0.11874618E+03</rscale>
<asrwt>0</asrwt>
<pdfrwt beam="2">  1        2 0.83337115E-01 0.12828428E+03</pdfrwt>
<pdfrwt beam="1">  1       -2 0.36997574E-02 0.12828428E+03</pdfrwt>
<totfact> 0.16525794E+04</totfact>
</mgrwt>
</event>
<event>
 7    1  0.1330601E-005  0.1624646E+03  0.7546771E-02  0.1193539E+00
          1   -1    0    0  501    0  0.00000000000E+00  0.00000000000E+00  0.11577382437E+03  0.11577382437E+03  0.00000000000E+00 0. -1.
         -1   -1    0    0    0  501 -0.00000000000E+00 -0.00000000000E+00 -0.20183199450E+03  0.20183199450E+03  0.00000000000E+00 0.  1.
         23    2    1    2    0    0  0.62169643415E+02  0.83089261221E+02 -0.85974978542E+01  0.13762001959E+03  0.89980347457E+02 0.  0.
          5    1    1    2  502    0 -0.85463856425E+02 -0.19817870956E+02 -0.17389648337E+02  0.89561758767E+02  0.47000000000E+01 0.  1.
         -5    1    1    2    0  502  0.23294213009E+02 -0.63271390266E+02 -0.60071023939E+02  0.90424040514E+02  0.47000000000E+01 0.  1.
        -11    1    3    3    0    0  0.10682436309E+02 -0.19687149745E+02 -0.15700784568E+01  0.22453584501E+02  0.00000000000E+00 0.  1.
         11    1    3    3    0    0  0.51487207106E+02  0.10277641097E+03 -0.70274193973E+01  0.11516643508E+03  0.00000000000E+00 0. -1.
<mgrwt>
<rscale>  0 0.15578552E+03</rscale>
<asrwt>0</asrwt>
<pdfrwt beam="1">  1        1 0.17811358E-01 0.16246456E+03</pdfrwt>
<pdfrwt beam="2">  1       -1 0.31051076E-01 0.16246456E+03</pdfrwt>
<totfact> 0.27904977E+03</totfact>
</mgrwt>
</event>
<event>
 7    1  0.1330601E-005  0.1405050E+03  0.7546771E-02  0.1225821E+00
          1   -1    0    0  501    0  0.00000000000E+00  0.00000000000E+00  0.42402669345E+03  0.42402669345E+03  0.00000000000E+00 0. -1.
         -1   -1    0    0    0  501 -0.00000000000E+00 -0.00000000000E+00 -0.37838521752E+02  0.37838521752E+02  0.00000000000E+00 0.  1.
         23    2    1    2    0    0 -0.52267912127E+02 -0.37173729815E+02  0.21858142158E+03  0.24315610360E+03  0.85048409933E+02 0.  0.
          5    1    1    2  502    0  0.37776408765E+02  0.44413879530E+02  0.18527032876E+03  0.19428544586E+03  0.47000000000E+01 0. -1.
         -5    1    1    2    0  502  0.14491503362E+02 -0.72401497156E+01 -0.17663578644E+02  0.24423665739E+02  0.47000000000E+01 0. -1.
        -11    1    3    3    0    0  0.21045622464E+02  0.52617524750E+01  0.40059607759E+02  0.45556299650E+02  0.00000000000E+00 0.  1.
         11    1    3    3    0    0 -0.73313534591E+02 -0.42435482290E+02  0.17852181382E+03  0.19759980395E+03  0.00000000000E+00 0. -1.
<mgrwt>
<rscale>  0 0.13110800E+03</rscale>
<asrwt>0</asrwt>
<pdfrwt beam="1">  1        1 0.65234873E-01 0.14050499E+03</pdfrwt>
<pdfrwt beam="2">  1       -1 0.58213113E-02 0.14050499E+03</pdfrwt>
<totfact> 0.75175073E+03</totfact>
</mgrwt>
</event>
<event>
 7    1  0.1330601E-005  0.1446042E+03  0.7546771E-02  0.1217315E+00
         -1   -1    0    0    0  501 -0.00000000000E+00  0.00000000000E+00  0.14894451209E+03  0.14894451209E+03  0.00000000000E+00 0.  1.
          1   -1    0    0  501    0  0.00000000000E+00 -0.00000000000E+00 -0.12492245670E+03  0.12492245670E+03  0.00000000000E+00 0. -1.
         23    2    1    2    0    0 -0.23532426729E+02 -0.68789288508E+02 -0.28190503452E+02  0.12012521745E+03  0.91376266403E+02 0.  0.
          5    1    1    2  502    0  0.50580628055E+02  0.33966638274E+02 -0.23931182242E+02  0.65627158506E+02  0.47000000000E+01 0. -1.
         -5    1    1    2    0  502 -0.27048201326E+02  0.34822650234E+02  0.76143741081E+02  0.88114592833E+02  0.47000000000E+01 0. -1.
        -11    1    3    3    0    0 -0.33332439967E+02 -0.21316055249E+02 -0.52626221012E+02  0.65840298477E+02  0.00000000000E+00 0. -1.
         11    1    3    3    0    0  0.98000132383E+01 -0.47473233259E+02  0.24435717559E+02  0.54284918975E+02  0.00000000000E+00 0.  1.
<mgrwt>
<rscale>  0 0.13707840E+03</rscale>
<asrwt>0</asrwt>
<pdfrwt beam="2">  1        1 0.19218839E-01 0.14460420E+03</pdfrwt>
<pdfrwt beam="1">  1       -1 0.22914540E-01 0.14460420E+03</pdfrwt>
<totfact> 0.41682427E+03</totfact>
</mgrwt>
</event>
<event>
 7    1  0.1330601E-005  0.1401814E+03  0.7546771E-02  0.1222976E+00
         -3   -1    0    0    0  501 -0.00000000000E+00  0.00000000000E+00  0.28581578071E+03  0.28581578071E+03  0.00000000000E+00 0.  1.
          3   -1    0    0  501    0  0.00000000000E+00 -0.00000000000E+00 -0.82371536415E+02  0.82371536415E+02  0.00000000000E+00 0. -1.
         23    2    1    2    0    0 -0.62633769755E+02  0.10160221661E+02 -0.84433171286E+01  0.11412597134E+03  0.94484011944E+02 0.  0.
          5    1    1    2  502    0  0.18598224981E+02  0.32649878452E+02  0.49969262471E+01  0.38196437102E+02  0.47000000000E+01 0. -1.
         -5    1    1    2    0  502  0.44035544774E+02 -0.42810100113E+02  0.20689063517E+03  0.21586490868E+03  0.47000000000E+01 0. -1.
        -11    1    3    3    0    0 -0.38222882731E+02  0.25826121990E+02  0.37732296783E+02  0.59596170697E+02  0.00000000000E+00 0.  1.
         11    1    3    3    0    0 -0.24410887024E+02 -0.15665900329E+02 -0.46175613911E+02  0.54529800646E+02  0.00000000000E+00 0. -1.
<mgrwt>
<rscale>  0 0.13306566E+03</rscale>
<asrwt>0</asrwt>
<pdfrwt beam="2">  1        3 0.12672544E-01 0.14018141E+03</pdfrwt>
<pdfrwt beam="1">  1       -3 0.43971658E-01 0.14018141E+03</pdfrwt>
<totfact> 0.59480452E+02</totfact>
</mgrwt>
</event>
<event>
 7    1  0.1330601E-005  0.1450135E+03  0.7546771E-02  0.1215894E+00
          2   -1    0    0  501    0  0.00000000000E+00  0.00000000000E+00  0.42333486001E+03  0.42333486001E+03  0.00000000000E+00 0. -1.
         -2   -1    0    0    0  501 -0.00000000000E+00 -0.00000000000E+00 -0.41264634992E+02  0.41264634992E+02  0.00000000000E+00 0.  1.
         23    2    1    2    0    0 -0.67517418812E+02  0.29171116545E+02  0.17487920924E+03  0.21170221050E+03  0.93944303824E+02 0.  0.
          5    1    1    2  502    0  0.45714889161E+02 -0.54618698201E+01  0.21458356074E+03  0.21951737437E+03  0.47000000000E+01 0. -1.
         -5    1    1    2    0  502  0.21802529651E+02 -0.23709246724E+02 -0.73925449600E+01  0.33379910132E+02  0.47000000000E+01 0. -1.
        -11    1    3    3    0    0  0.38614218902E+01  0.43887028410E+02  0.87125656966E+02  0.97631254951E+02  0.00000000000E+00 0. -1.
         11    1    3    3    0    0 -0.71378840703E+02 -0.14715911865E+02  0.87753552274E+02  0.11407095554E+03  0.00000000000E+00 0.  1.
<mgrwt>
<rscale>  0 0.13811040E+03</rscale>
<asrwt>0</asrwt>
<pdfrwt beam="1">  1        2 0.65128437E-01 0.14501351E+03</pdfrwt>
<pdfrwt beam="2">  1       -2 0.63484057E-02 0.14501351E+03</pdfrwt>
<totfact> 0.97127440E+03</totfact>
</mgrwt>
</event>
<event>
 7    1  0.1330601E-005  0.3032367E+03  0.7546771E-02  0.1085210E+00
         -1   -1    0    0    0  501 -0.00000000000E+00  0.00000000000E+00  0.10083852344E+03  0.10083852344E+03  0.00000000000E+00 0.  1.
          1   -1    0    0  501    0  0.00000000000E+00 -0.00000000000E+00 -0.12115025827E+04  0.12115025827E+04  0.00000000000E+00 0. -1.
         23    2    1    2    0    0  0.21717268561E+02 -0.27541881898E+03 -0.89282788446E+03  0.93897116335E+03  0.90543076681E+02 0.  0.
          5    1    1    2  502    0  0.42832731094E+02  0.41311899971E+02 -0.53024043136E+02  0.79843315829E+02  0.47000000000E+01 0.  1.
         -5    1    1    2    0  502 -0.64549999655E+02  0.23410691901E+03 -0.16481213163E+03  0.29352662693E+03  0.47000000000E+01 0.  1.
        -11    1    3    3    0    0 -0.10424105644E+02 -0.14226030284E+03 -0.32626206415E+03  0.35608087599E+03  0.00000000000E+00 0.  1.
         11    1    3    3    0    0  0.32141374204E+02 -0.13315851614E+03 -0.56656582031E+03  0.58289028736E+03  0.00000000000E+00 0. -1.
<mgrwt>
<rscale>  0 0.30006106E+03</rscale>
<asrwt>0</asrwt>
<pdfrwt beam="2">  1        1 0.18638501E+00 0.30323673E+03</pdfrwt>
<pdfrwt beam="1">  1       -1 0.15513619E-01 0.30323673E+03</pdfrwt>
<totfact> 0.34269244E+02</totfact>
</mgrwt>
</event>
<event>
 7    1  0.1330601E-005  0.1406916E+03  0.7546771E-02  0.1223329E+00
         -1   -1    0    0    0  501 -0.00000000000E+00  0.00000000000E+00  0.12574608771E+03  0.12574608771E+03  0.00000000000E+00 0.  1.
          1   -1    0    0  501    0  0.00000000000E+00 -0.00000000000E+00 -0.12717498708E+03  0.12717498708E+03  0.00000000000E+00 0. -1.
         23    2    1    2    0    0 -0.44867054567E+02  0.46431326741E+02  0.70454987116E+01  0.11197447644E+03  0.91212519057E+02 0.  0.
          5    1    1    2  502    0  0.35955769572E+02 -0.13889636937E+02  0.55929865003E+02  0.68088025225E+02  0.47000000000E+01 0.  1.
         -5    1    1    2    0  502  0.89112849952E+01 -0.32541689804E+02 -0.64404263077E+02  0.72858573127E+02  0.47000000000E+01 0.  1.
        -11    1    3    3    0    0 -0.64253873376E+02  0.46727289292E+01 -0.42699062599E+01  0.64564903306E+02  0.00000000000E+00 0.  1.
         11    1    3    3    0    0  0.19386818809E+02  0.41758597812E+02  0.11315404972E+02  0.47409573131E+02  0.00000000000E+00 0. -1.
<mgrwt>
<rscale>  0 0.13282064E+03</rscale>
<asrwt>0</asrwt>
<pdfrwt beam="2">  1        1 0.19565383E-01 0.14069161E+03</pdfrwt>
<pdfrwt beam="1">  1       -1 0.19345552E-01 0.14069161E+03</pdfrwt>
<totfact> 0.53474819E+03</totfact>
</mgrwt>
</event>
<event>
 7    1  0.1330601E-005  0.1426086E+03  0.7546771E-02  0.1220414E+00
         -2   -1    0    0    0  501 -0.00000000000E+00  0.00000000000E+00  0.19380185654E+03  0.19380185654E+03  0.00000000000E+00 0.  1.
          2   -1    0    0  501    0  0.00000000000E+00 -0.00000000000E+00 -0.91744674261E+02  0.91744674261E+02  0.00000000000E+00 0. -1.
         23    2    1    2    0    0  0.61399571666E+02  0.30878648891E+02  0.72282382016E+01  0.11428727883E+03  0.91027118574E+02 0.  0.
          5    1    1    2  502    0 -0.55301285649E+02 -0.68448285043E+02  0.25012279389E+02  0.91602969602E+02  0.47000000000E+01 0. -1.
         -5    1    1    2    0  502 -0.60982860176E+01  0.37569636152E+02  0.69816664687E+02  0.79656282370E+02  0.47000000000E+01 0. -1.
        -11    1    3    3    0    0  0.62877005658E+02  0.98912803193E+01 -0.30888699596E+02  0.70749325294E+02  0.00000000000E+00 0. -1.
         11    1    3    3    0    0 -0.14774339914E+01  0.20987368571E+02  0.38116937797E+02  0.43537953532E+02  0.00000000000E+00 0.  1.
<mgrwt>
<rscale>  0 0.13486246E+03</rscale>
<asrwt>0</asrwt>
<pdfrwt beam="2">  1        2 0.14114565E-01 0.14260856E+03</pdfrwt>
<pdfrwt beam="1">  1       -2 0.29815670E-01 0.14260856E+03</pdfrwt>
<totfact> 0.41578295E+03</totfact>
</mgrwt>
</event>
<event>
 7    1  0.1330601E-005  0.2192561E+03  0.7546771E-02  0.1134439E+00
         -3   -1    0    0    0  501 -0.00000000000E+00  0.00000000000E+00  0.44099359872E+03  0.44099359872E+03  0.00000000000E+00 0. -1.
          3   -1    0    0  501    0  0.00000000000E+00 -0.00000000000E+00 -0.27252787779E+02  0.27252787779E+02  0.00000000000E+00 0.  1.
         23    2    1    2    0    0  0.33592679175E+02  0.11342456603E+01  0.94716056936E+02  0.12396383808E+03  0.72568223786E+02 0.  0.
          5    1    1    2  502    0 -0.12153256313E+02 -0.62906415925E+01 -0.79647446901E+01  0.16516687580E+02  0.47000000000E+01 0. -1.
         -5    1    1    2    0  502 -0.21439422862E+02  0.51563959322E+01  0.32698949870E+03  0.32776586084E+03  0.47000000000E+01 0. -1.
        -11    1    3    3    0    0 -0.34393063363E+01 -0.30845976556E+02  0.37601488129E+02  0.48756281722E+02  0.00000000000E+00 0.  1.
         11    1    3    3    0    0  0.37031985511E+02  0.31980222217E+02  0.57114568807E+02  0.75207556362E+02  0.00000000000E+00 0. -1.
<mgrwt>
<rscale>  0 0.21925606E+03</rscale>
<asrwt>0</asrwt>
<pdfrwt beam="2">  1        3 0.41927369E-02 0.21925606E+03</pdfrwt>
<pdfrwt beam="1">  1       -3 0.67845164E-01 0.21925606E+03</pdfrwt>
<totfact> 0.15874216E+03</totfact>
</mgrwt>
</event>
<event>
 7    1  0.1330601E-005  0.1525577E+03  0.7546771E-02  0.1206053E+00
         -1   -1    0    0    0  501 -0.00000000000E+00  0.00000000000E+00  0.85177993782E+03  0.85177993782E+03  0.00000000000E+00 0.  1.
          1   -1    0    0  501    0  0.00000000000E+00 -0.00000000000E+00 -0.24024912948E+02  0.24024912948E+02  0.00000000000E+00 0. -1.
         23    2    1    2    0    0  0.80560229837E+02 -0.34047808218E+02  0.28005936257E+03  0.30725900684E+03  0.91244982561E+02 0.  0.
          5    1    1    2  502    0 -0.18921956164E+02  0.58827365666E+02  0.11391051979E+03  0.12967804709E+03  0.47000000000E+01 0. -1.
         -5    1    1    2    0  502 -0.61638273674E+02 -0.24779557448E+02  0.43378514251E+03  0.43886779685E+03  0.47000000000E+01 0. -1.
        -11    1    3    3    0    0  0.56761940396E+02 -0.48242287073E+02  0.26590646776E+03  0.27614395836E+03  0.00000000000E+00 0.  1.
         11    1    3    3    0    0  0.23798289442E+02  0.14194478855E+02  0.14152894806E+02  0.31115048477E+02  0.00000000000E+00 0. -1.
<mgrwt>
<rscale>  0 0.14554762E+03</rscale>
<asrwt>0</asrwt>
<pdfrwt beam="2">  1        1 0.36961411E-02 0.15255766E+03</pdfrwt>
<pdfrwt beam="1">  1       -1 0.13104304E+00 0.15255766E+03</pdfrwt>
<totfact> 0.13311847E+03</totfact>
</mgrwt>
</event>
<event>
 7    1  0.1330601E-005  0.1909961E+03  0.7546771E-02  0.1162688E+00
          1   -1    0    0  501    0  0.00000000000E+00  0.00000000000E+00  0.26565037531E+03  0.26565037531E+03  0.00000000000E+00 0. -1.
         -1   -1    0    0    0  501 -0.00000000000E+00 -0.00000000000E+00 -0.14197267286E+03  0.14197267286E+03  0.00000000000E+00 0.  1.
         23    2    1    2    0    0 -0.14339417728E+03 -0.17096626634E+02  0.13437550816E+03  0.21632759633E+03  0.88806908618E+02 0.  0.
          5    1    1    2  502    0  0.62164578705E+02 -0.45580547943E+02  0.27113991018E+02  0.81849127700E+02  0.47000000000E+01 0.  1.
         -5    1    1    2    0  502  0.81229598577E+02  0.62677174577E+02 -0.37811796727E+02  0.10944632415E+03  0.47000000000E+01 0.  1.
        -11    1    3    3    0    0 -0.94147129668E+02 -0.15868838237E+02  0.28637955319E+02  0.99677653145E+02  0.00000000000E+00 0.  1.
         11    1    3    3    0    0 -0.49247047614E+02 -0.12277883968E+01  0.10573755284E+03  0.11664994318E+03  0.00000000000E+00 0. -1.
<mgrwt>
<rscale>  0 0.18538766E+03</rscale>
<asrwt>0</asrwt>
<pdfrwt beam="1">  1        1 0.40869289E-01 0.19099609E+03</pdfrwt>
<pdfrwt beam="2">  1       -1 0.21841950E-01 0.19099609E+03</pdfrwt>
<totfact> 0.17652317E+03</totfact>
</mgrwt>
</event>
<event>
 7    1  0.1330601E-005  0.1278426E+03  0.7546771E-02  0.1244634E+00
         -1   -1    0    0    0  501 -0.00000000000E+00  0.00000000000E+00  0.41460873990E+02  0.41460873990E+02  0.00000000000E+00 0.  1.
          1   -1    0    0  501    0  0.00000000000E+00 -0.00000000000E+00 -0.31423614406E+03  0.31423614406E+03  0.00000000000E+00 0. -1.
         23    2    1    2    0    0  0.26290007759E+02  0.54186007004E+01 -0.15159466994E+03  0.17954801686E+03  0.92390587516E+02 0.  0.
          5    1    1    2  502    0 -0.33843748625E+02 -0.52129972521E+02 -0.11132647785E+03  0.12758764841E+03  0.47000000000E+01 0. -1.
         -5    1    1    2    0  502  0.75537408655E+01  0.46711371820E+02 -0.98541222825E+01  0.48561352786E+02  0.47000000000E+01 0. -1.
        -11    1    3    3    0    0  0.26078579799E+02 -0.30302616591E+02 -0.23084217007E+02  0.46165159714E+02  0.00000000000E+00 0.  1.
         11    1    3    3    0    0  0.21142796012E+00  0.35721217292E+02 -0.12851045293E+03  0.13338285714E+03  0.00000000000E+00 0. -1.
<mgrwt>
<rscale>  0 0.11907288E+03</rscale>
<asrwt>0</asrwt>
<pdfrwt beam="2">  1        1 0.48344021E-01 0.12784261E+03</pdfrwt>
<pdfrwt beam="1">  1       -1 0.63785962E-02 0.12784261E+03</pdfrwt>
<totfact> 0.94829222E+03</totfact>
</mgrwt>
</event>
<event>
 7    1  0.1330601E-005  0.1835675E+03  0.7546771E-02  0.1169987E+00
          2   -1    0    0  501    0  0.00000000000E+00  0.00000000000E+00  0.15985177241E+03  0.15985177241E+03  0.00000000000E+00 0. -1.
         -2   -1    0    0    0  501 -0.00000000000E+00 -0.00000000000E+00 -0.20077321184E+03  0.20077321184E+03  0.00000000000E+00 0.  1.
         23    2    1    2    0    0  0.23298480758E+02 -0.13237352213E+03  0.29343479918E+02  0.16406915537E+03  0.89398430431E+02 0.  0.
          5    1    1    2  502    0  0.17673383273E+02  0.12234858941E+03 -0.86677187409E+02  0.15105148336E+03  0.47000000000E+01 0. -1.
         -5    1    1    2    0  502 -0.40971864030E+02  0.10024932718E+02  0.16412268068E+02  0.45504345521E+02  0.47000000000E+01 0. -1.
        -11    1    3    3    0    0  0.11369430487E+02 -0.40441395135E+01 -0.22195296820E+02  0.25263614448E+02  0.00000000000E+00 0.  1.
         11    1    3    3    0    0  0.11929050270E+02 -0.12832938262E+03  0.51538776739E+02  0.13880554092E+03  0.00000000000E+00 0. -1.
<mgrwt>
<rscale>  0 0.17776194E+03</rscale>
<asrwt>0</asrwt>
<pdfrwt beam="1">  1        2 0.24592580E-01 0.18356752E+03</pdfrwt>
<pdfrwt beam="2">  1       -2 0.30888186E-01 0.18356752E+03</pdfrwt>
<totfact> 0.20895012E+03</totfact>
</mgrwt>
</event>
<event>
 7    1  0.1330601E-005  0.1368051E+03  0.7546771E-02  0.1229733E+00
          1   -1    0    0  501    0  0.00000000000E+00  0.00000000000E+00  0.31319292227E+03  0.31319292227E+03  0.00000000000E+00 0.  1.
         -1   -1    0    0    0  501 -0.00000000000E+00 -0.00000000000E+00 -0.51680911711E+02  0.51680911711E+02  0.00000000000E+00 0. -1.
         23    2    1    2    0    0 -0.51488582400E+01  0.55344599519E+02  0.16904462169E+03  0.19975011560E+03  0.90744085889E+02 0.  0.
          5    1    1    2  502    0  0.44174254543E+02 -0.57246826841E+02  0.92230804822E+01  0.73046007155E+02  0.47000000000E+01 0.  1.
         -5    1    1    2    0  502 -0.39025396303E+02  0.19022273216E+01  0.83244308384E+02  0.92077711221E+02  0.47000000000E+01 0.  1.
        -11    1    3    3    0    0 -0.42045715037E+02  0.43082645453E+01  0.82750621009E+02  0.92919688838E+02  0.00000000000E+00 0.  1.
         11    1    3    3    0    0  0.36896856797E+02  0.51036334974E+02  0.86294000678E+02  0.10683042676E+03  0.00000000000E+00 0. -1.
<mgrwt>
<rscale>  0 0.12847739E+03</rscale>
<asrwt>0</asrwt>
<pdfrwt beam="1">  1        1 0.48183525E-01 0.13680506E+03</pdfrwt>
<pdfrwt beam="2">  1       -1 0.79509097E-02 0.13680506E+03</pdfrwt>
<totfact> 0.68755027E+03</totfact>
</mgrwt>
</event>
<event>
 7    1  0.1330601E-005  0.1732953E+03  0.7546771E-02  0.1180553E+00
         -3   -1    0    0    0  501 -0.00000000000E+00  0.00000000000E+00  0.62246882104E+02  0.62246882104E+02  0.00000000000E+00 0.  1.
          3   -1    0    0  501    0  0.00000000000E+00 -0.00000000000E+00 -0.43851719661E+03  0.43851719661E+03  0.00000000000E+00 0. -1.
         23    2    1    2    0    0 -0.11994154653E+03 -0.43338351873E+01 -0.22358025398E+03  0.26979762897E+03  0.91639914417E+02 0.  0.
          5    1    1    2  502    0  0.20399058157E+02 -0.26050463395E+02  0.12489077273E+02  0.35676536658E+02  0.47000000000E+01 0. -1.
         -5    1    1    2    0  502  0.99542488370E+02  0.30384298582E+02 -0.16517913779E+03  0.19528991309E+03  0.47000000000E+01 0. -1.
        -11    1    3    3    0    0 -0.67452409526E+02  0.42886028127E+02 -0.12929622935E+03  0.15200840070E+03  0.00000000000E+00 0.  1.
         11    1    3    3    0    0 -0.52489137002E+02 -0.47219863315E+02 -0.94284024634E+02  0.11778922827E+03  0.00000000000E+00 0. -1.
<mgrwt>
<rscale>  0 0.16743187E+03</rscale>
<asrwt>0</asrwt>
<pdfrwt beam="2">  1        3 0.67464184E-01 0.17329526E+03</pdfrwt>
<pdfrwt beam="1">  1       -3 0.95764434E-02 0.17329526E+03</pdfrwt>
<totfact> 0.40989684E+02</totfact>
</mgrwt>
</event>
<event>
 7    1  0.1330601E-005  0.1830662E+03  0.7546771E-02  0.1186378E+00
          2   -1    0    0  501    0  0.00000000000E+00  0.00000000000E+00  0.90786866019E+03  0.90786866019E+03  0.00000000000E+00 0. -1.
         -2   -1    0    0    0  501 -0.00000000000E+00 -0.00000000000E+00 -0.26870736335E+02  0.26870736335E+02  0.00000000000E+00 0.  1.
         23    2    1    2    0    0 -0.36994361941E+02  0.36964188277E+02  0.49382308729E+03  0.50646661453E+03  0.99560313674E+02 0.  0.
          5    1    1    2  502    0 -0.82876907775E+01 -0.10268025473E+03  0.21784800857E+03  0.24102233375E+03  0.47000000000E+01 0. -1.
         -5    1    1    2    0  502  0.45282052719E+02  0.65716066456E+02  0.16932682800E+03  0.18725044825E+03  0.47000000000E+01 0.  1.
        -11    1    3    3    0    0 -0.69919827588E+02  0.27409993707E+02  0.38888339512E+03  0.39606866203E+03  0.00000000000E+00 0. -1.
         11    1    3    3    0    0  0.32925465647E+02  0.95541945703E+01  0.10493969217E+03  0.11039795249E+03  0.00000000000E+00 0.  1.
<mgrwt>
<rscale>  0 0.16207100E+03</rscale>
<asrwt>0</asrwt>
<pdfrwt beam="1">  1        2 0.13967208E+00 0.18306617E+03</pdfrwt>
<pdfrwt beam="2">  1       -2 0.41339601E-02 0.18306617E+03</pdfrwt>
<totfact> 0.77011133E+03</totfact>
</mgrwt>
</event>
<event>
 7    1  0.1330601E-005  0.1986118E+03  0.7546771E-02  0.1155282E+00
         -1   -1    0    0    0  501 -0.00000000000E+00  0.00000000000E+00  0.25524097195E+03  0.25524097195E+03  0.00000000000E+00 0.  1.
          1   -1    0    0  501    0  0.00000000000E+00 -0.00000000000E+00 -0.15300830339E+03  0.15300830339E+03  0.00000000000E+00 0. -1.
         23    2    1    2    0    0  0.12265355492E+03  0.93682740162E+02 -0.11177551011E+02  0.17953869626E+03  0.91043151679E+02 0.  0.
          5    1    1    2  502    0 -0.19210305652E+02  0.30597851476E+02  0.15278982521E+02  0.39506982485E+02  0.47000000000E+01 0.  1.
         -5    1    1    2    0  502 -0.10344324927E+03 -0.12428059164E+03  0.98131237053E+02  0.18920359659E+03  0.47000000000E+01 0.  1.
        -11    1    3    3    0    0  0.36048392464E+02  0.31083451968E+02  0.38950957868E+02  0.61504834805E+02  0.00000000000E+00 0.  1.
         11    1    3    3    0    0  0.86605162458E+02  0.62599288194E+02 -0.50128508880E+02  0.11803386145E+03  0.00000000000E+00 0. -1.
<mgrwt>
<rscale>  0 0.19356753E+03</rscale>
<asrwt>0</asrwt>
<pdfrwt beam="2">  1        1 0.23539739E-01 0.19861181E+03</pdfrwt>
<pdfrwt beam="1">  1       -1 0.39267842E-01 0.19861181E+03</pdfrwt>
<totfact> 0.13103910E+03</totfact>
</mgrwt>
</event>
<event>
 7    1  0.1330601E-005  0.1460098E+03  0.7546771E-02  0.1224781E+00
         -1   -1    0    0    0  501 -0.00000000000E+00  0.00000000000E+00  0.27784867178E+02  0.27784867178E+02  0.00000000000E+00 0.  1.
          1   -1    0    0  501    0  0.00000000000E+00 -0.00000000000E+00 -0.54570243241E+03  0.54570243241E+03  0.00000000000E+00 0. -1.
         23    2    1    2    0    0  0.22663521515E+02  0.75322814951E+01 -0.16252475921E+03  0.18927004506E+03  0.94013201879E+02 0.  0.
          5    1    1    2  502    0  0.73157814962E+01 -0.55249361321E+02 -0.29960775506E+03  0.30478338124E+03  0.47000000000E+01 0. -1.
         -5    1    1    2    0  502 -0.29979303011E+02  0.47717079826E+02 -0.55785050963E+02  0.79433873297E+02  0.47000000000E+01 0.  1.
        -11    1    3    3    0    0  0.33394010308E+02  0.10551074195E+01 -0.17093918213E+03  0.17417369826E+03  0.00000000000E+00 0.  1.
         11    1    3    3    0    0 -0.10730488793E+02  0.64771740756E+01  0.84144229193E+01  0.15096346803E+02  0.00000000000E+00 0. -1.
<mgrwt>
<rscale>  0 0.13181915E+03</rscale>
<asrwt>0</asrwt>
<pdfrwt beam="2">  1        1 0.83954225E-01 0.14600977E+03</pdfrwt>
<pdfrwt beam="1">  1       -1 0.42745947E-02 0.14600977E+03</pdfrwt>
<totfact> 0.85810557E+03</totfact>
</mgrwt>
</event>
<event>
 7    1  0.1330601E-005  0.1341699E+03  0.7546771E-02  0.1236092E+00
          1   -1    0    0  501    0  0.00000000000E+00  0.00000000000E+00  0.38541225608E+03  0.38541225608E+03  0.00000000000E+00 0.  1.
         -1   -1    0    0    0  501 -0.00000000000E+00 -0.00000000000E+00 -0.55806823120E+02  0.55806823120E+02  0.00000000000E+00 0. -1.
         23    2    1    2    0    0 -0.48716778930E+02 -0.13280011643E+01  0.28197463856E+03  0.29884538993E+03  0.86161372737E+02 0.  0.
          5    1    1    2  502    0  0.82169300681E+02 -0.97171219822E+01 -0.86115040562E-01  0.82875290949E+02  0.47000000000E+01 0. -1.
         -5    1    1    2    0  502 -0.33452521751E+02  0.11045123146E+02  0.47716909434E+02  0.59498398321E+02  0.47000000000E+01 0. -1.
        -11    1    3    3    0    0  0.76124791317E+01 -0.33219913021E+02  0.88908418418E+02  0.95216696673E+02  0.00000000000E+00 0.  1.
         11    1    3    3    0    0 -0.56329258061E+02  0.31891911857E+02  0.19306622014E+03  0.20362869325E+03  0.00000000000E+00 0. -1.
<mgrwt>
<rscale>  0 0.12434790E+03</rscale>
<asrwt>0</asrwt>
<pdfrwt beam="1">  1        1 0.59294192E-01 0.13416995E+03</pdfrwt>
<pdfrwt beam="2">  1       -1 0.85856653E-02 0.13416995E+03</pdfrwt>
<totfact> 0.47210889E+03</totfact>
</mgrwt>
</event>
<event>
 7    1  0.1330601E-005  0.1692358E+03  0.7546771E-02  0.1184573E+00
         -4   -1    0    0    0  501 -0.00000000000E+00  0.00000000000E+00  0.91750524889E+02  0.91750524889E+02  0.00000000000E+00 0.  1.
          4   -1    0    0  501    0  0.00000000000E+00 -0.00000000000E+00 -0.29815387898E+03  0.29815387898E+03  0.00000000000E+00 0. -1.
         23    2    1    2    0    0  0.80664781126E+02  0.80703809814E+02 -0.15165445757E+03  0.21203308866E+03  0.94546519538E+02 0.  0.
          5    1    1    2  502    0 -0.10268180431E+03 -0.79770395390E+02 -0.13423137251E+02  0.13080190951E+03  0.47000000000E+01 0. -1.
         -5    1    1    2    0  502  0.22017023189E+02 -0.93341442440E+00 -0.41325759272E+02  0.47069405689E+02  0.47000000000E+01 0. -1.
        -11    1    3    3    0    0  0.77565158180E+02  0.43499201317E+02 -0.15034420498E+03  0.17467659903E+03  0.00000000000E+00 0. -1.
         11    1    3    3    0    0  0.30996229457E+01  0.37204608497E+02 -0.13102525861E+01  0.37356489633E+02  0.00000000000E+00 0.  1.
<mgrwt>
<rscale>  0 0.16370829E+03</rscale>
<asrwt>0</asrwt>
<pdfrwt beam="2">  1        4 0.45869828E-01 0.16923582E+03</pdfrwt>
<pdfrwt beam="1">  1       -4 0.14115465E-01 0.16923582E+03</pdfrwt>
<totfact> 0.33550428E+02</totfact>
</mgrwt>
</event>
<event>
 7    1  0.1330601E-005  0.1269732E+03  0.7546771E-02  0.1247509E+00
          2   -1    0    0  501    0  0.00000000000E+00  0.00000000000E+00  0.31208947099E+03  0.31208947099E+03  0.00000000000E+00 0. -1.
         -2   -1    0    0    0  501 -0.00000000000E+00 -0.00000000000E+00 -0.48834179917E+02  0.48834179917E+02  0.00000000000E+00 0.  1.
         23    2    1    2    0    0 -0.19771598290E+02 -0.10325233413E+02  0.19697593369E+03  0.21769258432E+03  0.89961193132E+02 0.  0.
          5    1    1    2  502    0  0.29626118630E+02  0.41421966585E+01  0.10145867881E+03  0.10588115132E+03  0.47000000000E+01 0.  1.
         -5    1    1    2    0  502 -0.98545203395E+01  0.61830367547E+01 -0.35179321428E+02  0.37349915271E+02  0.47000000000E+01 0.  1.
        -11    1    3    3    0    0  0.11916128249E+02  0.20263302543E+02  0.99082938627E+01  0.25510190702E+02  0.00000000000E+00 0.  1.
         11    1    3    3    0    0 -0.31687726540E+02 -0.30588535956E+02  0.18706763983E+03  0.19218239361E+03  0.00000000000E+00 0. -1.
<mgrwt>
<rscale>  0 0.11736444E+03</rscale>
<asrwt>0</asrwt>
<pdfrwt beam="1">  1        2 0.48013764E-01 0.12697317E+03</pdfrwt>
<pdfrwt beam="2">  1       -2 0.75129509E-02 0.12697317E+03</pdfrwt>
<totfact> 0.10286126E+04</totfact>
</mgrwt>
</event>
<event>
 7    1  0.1330601E-005  0.1945358E+03  0.7546771E-02  0.1158989E+00
          3   -1    0    0  501    0  0.00000000000E+00  0.00000000000E+00  0.85464979160E+03  0.85464979160E+03  0.00000000000E+00 0. -1.
         -3   -1    0    0    0  501 -0.00000000000E+00 -0.00000000000E+00 -0.45302373662E+02  0.45302373662E+02  0.00000000000E+00 0.  1.
         23    2    1    2    0    0  0.86875677354E+02 -0.12113182221E+03  0.23067536115E+03  0.28945603669E+03  0.91396790233E+02 0.  0.
          5    1    1    2  502    0 -0.98690902955E+02  0.11047461857E+03  0.57460775440E+03  0.59341443957E+03  0.47000000000E+01 0. -1.
         -5    1    1    2    0  502  0.11815225601E+02  0.10657203639E+02  0.40643023884E+01  0.17081689006E+02  0.47000000000E+01 0. -1.
        -11    1    3    3    0    0  0.45302983249E+02 -0.91995190691E+02  0.78812512972E+02  0.12933246925E+03  0.00000000000E+00 0.  1.
         11    1    3    3    0    0  0.41572694105E+02 -0.29136631519E+02  0.15186284818E+03  0.16012356744E+03  0.00000000000E+00 0. -1.
<mgrwt>
<rscale>  0 0.18941662E+03</rscale>
<asrwt>0</asrwt>
<pdfrwt beam="1">  1        3 0.13148457E+00 0.19453579E+03</pdfrwt>
<pdfrwt beam="2">  1       -3 0.69695966E-02 0.19453579E+03</pdfrwt>
<totfact> 0.15495403E+02</totfact>
</mgrwt>
</event>
<event>
 7    1  0.1330601E-005  0.1374414E+03  0.7546771E-02  0.1228331E+00
         -1   -1    0    0    0  501 -0.00000000000E+00  0.00000000000E+00  0.84468036356E+02  0.84468036356E+02  0.00000000000E+00 0.  1.
          1   -1    0    0  501    0  0.00000000000E+00 -0.00000000000E+00 -0.18748140881E+03  0.18748140881E+03  0.00000000000E+00 0. -1.
         23    2    1    2    0    0 -0.52112767194E+02  0.23434739440E+02 -0.75453509631E+02  0.13177214536E+03  0.91682815517E+02 0.  0.
          5    1    1    2  502    0  0.76284497388E+02 -0.50357581967E+02  0.44565861641E+01  0.91636028742E+02  0.47000000000E+01 0. -1.
         -5    1    1    2    0  502 -0.24171730194E+02  0.26922842527E+02 -0.32016448986E+02  0.48541271058E+02  0.47000000000E+01 0. -1.
        -11    1    3    3    0    0  0.93590301119E+01  0.21567821102E+02  0.10772138963E+02  0.25861193506E+02  0.00000000000E+00 0.  1.
         11    1    3    3    0    0 -0.61471797306E+02  0.18669183384E+01 -0.86225648594E+02  0.10591095186E+03  0.00000000000E+00 0. -1.
<mgrwt>
<rscale>  0 0.12941215E+03</rscale>
<asrwt>0</asrwt>
<pdfrwt beam="2">  1        1 0.28843294E-01 0.13744137E+03</pdfrwt>
<pdfrwt beam="1">  1       -1 0.12995083E-01 0.13744137E+03</pdfrwt>
<totfact> 0.61292318E+03</totfact>
</mgrwt>
</event>
<event>
 7    1  0.1330601E-005  0.5645892E+03  0.7546771E-02  0.1055263E+00
          2   -1    0    0  501    0  0.00000000000E+00  0.00000000000E+00  0.81503187512E+03  0.81503187512E+03  0.00000000000E+00 0. -1.
         -2   -1    0    0    0  501 -0.00000000000E+00 -0.00000000000E+00 -0.14592767281E+03  0.14592767281E+03  0.00000000000E+00 0.  1.
         23    2    1    2    0    0 -0.71695377239E+01 -0.42643571010E+02  0.20848900952E+03  0.23231193426E+03  0.92904743097E+02 0.  0.
          5    1    1    2  502    0  0.27152058674E+02 -0.49977200750E+02  0.57625435317E+03  0.57907350521E+03  0.47000000000E+01 0. -1.
         -5    1    1    2    0  502 -0.19982520950E+02  0.92620771761E+02 -0.11563916038E+03  0.14957410845E+03  0.47000000000E+01 0.  1.
        -11    1    3    3    0    0  0.44255678481E+01 -0.63955725415E+02  0.85019251068E+02  0.10648095377E+03  0.00000000000E+00 0.  1.
         11    1    3    3    0    0 -0.11595105572E+02  0.21312154404E+02  0.12346975845E+03  0.12583098049E+03  0.00000000000E+00 0. -1.
<mgrwt>
<rscale>  0 0.36851412E+03</rscale>
<asrwt>0</asrwt>
<pdfrwt beam="1">  1        2 0.12538952E+00 0.56458922E+03</pdfrwt>
<pdfrwt beam="2">  1       -2 0.22450412E-01 0.56458922E+03</pdfrwt>
<totfact> 0.59030859E+02</totfact>
</mgrwt>
</event>
<event>
 7    1  0.1330601E-005  0.1388795E+03  0.7546771E-02  0.1226170E+00
          2   -1    0    0  501    0  0.00000000000E+00  0.00000000000E+00  0.44194401595E+03  0.44194401595E+03  0.00000000000E+00 0. -1.
         -2   -1    0    0    0  501 -0.00000000000E+00 -0.00000000000E+00 -0.38525825280E+02  0.38525825280E+02  0.00000000000E+00 0.  1.
         23    2    1    2    0    0 -0.22393079852E+02 -0.56213551520E+02  0.25332253757E+03  0.27597970106E+03  0.91274716964E+02 0.  0.
          5    1    1    2  502    0 -0.42292626319E+02  0.49756162293E+02  0.40519542931E+02  0.76995228984E+02  0.47000000000E+01 0.  1.
         -5    1    1    2    0  502  0.64685706170E+02  0.64573892271E+01  0.10957611017E+03  0.12749491118E+03  0.47000000000E+01 0.  1.
        -11    1    3    3    0    0  0.82133794633E+00 -0.71943891983E+02  0.12147826459E+03  0.14118628459E+03  0.00000000000E+00 0.  1.
         11    1    3    3    0    0 -0.23214417798E+02  0.15730340464E+02  0.13184427299E+03  0.13479341647E+03  0.00000000000E+00 0. -1.
<mgrwt>
<rscale>  0 0.13087064E+03</rscale>
<asrwt>0</asrwt>
<pdfrwt beam="1">  1        2 0.67991384E-01 0.13887949E+03</pdfrwt>
<pdfrwt beam="2">  1       -2 0.59270503E-02 0.13887949E+03</pdfrwt>
<totfact> 0.10261862E+04</totfact>
</mgrwt>
</event>
<event>
 7    1  0.1330601E-005  0.1369645E+03  0.7546771E-02  0.1228492E+00
          1   -1    0    0  501    0  0.00000000000E+00  0.00000000000E+00  0.17289611996E+03  0.17289611996E+03  0.00000000000E+00 0. -1.
         -1   -1    0    0    0  501 -0.00000000000E+00 -0.00000000000E+00 -0.11044717813E+03  0.11044717813E+03  0.00000000000E+00 0.  1.
         23    2    1    2    0    0  0.11180010952E+02 -0.54856186169E+02  0.92864872298E+02  0.14304217986E+03  0.93289800651E+02 0.  0.
          5    1    1    2  502    0  0.52350090336E+02  0.31383291704E+01  0.38702355783E+00  0.52655682081E+02  0.47000000000E+01 0.  1.
         -5    1    1    2    0  502 -0.63530101288E+02  0.51717856999E+02 -0.30802954019E+02  0.87645436153E+02  0.47000000000E+01 0.  1.
        -11    1    3    3    0    0  0.51865977019E+02 -0.39879626809E+02  0.57147490562E+02  0.86869441601E+02  0.00000000000E+00 0. -1.
         11    1    3    3    0    0 -0.40685966067E+02 -0.14976559360E+02  0.35717381736E+02  0.56172738256E+02  0.00000000000E+00 0.  1.
<mgrwt>
<rscale>  0 0.12930403E+03</rscale>
<asrwt>0</asrwt>
<pdfrwt beam="1">  1        1 0.26599403E-01 0.13696450E+03</pdfrwt>
<pdfrwt beam="2">  1       -1 0.16991873E-01 0.13696450E+03</pdfrwt>
<totfact> 0.44542669E+03</totfact>
</mgrwt>
</event>
<event>
 7    1  0.1330601E-005  0.1607353E+03  0.7546771E-02  0.1194146E+00
          3   -1    0    0  501    0  0.00000000000E+00  0.00000000000E+00  0.11233624196E+03  0.11233624196E+03  0.00000000000E+00 0. -1.
         -3   -1    0    0    0  501 -0.00000000000E+00 -0.00000000000E+00 -0.20593841984E+03  0.20593841984E+03  0.00000000000E+00 0.  1.
         23    2    1    2    0    0  0.54028835721E+02  0.85449358159E+02 -0.19588909023E+02  0.14131764546E+03  0.96779355558E+02 0.  0.
          5    1    1    2  502    0  0.22805030041E+02 -0.42224124067E+01  0.19857372533E+02  0.30891801592E+02  0.47000000000E+01 0.  1.
         -5    1    1    2    0  502 -0.76833865763E+02 -0.81226945752E+02 -0.93870641394E+02  0.14606521475E+03  0.47000000000E+01 0.  1.
        -11    1    3    3    0    0  0.47257738940E+02  0.40236278246E+01 -0.33991005774E+02  0.58351280570E+02  0.00000000000E+00 0.  1.
         11    1    3    3    0    0  0.67710967812E+01  0.81425730334E+02  0.14402096751E+02  0.82966364889E+02  0.00000000000E+00 0. -1.
<mgrwt>
<rscale>  0 0.15526702E+03</rscale>
<asrwt>0</asrwt>
<pdfrwt beam="1">  1        3 0.17282499E-01 0.16073525E+03</pdfrwt>
<pdfrwt beam="2">  1       -3 0.31682833E-01 0.16073525E+03</pdfrwt>
<totfact> 0.66719751E+02</totfact>
</mgrwt>
</event>
<event>
 7    1  0.1330601E-005  0.1912940E+03  0.7546771E-02  0.1159004E+00
          1   -1    0    0  501    0  0.00000000000E+00  0.00000000000E+00  0.47038120563E+03  0.47038120563E+03  0.00000000000E+00 0. -1.
         -1   -1    0    0    0  501 -0.00000000000E+00 -0.00000000000E+00 -0.84824506508E+02  0.84824506508E+02  0.00000000000E+00 0.  1.
         23    2    1    2    0    0 -0.10305398379E+03 -0.10172648624E+03  0.28486516041E+03  0.33902944816E+03  0.11324489183E+03 0.  0.
          5    1    1    2  502    0  0.13105915070E+03  0.74942051807E+02  0.69789631522E+02  0.16638958735E+03  0.47000000000E+01 0.  1.
         -5    1    1    2    0  502 -0.28005166908E+02  0.26784434432E+02  0.30901907191E+02  0.49786676625E+02  0.47000000000E+01 0.  1.
        -11    1    3    3    0    0 -0.76670358041E+02  0.87890330539E+00  0.10073801901E+03  0.12659883391E+03  0.00000000000E+00 0. -1.
         11    1    3    3    0    0 -0.26383625753E+02 -0.10260538954E+03  0.18412714140E+03  0.21243061425E+03  0.00000000000E+00 0.  1.
<mgrwt>
<rscale>  0 0.18939959E+03</rscale>
<asrwt>0</asrwt>
<pdfrwt beam="1">  1        1 0.72366337E-01 0.19129399E+03</pdfrwt>
<pdfrwt beam="2">  1       -1 0.13049924E-01 0.19129399E+03</pdfrwt>
<totfact> 0.19482401E+03</totfact>
</mgrwt>
</event>
<event>
 7    1  0.1330601E-005  0.1772242E+03  0.7546771E-02  0.1177193E+00
         -1   -1    0    0    0  501 -0.00000000000E+00  0.00000000000E+00  0.82907808589E+02  0.82907808589E+02  0.00000000000E+00 0.  1.
          1   -1    0    0  501    0  0.00000000000E+00 -0.00000000000E+00 -0.36194764728E+03  0.36194764728E+03  0.00000000000E+00 0. -1.
         23    2    1    2    0    0  0.93785562635E+02  0.79557016707E+02 -0.19851500517E+03  0.25019504801E+03  0.89801470516E+02 0.  0.
          5    1    1    2  502    0 -0.51917469578E+02 -0.73853830900E+02 -0.11040699432E+03  0.14269410072E+03  0.47000000000E+01 0.  1.
         -5    1    1    2    0  502 -0.41868093057E+02 -0.57031858070E+01  0.29882160789E+02  0.51966307142E+02  0.47000000000E+01 0.  1.
        -11    1    3    3    0    0  0.15928713095E+02  0.72111094470E+02 -0.89713651479E+02  0.11619928188E+03  0.00000000000E+00 0.  1.
         11    1    3    3    0    0  0.77856849539E+02  0.74459222372E+01 -0.10880135369E+03  0.13399576614E+03  0.00000000000E+00 0. -1.
<mgrwt>
<rscale>  0 0.17062922E+03</rscale>
<asrwt>0</asrwt>
<pdfrwt beam="2">  1        1 0.55684253E-01 0.17722422E+03</pdfrwt>
<pdfrwt beam="1">  1       -1 0.12755048E-01 0.17722422E+03</pdfrwt>
<totfact> 0.28170504E+03</totfact>
</mgrwt>
</event>
<event>
 7    1  0.1330601E-005  0.1687311E+03  0.7546771E-02  0.1183244E+00
          1   -1    0    0  501    0  0.00000000000E+00  0.00000000000E+00  0.94704366427E+02  0.94704366427E+02  0.00000000000E+00 0. -1.
         -1   -1    0    0    0  501 -0.00000000000E+00 -0.00000000000E+00 -0.27659017950E+03  0.27659017950E+03  0.00000000000E+00 0.  1.
         23    2    1    2    0    0 -0.75997407064E+02 -0.98728444574E+02 -0.72680609201E+02  0.17030709630E+03  0.90549016823E+02 0.  0.
          5    1    1    2  502    0  0.10435549349E+03  0.81336724211E+02 -0.10068021157E+03  0.16632596529E+03  0.47000000000E+01 0. -1.
         -5    1    1    2    0  502 -0.28358086423E+02  0.17391720363E+02 -0.85249922977E+01  0.34661484337E+02  0.47000000000E+01 0.  1.
        -11    1    3    3    0    0  0.11425836040E+02 -0.30874606391E+02 -0.45833076889E+02  0.56431037437E+02  0.00000000000E+00 0.  1.
         11    1    3    3    0    0 -0.87423243104E+02 -0.67853838183E+02 -0.26847532311E+02  0.11387605886E+03  0.00000000000E+00 0. -1.
<mgrwt>
<rscale>  0 0.16492645E+03</rscale>
<asrwt>0</asrwt>
<pdfrwt beam="1">  1        1 0.14569903E-01 0.16873108E+03</pdfrwt>
<pdfrwt beam="2">  1       -1 0.42552335E-01 0.16873108E+03</pdfrwt>
<totfact> 0.20984068E+03</totfact>
</mgrwt>
</event>
<event>
 7    1  0.1330601E-005  0.1459900E+03  0.7546771E-02  0.1216501E+00
         -1   -1    0    0    0  501 -0.00000000000E+00  0.00000000000E+00  0.54519289697E+02  0.54519289697E+02  0.00000000000E+00 0.  1.
          1   -1    0    0  501    0  0.00000000000E+00 -0.00000000000E+00 -0.51167126275E+03  0.51167126275E+03  0.00000000000E+00 0. -1.
         23    2    1    2    0    0  0.37471131724E+02  0.65452701704E+02 -0.38769934731E+03  0.40452188932E+03  0.87401562699E+02 0.  0.
          5    1    1    2  502    0 -0.89824749946E+01 -0.81491163611E+02 -0.90733759224E+02  0.12237728411E+03  0.47000000000E+01 0.  1.
         -5    1    1    2    0  502 -0.28488656729E+02  0.16038461907E+02  0.21281133481E+02  0.39291379014E+02  0.47000000000E+01 0.  1.
        -11    1    3    3    0    0  0.52530630071E+02  0.79185675102E+02 -0.32305552339E+03  0.33674130936E+03  0.00000000000E+00 0. -1.
         11    1    3    3    0    0 -0.15059498347E+02 -0.13732973398E+02 -0.64643823926E+02  0.67780579966E+02  0.00000000000E+00 0.  1.
<mgrwt>
<rscale>  0 0.13766853E+03</rscale>
<asrwt>0</asrwt>
<pdfrwt beam="2">  1        1 0.78718658E-01 0.14599003E+03</pdfrwt>
<pdfrwt beam="1">  1       -1 0.83875828E-02 0.14599003E+03</pdfrwt>
<totfact> 0.34155550E+03</totfact>
</mgrwt>
</event>
<event>
 7    1  0.1330601E-005  0.1257419E+03  0.7546771E-02  0.1249107E+00
         -2   -1    0    0    0  501 -0.00000000000E+00  0.00000000000E+00  0.29345496732E+02  0.29345496732E+02  0.00000000000E+00 0.  1.
          2   -1    0    0  501    0  0.00000000000E+00 -0.00000000000E+00 -0.46400238815E+03  0.46400238815E+03  0.00000000000E+00 0. -1.
         23    2    1    2    0    0 -0.11943232850E+02 -0.66003991398E+01 -0.27501883959E+03  0.29013533290E+03  0.91416317952E+02 0.  0.
          5    1    1    2  502    0 -0.34426478442E+02 -0.16206678616E+02 -0.14400348800E+03  0.14901990943E+03  0.47000000000E+01 0.  1.
         -5    1    1    2    0  502  0.46369711291E+02  0.22807077756E+02 -0.15634563830E+02  0.54192642556E+02  0.47000000000E+01 0.  1.
        -11    1    3    3    0    0 -0.51596774681E+02  0.13927691392E+01 -0.14131328176E+03  0.15044470933E+03  0.00000000000E+00 0.  1.
         11    1    3    3    0    0  0.39653541832E+02 -0.79931682789E+01 -0.13370555783E+03  0.13969062357E+03  0.00000000000E+00 0. -1.
<mgrwt>
<rscale>  0 0.11642932E+03</rscale>
<asrwt>0</asrwt>
<pdfrwt beam="2">  1        2 0.71384976E-01 0.12574193E+03</pdfrwt>
<pdfrwt beam="1">  1       -2 0.45146922E-02 0.12574193E+03</pdfrwt>
<totfact> 0.14546586E+04</totfact>
</mgrwt>
</event>
<event>
 7    1  0.1330601E-005  0.2258756E+03  0.7546771E-02  0.1129577E+00
          3   -1    0    0  501    0  0.00000000000E+00  0.00000000000E+00  0.22132458327E+03  0.22132458327E+03  0.00000000000E+00 0. -1.
         -3   -1    0    0    0  501 -0.00000000000E+00 -0.00000000000E+00 -0.57630071986E+02  0.57630071986E+02  0.00000000000E+00 0.  1.
         23    2    1    2    0    0 -0.91147645546E+01  0.30622420277E+02  0.67518629080E+02  0.11802521086E+03  0.91380378464E+02 0.  0.
          5    1    1    2  502    0 -0.22482076484E+02  0.39013369329E+02  0.11442835936E+02  0.46695987447E+02  0.47000000000E+01 0.  1.
         -5    1    1    2    0  502  0.31596841038E+02 -0.69635789605E+02  0.84733046272E+02  0.11423345696E+03  0.47000000000E+01 0.  1.
        -11    1    3    3    0    0  0.65466643246E+00  0.43865211122E+02  0.83980379405E+02  0.94748559144E+02  0.00000000000E+00 0. -1.
         11    1    3    3    0    0 -0.97694309871E+01 -0.13242790845E+02 -0.16461750325E+02  0.23276651712E+02  0.00000000000E+00 0.  1.
<mgrwt>
<rscale>  0 0.22587564E+03</rscale>
<asrwt>0</asrwt>
<pdfrwt beam="1">  1        3 0.34049935E-01 0.22587564E+03</pdfrwt>
<pdfrwt beam="2">  1       -3 0.88661651E-02 0.22587564E+03</pdfrwt>
<totfact> 0.18945156E+03</totfact>
</mgrwt>
</event>
<event>
 7    1  0.1330601E-005  0.1377109E+03  0.7546771E-02  0.1228036E+00
         -1   -1    0    0    0  501 -0.00000000000E+00  0.00000000000E+00  0.11703528322E+03  0.11703528322E+03  0.00000000000E+00 0.  1.
          1   -1    0    0  501    0  0.00000000000E+00 -0.00000000000E+00 -0.14690498532E+03  0.14690498532E+03  0.00000000000E+00 0. -1.
         23    2    1    2    0    0  0.37781728716E+02 -0.43735509737E+02 -0.59101082181E+02  0.12316111447E+03  0.91298786223E+02 0.  0.
          5    1    1    2  502    0 -0.22926532351E+02 -0.41288562748E+02 -0.51790863629E+01  0.47741849933E+02  0.47000000000E+01 0.  1.
         -5    1    1    2    0  502 -0.14855196365E+02  0.85024072485E+02  0.34410466438E+02  0.93037304140E+02  0.47000000000E+01 0.  1.
        -11    1    3    3    0    0  0.13243910615E+01 -0.36218863708E+02  0.15786743277E+02  0.39532029588E+02  0.00000000000E+00 0.  1.
         11    1    3    3    0    0  0.36457337654E+02 -0.75166460285E+01 -0.74887825458E+02  0.83629084882E+02  0.00000000000E+00 0. -1.
<mgrwt>
<rscale>  0 0.12960947E+03</rscale>
<asrwt>0</asrwt>
<pdfrwt beam="2">  1        1 0.22600767E-01 0.13771092E+03</pdfrwt>
<pdfrwt beam="1">  1       -1 0.18005428E-01 0.13771092E+03</pdfrwt>
<totfact> 0.49878731E+03</totfact>
</mgrwt>
</event>
<event>
 7    1  0.1330601E-005  0.2015872E+03  0.7546771E-02  0.1152545E+00
         -1   -1    0    0    0  501 -0.00000000000E+00  0.00000000000E+00  0.85044385098E+03  0.85044385098E+03  0.00000000000E+00 0.  1.
          1   -1    0    0  501    0  0.00000000000E+00 -0.00000000000E+00 -0.70588643966E+02  0.70588643966E+02  0.00000000000E+00 0. -1.
         23    2    1    2    0    0  0.92348881292E+02 -0.12839090987E+03  0.92736644645E+02  0.20495335729E+03  0.91614692022E+02 0.  0.
          5    1    1    2  502    0 -0.12189169228E+03  0.84720053727E+02  0.51795311791E+03  0.53882519847E+03  0.47000000000E+01 0. -1.
         -5    1    1    2    0  502  0.29542810991E+02  0.43670856139E+02  0.16916544445E+03  0.17725393918E+03  0.47000000000E+01 0. -1.
        -11    1    3    3    0    0  0.43493977762E+02 -0.76186118412E+02  0.10006987103E+03  0.13307903602E+03  0.00000000000E+00 0. -1.
         11    1    3    3    0    0  0.48854903529E+02 -0.52204791454E+02 -0.73332263832E+01  0.71874321275E+02  0.00000000000E+00 0.  1.
<mgrwt>
<rscale>  0 0.19670934E+03</rscale>
<asrwt>0</asrwt>
<pdfrwt beam="2">  1        1 0.10859792E-01 0.20158723E+03</pdfrwt>
<pdfrwt beam="1">  1       -1 0.13083751E+00 0.20158723E+03</pdfrwt>
<totfact> 0.30884605E+02</totfact>
</mgrwt>
</event>
<event>
 7    1  0.1330601E-005  0.1705093E+03  0.7546771E-02  0.1184114E+00
         -2   -1    0    0    0  501 -0.00000000000E+00  0.00000000000E+00  0.28504282184E+02  0.28504282184E+02  0.00000000000E+00 0.  1.
          2   -1    0    0  501    0  0.00000000000E+00 -0.00000000000E+00 -0.88992039283E+03  0.88992039283E+03  0.00000000000E+00 0. -1.
         23    2    1    2    0    0  0.35000421569E+02 -0.11055823447E+03 -0.44477246905E+03  0.46824097802E+03  0.89324753329E+02 0.  0.
          5    1    1    2  502    0  0.31911054951E+02 -0.25507711906E+01 -0.14256096211E+03  0.14618666075E+03  0.47000000000E+01 0.  1.
         -5    1    1    2    0  502 -0.66911476519E+02  0.11310900566E+03 -0.27408267949E+03  0.30399703624E+03  0.47000000000E+01 0.  1.
        -11    1    3    3    0    0  0.58868303336E+02 -0.52264879745E+02 -0.18721153993E+03  0.20308927957E+03  0.00000000000E+00 0.  1.
         11    1    3    3    0    0 -0.23867881768E+02 -0.58293354726E+02 -0.25756092912E+03  0.26515169846E+03  0.00000000000E+00 0. -1.
<mgrwt>
<rscale>  0 0.16412755E+03</rscale>
<asrwt>0</asrwt>
<pdfrwt beam="2">  1        2 0.13691085E+00 0.17050935E+03</pdfrwt>
<pdfrwt beam="1">  1       -2 0.43852736E-02 0.17050935E+03</pdfrwt>
<totfact> 0.72141015E+03</totfact>
</mgrwt>
</event>
<event>
 7    1  0.1330601E-005  0.2532941E+03  0.7546771E-02  0.1113777E+00
         -1   -1    0    0    0  501 -0.00000000000E+00  0.00000000000E+00  0.18164591371E+03  0.18164591371E+03  0.00000000000E+00 0.  1.
          1   -1    0    0  501    0  0.00000000000E+00 -0.00000000000E+00 -0.33201797046E+03  0.33201797046E+03  0.00000000000E+00 0. -1.
         23    2    1    2    0    0  0.45595495060E+02 -0.21553115744E+03 -0.82450516471E+02  0.25142120349E+03  0.88780092911E+02 0.  0.
          5    1    1    2  502    0 -0.61045052068E+01  0.16897894146E+03  0.21788451010E+01  0.16916851068E+03  0.47000000000E+01 0. -1.
         -5    1    1    2    0  502 -0.39490989853E+02  0.46552215985E+02 -0.70100385373E+02  0.93074170005E+02  0.47000000000E+01 0. -1.
        -11    1    3    3    0    0  0.35444876244E+02 -0.21675970015E+03 -0.61464244902E+02  0.22807665436E+03  0.00000000000E+00 0.  1.
         11    1    3    3    0    0  0.10150618816E+02  0.12285427105E+01 -0.20986271569E+02  0.23344549126E+02  0.00000000000E+00 0. -1.
<mgrwt>
<rscale>  0 0.24925429E+03</rscale>
<asrwt>0</asrwt>
<pdfrwt beam="2">  1        1 0.51079687E-01 0.25329407E+03</pdfrwt>
<pdfrwt beam="1">  1       -1 0.27945525E-01 0.25329407E+03</pdfrwt>
<totfact> 0.88968392E+02</totfact>
</mgrwt>
</event>
<event>
 7    1  0.1330601E-005  0.2295577E+03  0.7546771E-02  0.1129820E+00
         -2   -1    0    0    0  501 -0.00000000000E+00  0.00000000000E+00  0.28777490940E+03  0.28777490940E+03  0.00000000000E+00 0. -1.
          2   -1    0    0  501    0  0.00000000000E+00 -0.00000000000E+00 -0.17443713862E+03  0.17443713862E+03  0.00000000000E+00 0.  1.
         23    2    1    2    0    0 -0.38702104606E+02  0.18861182765E+03  0.21530024970E+02  0.21497655814E+03  0.93161709645E+02 0.  0.
          5    1    1    2  502    0  0.12126386800E+02 -0.43108140129E+02 -0.31218006923E+02  0.54790646633E+02  0.47000000000E+01 0. -1.
         -5    1    1    2    0  502  0.26575717806E+02 -0.14550368752E+03  0.12302575274E+03  0.19244484325E+03  0.47000000000E+01 0. -1.
        -11    1    3    3    0    0 -0.30493546649E+01  0.28178731201E+02 -0.31415653480E+02  0.42311732883E+02  0.00000000000E+00 0.  1.
         11    1    3    3    0    0 -0.35652749941E+02  0.16043309644E+03  0.52945678451E+02  0.17266482525E+03  0.00000000000E+00 0. -1.
<mgrwt>
<rscale>  0 0.22553782E+03</rscale>
<asrwt>0</asrwt>
<pdfrwt beam="2">  1        2 0.26836483E-01 0.22955767E+03</pdfrwt>
<pdfrwt beam="1">  1       -2 0.44273063E-01 0.22955767E+03</pdfrwt>
<totfact> 0.96918288E+02</totfact>
</mgrwt>
</event>
<event>
 7    1  0.1330601E-005  0.1838349E+03  0.7546771E-02  0.1169057E+00
          1   -1    0    0  501    0  0.00000000000E+00  0.00000000000E+00  0.93582777094E+02  0.93582777094E+02  0.00000000000E+00 0. -1.
         -1   -1    0    0    0  501 -0.00000000000E+00 -0.00000000000E+00 -0.32368576525E+03  0.32368576525E+03  0.00000000000E+00 0.  1.
         23    2    1    2    0    0 -0.12381300238E+03  0.53301287535E+02 -0.11291139059E+03  0.19925671017E+03  0.93720689348E+02 0.  0.
          5    1    1    2  502    0 -0.90641715719E+00  0.13624483600E+02 -0.65784269496E+02  0.67350636660E+02  0.47000000000E+01 0. -1.
         -5    1    1    2    0  502  0.12471941954E+03 -0.66925771135E+02 -0.51407328071E+02  0.15066119551E+03  0.47000000000E+01 0. -1.
        -11    1    3    3    0    0 -0.72582755628E+02 -0.56917848213E+01 -0.15596778076E+02  0.74457453055E+02  0.00000000000E+00 0. -1.
         11    1    3    3    0    0 -0.51230246756E+02  0.58993072356E+02 -0.97314612512E+02  0.12479925712E+03  0.00000000000E+00 0.  1.
<mgrwt>
<rscale>  0 0.17871025E+03</rscale>
<asrwt>0</asrwt>
<pdfrwt beam="1">  1        1 0.14397350E-01 0.18383495E+03</pdfrwt>
<pdfrwt beam="2">  1       -1 0.49797811E-01 0.18383495E+03</pdfrwt>
<totfact> 0.16084410E+03</totfact>
</mgrwt>
</event>
<event>
 7    1  0.1330601E-005  0.2579682E+03  0.7546771E-02  0.1110748E+00
         -2   -1    0    0    0  501 -0.00000000000E+00  0.00000000000E+00  0.52152937300E+02  0.52152937300E+02  0.00000000000E+00 0.  1.
          2   -1    0    0  501    0  0.00000000000E+00 -0.00000000000E+00 -0.12054977476E+04  0.12054977476E+04  0.00000000000E+00 0. -1.
         23    2    1    2    0    0 -0.18036881479E+03  0.13560808563E+03 -0.52574582709E+03  0.57910219385E+03  0.89600301259E+02 0.  0.
          5    1    1    2  502    0  0.12571313920E+03 -0.14347312232E+03 -0.55711686586E+03  0.58888846348E+03  0.47000000000E+01 0.  1.
         -5    1    1    2    0  502  0.54655675588E+02  0.78650366896E+01 -0.70482117329E+02  0.89660027544E+02  0.47000000000E+01 0.  1.
        -11    1    3    3    0    0 -0.88074301292E+02  0.29850756573E+02 -0.13517959574E+03  0.16407825365E+03  0.00000000000E+00 0.  1.
         11    1    3    3    0    0 -0.92294513495E+02  0.10575732906E+03 -0.39056623135E+03  0.41502394020E+03  0.00000000000E+00 0. -1.
<mgrwt>
<rscale>  0 0.25408889E+03</rscale>
<asrwt>0</asrwt>
<pdfrwt beam="2">  1        2 0.18546118E+00 0.25796816E+03</pdfrwt>
<pdfrwt beam="1">  1       -2 0.80235294E-02 0.25796816E+03</pdfrwt>
<totfact> 0.18670116E+03</totfact>
</mgrwt>
</event>
<event>
 7    1  0.1330601E-005  0.1503918E+03  0.7546771E-02  0.1206615E+00
          1   -1    0    0  501    0  0.00000000000E+00  0.00000000000E+00  0.10054906990E+03  0.10054906990E+03  0.00000000000E+00 0. -1.
         -1   -1    0    0    0  501 -0.00000000000E+00 -0.00000000000E+00 -0.20226911551E+03  0.20226911551E+03  0.00000000000E+00 0.  1.
         23    2    1    2    0    0 -0.75292392822E+02 -0.36386846865E+02 -0.20672074462E+02  0.13197771540E+03  0.99989177707E+02 0.  0.
          5    1    1    2  502    0  0.68312935254E+01 -0.17140482010E+02  0.26411285950E+02  0.32559310809E+02  0.47000000000E+01 0.  1.
         -5    1    1    2    0  502  0.68461099297E+02  0.53527328876E+02 -0.10745925710E+03  0.13828115920E+03  0.47000000000E+01 0.  1.
        -11    1    3    3    0    0 -0.44918354758E+01  0.16924185985E+02  0.26358850297E+02  0.31644804411E+02  0.00000000000E+00 0. -1.
         11    1    3    3    0    0 -0.70800557347E+02 -0.53311032851E+02 -0.47030924760E+02  0.10033291099E+03  0.00000000000E+00 0.  1.
<mgrwt>
<rscale>  0 0.14510915E+03</rscale>
<asrwt>0</asrwt>
<pdfrwt beam="1">  1        1 0.15469088E-01 0.15039180E+03</pdfrwt>
<pdfrwt beam="2">  1       -1 0.31118325E-01 0.15039180E+03</pdfrwt>
<totfact> 0.33231346E+03</totfact>
</mgrwt>
</event>
<event>
 7    1  0.1330601E-005  0.1567375E+03  0.7546771E-02  0.1200828E+00
          1   -1    0    0  501    0  0.00000000000E+00  0.00000000000E+00  0.96285401641E+01  0.96285401641E+01  0.00000000000E+00 0. -1.
         -1   -1    0    0    0  501 -0.00000000000E+00 -0.00000000000E+00 -0.26067785167E+04  0.26067785167E+04  0.00000000000E+00 0.  1.
         23    2    1    2    0    0 -0.79839610977E+02 -0.50670270148E+02 -0.65033528642E+03  0.66329310845E+03  0.89888392992E+02 0.  0.
          5    1    1    2  502    0  0.99145073836E+02  0.73766097532E+02 -0.16851508403E+04  0.16896824043E+04  0.47000000000E+01 0.  1.
         -5    1    1    2    0  502 -0.19305462858E+02 -0.23095827384E+02 -0.26166384982E+03  0.26343154413E+03  0.47000000000E+01 0.  1.
        -11    1    3    3    0    0 -0.79062897142E+01  0.24529591424E+02 -0.10492695729E+03  0.10804571551E+03  0.00000000000E+00 0. -1.
         11    1    3    3    0    0 -0.71933321263E+02 -0.75199861572E+02 -0.54540832913E+03  0.55524739295E+03  0.00000000000E+00 0.  1.
<mgrwt>
<rscale>  0 0.14971156E+03</rscale>
<asrwt>0</asrwt>
<pdfrwt beam="1">  1        1 0.14813116E-02 0.15673754E+03</pdfrwt>
<pdfrwt beam="2">  1       -1 0.40104348E+00 0.15673754E+03</pdfrwt>
<totfact> 0.81525115E+01</totfact>
</mgrwt>
</event>
<event>
 7    1  0.1330601E-005  0.2493200E+03  0.7546771E-02  0.1116237E+00
          2   -1    0    0  501    0  0.00000000000E+00  0.00000000000E+00  0.35995395565E+03  0.35995395565E+03  0.00000000000E+00 0. -1.
         -2   -1    0    0    0  501 -0.00000000000E+00 -0.00000000000E+00 -0.16841077239E+03  0.16841077239E+03  0.00000000000E+00 0.  1.
         23    2    1    2    0    0 -0.10133404413E+03  0.19043982397E+03  0.42498934535E+02  0.23789156429E+03  0.90831282447E+02 0.  0.
          5    1    1    2  502    0 -0.19095356322E+02  0.39332310266E+01  0.17620380212E+02  0.26695893658E+02  0.47000000000E+01 0. -1.
         -5    1    1    2    0  502  0.12042940045E+03 -0.19437305500E+03  0.13142386852E+03  0.26377727009E+03  0.47000000000E+01 0. -1.
        -11    1    3    3    0    0 -0.37290428902E+02  0.15652053101E+03  0.20792615480E+02  0.16223928493E+03  0.00000000000E+00 0. -1.
         11    1    3    3    0    0 -0.64043615225E+02  0.33919292962E+02  0.21706319055E+02  0.75652279364E+02  0.00000000000E+00 0.  1.
<mgrwt>
<rscale>  0 0.24541539E+03</rscale>
<asrwt>0</asrwt>
<pdfrwt beam="1">  1        2 0.55377532E-01 0.24932002E+03</pdfrwt>
<pdfrwt beam="2">  1       -2 0.25909350E-01 0.24932002E+03</pdfrwt>
<totfact> 0.11945148E+03</totfact>
</mgrwt>
</event>
<event>
 7    1  0.1330601E-005  0.1303178E+03  0.7546771E-02  0.1240679E+00
          2   -1    0    0  501    0  0.00000000000E+00  0.00000000000E+00  0.16954466068E+03  0.16954466068E+03  0.00000000000E+00 0. -1.
         -2   -1    0    0    0  501 -0.00000000000E+00 -0.00000000000E+00 -0.77747322694E+02  0.77747322694E+02  0.00000000000E+00 0.  1.
         23    2    1    2    0    0  0.12628516585E+01 -0.36815628957E+02  0.50433015849E+02  0.11056695949E+03  0.91239126006E+02 0.  0.
          5    1    1    2  502    0 -0.49331485706E+02 -0.16122500019E+02  0.38888273214E+02  0.65022444451E+02  0.47000000000E+01 0. -1.
         -5    1    1    2    0  502  0.48068634047E+02  0.52938128976E+02  0.24760489244E+01  0.71702579430E+02  0.47000000000E+01 0. -1.
        -11    1    3    3    0    0 -0.30155625108E+02 -0.24864329988E+02  0.63448366337E+02  0.74520412118E+02  0.00000000000E+00 0. -1.
         11    1    3    3    0    0  0.31418476767E+02 -0.11951298969E+02 -0.13015350488E+02  0.36046547376E+02  0.00000000000E+00 0.  1.
<mgrwt>
<rscale>  0 0.12147753E+03</rscale>
<asrwt>0</asrwt>
<pdfrwt beam="1">  1        2 0.26083794E-01 0.13031778E+03</pdfrwt>
<pdfrwt beam="2">  1       -2 0.11961127E-01 0.13031778E+03</pdfrwt>
<totfact> 0.95775397E+03</totfact>
</mgrwt>
</event>
<event>
 7    1  0.1330601E-005  0.1663085E+03  0.7546771E-02  0.1188767E+00
          1   -1    0    0  501    0  0.00000000000E+00  0.00000000000E+00  0.27614536281E+02  0.27614536281E+02  0.00000000000E+00 0. -1.
         -1   -1    0    0    0  501 -0.00000000000E+00 -0.00000000000E+00 -0.86324080357E+03  0.86324080357E+03  0.00000000000E+00 0.  1.
         23    2    1    2    0    0  0.63848456962E+02  0.89198656184E+02 -0.36820403919E+03  0.39472828811E+03  0.90571415107E+02 0.  0.
          5    1    1    2  502    0 -0.92423248202E+02 -0.65071942084E+02 -0.23669614396E+03  0.26234246515E+03  0.47000000000E+01 0. -1.
         -5    1    1    2    0  502  0.28574791239E+02 -0.24126714101E+02 -0.23072608414E+03  0.23378458660E+03  0.47000000000E+01 0. -1.
        -11    1    3    3    0    0  0.84766333605E+02  0.53050642114E+02 -0.27416244947E+03  0.29183000299E+03  0.00000000000E+00 0.  1.
         11    1    3    3    0    0 -0.20917876642E+02  0.36148014070E+02 -0.94041589721E+02  0.10289828513E+03  0.00000000000E+00 0. -1.
<mgrwt>
<rscale>  0 0.15993810E+03</rscale>
<asrwt>0</asrwt>
<pdfrwt beam="1">  1        1 0.42483906E-02 0.16630848E+03</pdfrwt>
<pdfrwt beam="2">  1       -1 0.13280627E+00 0.16630848E+03</pdfrwt>
<totfact> 0.10656703E+03</totfact>
</mgrwt>
</event>
<event>
 7    1  0.1330601E-005  0.1438530E+03  0.7546771E-02  0.1218297E+00
          2   -1    0    0  501    0  0.00000000000E+00  0.00000000000E+00  0.47784892404E+03  0.47784892404E+03  0.00000000000E+00 0. -1.
         -2   -1    0    0    0  501 -0.00000000000E+00 -0.00000000000E+00 -0.35414751141E+02  0.35414751141E+02  0.00000000000E+00 0.  1.
         23    2    1    2    0    0  0.53517755390E+02 -0.46946989565E+02  0.18927381138E+03  0.22208702010E+03  0.91814480612E+02 0.  0.
          5    1    1    2  502    0 -0.81588260567E+02  0.34126529711E+02  0.24254085315E+03  0.25820422100E+03  0.47000000000E+01 0.  1.
         -5    1    1    2    0  502  0.28070505178E+02  0.12820459854E+02  0.10619508368E+02  0.32972434089E+02  0.47000000000E+01 0.  1.
        -11    1    3    3    0    0  0.19147624266E+02  0.27878029062E+02  0.56970701683E+02  0.66253127245E+02  0.00000000000E+00 0.  1.
         11    1    3    3    0    0  0.34370131124E+02 -0.74825018627E+02  0.13230310970E+03  0.15583389285E+03  0.00000000000E+00 0. -1.
<mgrwt>
<rscale>  0 0.13637133E+03</rscale>
<asrwt>0</asrwt>
<pdfrwt beam="1">  1        2 0.73515215E-01 0.14385297E+03</pdfrwt>
<pdfrwt beam="2">  1       -2 0.54484236E-02 0.14385297E+03</pdfrwt>
<totfact> 0.10734114E+04</totfact>
</mgrwt>
</event>
<event>
 7    1  0.1330601E-005  0.1352187E+03  0.7546771E-02  0.1231132E+00
          1   -1    0    0  501    0  0.00000000000E+00  0.00000000000E+00  0.44358963671E+02  0.44358963671E+02  0.00000000000E+00 0. -1.
         -1   -1    0    0    0  501 -0.00000000000E+00 -0.00000000000E+00 -0.34723902445E+03  0.34723902445E+03  0.00000000000E+00 0.  1.
         23    2    1    2    0    0 -0.33477161461E+02  0.39235946902E+02 -0.92396790843E+02  0.14142343129E+03  0.93825583351E+02 0.  0.
          5    1    1    2  502    0  0.68995429272E+01 -0.31345377290E+02 -0.21853137025E+03  0.22092574806E+03  0.47000000000E+01 0. -1.
         -5    1    1    2    0  502  0.26577618533E+02 -0.78905696118E+01  0.80481003205E+01  0.29248808770E+02  0.47000000000E+01 0. -1.
        -11    1    3    3    0    0 -0.49086627428E+02  0.44281015519E+02 -0.10263735579E+03  0.12208493818E+03  0.00000000000E+00 0.  1.
         11    1    3    3    0    0  0.15609465967E+02 -0.50450686167E+01  0.10240564949E+02  0.19338493106E+02  0.00000000000E+00 0. -1.
<mgrwt>
<rscale>  0 0.12755336E+03</rscale>
<asrwt>0</asrwt>
<pdfrwt beam="1">  1        1 0.68244559E-02 0.13521872E+03</pdfrwt>
<pdfrwt beam="2">  1       -1 0.53421389E-01 0.13521872E+03</pdfrwt>
<totfact> 0.37653782E+03</totfact>
</mgrwt>
</event>
<event>
 7    1  0.1330601E-005  0.2382140E+03  0.7546771E-02  0.1123770E+00
         -1   -1    0    0    0  501 -0.00000000000E+00  0.00000000000E+00  0.40211357960E+03  0.40211357960E+03  0.00000000000E+00 0.  1.
          1   -1    0    0  501    0  0.00000000000E+00 -0.00000000000E+00 -0.13853053765E+03  0.13853053765E+03  0.00000000000E+00 0. -1.
         23    2    1    2    0    0 -0.11831327073E+03 -0.16468287529E+03  0.68040661153E+02  0.23245144259E+03  0.91025612590E+02 0.  0.
          5    1    1    2  502    0  0.36749629917E+02  0.13983590962E+03  0.15999170989E+03  0.21569435355E+03  0.47000000000E+01 0. -1.
         -5    1    1    2    0  502  0.81563640816E+02  0.24846965670E+02  0.35550670905E+02  0.92498321109E+02  0.47000000000E+01 0. -1.
        -11    1    3    3    0    0 -0.31222165197E+02 -0.11412570612E+03  0.56414708501E+02  0.13108058488E+03  0.00000000000E+00 0. -1.
         11    1    3    3    0    0 -0.87091105537E+02 -0.50557169167E+02  0.11625952652E+02  0.10137085771E+03  0.00000000000E+00 0.  1.
<mgrwt>
<rscale>  0 0.23412396E+03</rscale>
<asrwt>0</asrwt>
<pdfrwt beam="2">  1        1 0.21312391E-01 0.23821398E+03</pdfrwt>
<pdfrwt beam="1">  1       -1 0.61863627E-01 0.23821398E+03</pdfrwt>
<totfact> 0.64494026E+02</totfact>
</mgrwt>
</event>
<event>
 7    1  0.1330601E-005  0.1563734E+03  0.7546771E-02  0.1201102E+00
          2   -1    0    0  501    0  0.00000000000E+00  0.00000000000E+00  0.10777471477E+04  0.10777471477E+04  0.00000000000E+00 0.  1.
         -2   -1    0    0    0  501 -0.00000000000E+00 -0.00000000000E+00 -0.19199989944E+02  0.19199989944E+02  0.00000000000E+00 0. -1.
         23    2    1    2    0    0 -0.93407871252E+02  0.10078823605E+02  0.52071529269E+03  0.53684378661E+03  0.90720571444E+02 0.  0.
          5    1    1    2  502    0  0.12260392813E+03 -0.13918084584E+02  0.47105674036E+03  0.48697225682E+03  0.47000000000E+01 0.  1.
         -5    1    1    2    0  502 -0.29196056876E+02  0.38392609789E+01  0.66775124704E+02  0.73131094215E+02  0.47000000000E+01 0.  1.
        -11    1    3    3    0    0 -0.11115271879E+03  0.15044065626E+02  0.44499636108E+03  0.45891503808E+03  0.00000000000E+00 0.  1.
         11    1    3    3    0    0  0.17744847541E+02 -0.49652420208E+01  0.75718931616E+02  0.77928748531E+02  0.00000000000E+00 0. -1.
<mgrwt>
<rscale>  0 0.14948910E+03</rscale>
<asrwt>0</asrwt>
<pdfrwt beam="1">  1        2 0.16580721E+00 0.15637343E+03</pdfrwt>
<pdfrwt beam="2">  1       -2 0.29538454E-02 0.15637343E+03</pdfrwt>
<totfact> 0.99383651E+03</totfact>
</mgrwt>
</event>
<event>
 7    1  0.1330601E-005  0.2114272E+03  0.7546771E-02  0.1144469E+00
         -2   -1    0    0    0  501 -0.00000000000E+00  0.00000000000E+00  0.59896112674E+02  0.59896112674E+02  0.00000000000E+00 0.  1.
          2   -1    0    0  501    0  0.00000000000E+00 -0.00000000000E+00 -0.67919338121E+03  0.67919338121E+03  0.00000000000E+00 0. -1.
         23    2    1    2    0    0 -0.13139988895E+02  0.17001476978E+03 -0.29011209480E+03  0.34785508796E+03  0.88093435729E+02 0.  0.
          5    1    1    2  502    0 -0.34019546663E+02 -0.11238100554E+03 -0.11498415979E+03  0.16440884090E+03  0.47000000000E+01 0. -1.
         -5    1    1    2    0  502  0.47159535558E+02 -0.57633764238E+02 -0.21420101395E+03  0.22682556503E+03  0.47000000000E+01 0. -1.
        -11    1    3    3    0    0 -0.39747148580E+02  0.12735895503E+03 -0.15975103902E+03  0.20813585398E+03  0.00000000000E+00 0.  1.
         11    1    3    3    0    0  0.26607159685E+02  0.42655814755E+02 -0.13036105578E+03  0.13971923397E+03  0.00000000000E+00 0. -1.
<mgrwt>
<rscale>  0 0.20637540E+03</rscale>
<asrwt>0</asrwt>
<pdfrwt beam="2">  1        2 0.10449128E+00 0.21142725E+03</pdfrwt>
<pdfrwt beam="1">  1       -2 0.92147872E-02 0.21142725E+03</pdfrwt>
<totfact> 0.32591888E+03</totfact>
</mgrwt>
</event>
<event>
 7    1  0.1330601E-005  0.1836114E+03  0.7546771E-02  0.1169606E+00
         -2   -1    0    0    0  501 -0.00000000000E+00  0.00000000000E+00  0.15248060532E+03  0.15248060532E+03  0.00000000000E+00 0.  1.
          2   -1    0    0  501    0  0.00000000000E+00 -0.00000000000E+00 -0.21364350781E+03  0.21364350781E+03  0.00000000000E+00 0. -1.
         23    2    1    2    0    0 -0.13407900319E+03 -0.10791879677E+02 -0.80416120856E+02  0.18150603355E+03  0.91564425169E+02 0.  0.
          5    1    1    2  502    0  0.10333903549E+03  0.64219092351E+02  0.11075347726E+02  0.12226120155E+03  0.47000000000E+01 0.  1.
         -5    1    1    2    0  502  0.30739967702E+02 -0.53427212674E+02  0.81778706421E+01  0.62356878023E+02  0.47000000000E+01 0.  1.
        -11    1    3    3    0    0 -0.38302271686E+02 -0.46710315187E+02 -0.31335528173E+02  0.68050223270E+02  0.00000000000E+00 0.  1.
         11    1    3    3    0    0 -0.95776731506E+02  0.35918435511E+02 -0.49080592683E+02  0.11345581028E+03  0.00000000000E+00 0. -1.
<mgrwt>
<rscale>  0 0.17814956E+03</rscale>
<asrwt>0</asrwt>
<pdfrwt beam="2">  1        2 0.32868232E-01 0.18361141E+03</pdfrwt>
<pdfrwt beam="1">  1       -2 0.23458555E-01 0.18361141E+03</pdfrwt>
<totfact> 0.24782519E+03</totfact>
</mgrwt>
</event>
<event>
 6    1  0.1330601E-005  0.2085758E+03  0.7546771E-02  0.1149887E+00
          2   -1    0    0  501    0  0.00000000000E+00  0.00000000000E+00  0.24607661120E+03  0.24607661120E+03  0.00000000000E+00 0. -1.
         -2   -1    0    0    0  501 -0.00000000000E+00 -0.00000000000E+00 -0.15056522578E+03  0.15056522578E+03  0.00000000000E+00 0.  1.
          5    1    1    2  502    0  0.12948625589E+02  0.16096016358E+03  0.82455867501E+01  0.16175883551E+03  0.47000000000E+01 0. -1.
         -5    1    1    2    0  502  0.37388636775E+01  0.84960921259E+01  0.55317286358E+02  0.56287253024E+02  0.47000000000E+01 0.  1.
        -11    1    1    2    0    0 -0.18832206941E+02 -0.43006179243E+02  0.21675780262E+02  0.51710955526E+02  0.00000000000E+00 0. -1.
         11    1    1    2    0    0  0.21447176752E+01 -0.12645007646E+03  0.10272732048E+02  0.12688479292E+03  0.00000000000E+00 0.  1.
<mgrwt>
<rscale>  0 0.19982512E+03</rscale>
<asrwt>0</asrwt>
<pdfrwt beam="1">  1        2 0.37857940E-01 0.20857578E+03</pdfrwt>
<pdfrwt beam="2">  1       -2 0.23163881E-01 0.20857578E+03</pdfrwt>
<totfact> 0.21838153E+03</totfact>
</mgrwt>
</event>
<event>
 7    1  0.1330601E-005  0.1608637E+03  0.7546771E-02  0.1195243E+00
          2   -1    0    0  501    0  0.00000000000E+00  0.00000000000E+00  0.17886036440E+03  0.17886036440E+03  0.00000000000E+00 0.  1.
         -2   -1    0    0    0  501 -0.00000000000E+00 -0.00000000000E+00 -0.13751906429E+03  0.13751906429E+03  0.00000000000E+00 0. -1.
         23    2    1    2    0    0 -0.88227394870E+02 -0.49677574200E+02  0.69614653882E+02  0.15305001116E+03  0.91247856390E+02 0.  0.
          5    1    1    2  502    0  0.20339300176E+02 -0.28366859496E+02  0.28440084703E+02  0.45269131505E+02  0.47000000000E+01 0.  1.
         -5    1    1    2    0  502  0.67888094694E+02  0.78044433696E+02 -0.56713438476E+02  0.11806028602E+03  0.47000000000E+01 0.  1.
        -11    1    3    3    0    0 -0.47227185245E+02 -0.55864114595E+01  0.78905836998E+02  0.92128964671E+02  0.00000000000E+00 0.  1.
         11    1    3    3    0    0 -0.41000209625E+02 -0.44091162740E+02 -0.92911831154E+01  0.60921046485E+02  0.00000000000E+00 0. -1.
<mgrwt>
<rscale>  0 0.15433649E+03</rscale>
<asrwt>0</asrwt>
<pdfrwt beam="1">  1        2 0.27516979E-01 0.16086366E+03</pdfrwt>
<pdfrwt beam="2">  1       -2 0.21156779E-01 0.16086366E+03</pdfrwt>
<totfact> 0.35744854E+03</totfact>
</mgrwt>
</event>
<event>
 7    1  0.1330601E-005  0.1985698E+03  0.7546771E-02  0.1155224E+00
          1   -1    0    0  501    0  0.00000000000E+00  0.00000000000E+00  0.50647765175E+03  0.50647765175E+03  0.00000000000E+00 0. -1.
         -1   -1    0    0    0  501 -0.00000000000E+00 -0.00000000000E+00 -0.72764573867E+02  0.72764573867E+02  0.00000000000E+00 0.  1.
         23    2    1    2    0    0 -0.36548283079E+02 -0.14990063768E+03  0.25647883093E+03  0.31308070419E+03  0.91826785022E+02 0.  0.
          5    1    1    2  502    0 -0.25941863305E+02  0.12133450416E+03  0.82642001383E+02  0.14915372125E+03  0.47000000000E+01 0. -1.
         -5    1    1    2    0  502  0.62490146384E+02  0.28566133522E+02  0.94592245569E+02  0.11700780017E+03  0.47000000000E+01 0. -1.
        -11    1    3    3    0    0 -0.15560865947E+02 -0.88499479690E+01 -0.18585889175E+01  0.17997679874E+02  0.00000000000E+00 0.  1.
         11    1    3    3    0    0 -0.20987417132E+02 -0.14105068971E+03  0.25833741985E+03  0.29508302432E+03  0.00000000000E+00 0. -1.
<mgrwt>
<rscale>  0 0.19363381E+03</rscale>
<asrwt>0</asrwt>
<pdfrwt beam="1">  1        1 0.77919636E-01 0.19856983E+03</pdfrwt>
<pdfrwt beam="2">  1       -1 0.11194550E-01 0.19856983E+03</pdfrwt>
<totfact> 0.22466993E+03</totfact>
</mgrwt>
</event>
<event>
 7    1  0.1330601E-005  0.1558160E+03  0.7546771E-02  0.1201757E+00
          2   -1    0    0  501    0  0.00000000000E+00  0.00000000000E+00  0.57378660855E+03  0.57378660855E+03  0.00000000000E+00 0. -1.
         -2   -1    0    0    0  501 -0.00000000000E+00 -0.00000000000E+00 -0.35633722206E+02  0.35633722206E+02  0.00000000000E+00 0.  1.
         23    2    1    2    0    0 -0.90530202424E+02  0.21421276545E+02  0.24803930783E+03  0.28011119127E+03  0.91017540096E+02 0.  0.
          5    1    1    2  502    0  0.54826377635E+01  0.42289438837E+02  0.45325740678E+02  0.62409684522E+02  0.47000000000E+01 0.  1.
         -5    1    1    2    0  502  0.85047564661E+02 -0.63710715382E+02  0.24478783783E+03  0.26689945496E+03  0.47000000000E+01 0.  1.
        -11    1    3    3    0    0 -0.13178635541E+02  0.43912489589E+01 -0.51557844103E+01  0.14816936763E+02  0.00000000000E+00 0.  1.
         11    1    3    3    0    0 -0.77351566883E+02  0.17030027586E+02  0.25319509225E+03  0.26529425451E+03  0.00000000000E+00 0. -1.
<mgrwt>
<rscale>  0 0.14895987E+03</rscale>
<asrwt>0</asrwt>
<pdfrwt beam="1">  1        2 0.88274856E-01 0.15581598E+03</pdfrwt>
<pdfrwt beam="2">  1       -2 0.54821115E-02 0.15581598E+03</pdfrwt>
<totfact> 0.87233192E+03</totfact>
</mgrwt>
</event>
<event>
 7    1  0.1330601E-005  0.2110576E+03  0.7546771E-02  0.1144563E+00
          2   -1    0    0  501    0  0.00000000000E+00  0.00000000000E+00  0.61053161116E+03  0.61053161116E+03  0.00000000000E+00 0. -1.
         -2   -1    0    0    0  501 -0.00000000000E+00 -0.00000000000E+00 -0.67179142725E+02  0.67179142725E+02  0.00000000000E+00 0.  1.
         23    2    1    2    0    0 -0.16320653367E+03 -0.47786481420E+02  0.28814856581E+03  0.34653960287E+03  0.90222945722E+02 0.  0.
          5    1    1    2  502    0  0.14088913015E+03 -0.16774209061E+02  0.18383742597E+03  0.23227012350E+03  0.47000000000E+01 0. -1.
         -5    1    1    2    0  502  0.22317403524E+02  0.64560690481E+02  0.71366476660E+02  0.98901027529E+02  0.47000000000E+01 0. -1.
        -11    1    3    3    0    0 -0.12371425646E+03  0.20915701200E+01  0.22570653774E+03  0.25739664546E+03  0.00000000000E+00 0.  1.
         11    1    3    3    0    0 -0.39492277209E+02 -0.49878051540E+02  0.62442028078E+02  0.89142957406E+02  0.00000000000E+00 0. -1.
<mgrwt>
<rscale>  0 0.20625953E+03</rscale>
<asrwt>0</asrwt>
<pdfrwt beam="1">  1        2 0.93927936E-01 0.21105757E+03</pdfrwt>
<pdfrwt beam="2">  1       -2 0.10335253E-01 0.21105757E+03</pdfrwt>
<totfact> 0.30810658E+03</totfact>
</mgrwt>
</event>
<event>
 7    1  0.1330601E-005  0.1689672E+03  0.7546771E-02  0.1183923E+00
          4   -1    0    0  501    0  0.00000000000E+00  0.00000000000E+00  0.83307005830E+02  0.83307005830E+02  0.00000000000E+00 0. -1.
         -4   -1    0    0    0  501 -0.00000000000E+00 -0.00000000000E+00 -0.30866880268E+03  0.30866880268E+03  0.00000000000E+00 0.  1.
         23    2    1    2    0    0 -0.10895985606E+03  0.32478474522E+02 -0.93695494803E+02  0.17776582175E+03  0.99472308188E+02 0.  0.
          5    1    1    2  502    0  0.41270252199E+02 -0.32830449505E+02  0.12915773875E+02  0.54497516880E+02  0.47000000000E+01 0. -1.
         -5    1    1    2    0  502  0.67689603863E+02  0.35197498310E+00 -0.14458207592E+03  0.15971246988E+03  0.47000000000E+01 0. -1.
        -11    1    3    3    0    0 -0.82627125723E+02  0.66041979196E+02 -0.51073120132E+02  0.11746168959E+03  0.00000000000E+00 0.  1.
         11    1    3    3    0    0 -0.26332730339E+02 -0.33563504674E+02 -0.42622374671E+02  0.60304132161E+02  0.00000000000E+00 0. -1.
<mgrwt>
<rscale>  0 0.16430303E+03</rscale>
<asrwt>0</asrwt>
<pdfrwt beam="1">  1        4 0.12816463E-01 0.16896717E+03</pdfrwt>
<pdfrwt beam="2">  1       -4 0.47487508E-01 0.16896717E+03</pdfrwt>
<totfact> 0.36975099E+02</totfact>
</mgrwt>
</event>
<event>
 7    1  0.1330601E-005  0.2270061E+03  0.7546771E-02  0.1128765E+00
         -4   -1    0    0    0  501 -0.00000000000E+00  0.00000000000E+00  0.41767801584E+02  0.41767801584E+02  0.00000000000E+00 0.  1.
          4   -1    0    0  501    0  0.00000000000E+00 -0.00000000000E+00 -0.30844201439E+03  0.30844201439E+03  0.00000000000E+00 0. -1.
         23    2    1    2    0    0  0.24530969878E+02 -0.10662557692E+02 -0.13088435757E+03  0.16370804100E+03  0.94626365305E+02 0.  0.
          5    1    1    2  502    0 -0.73970648748E+02 -0.70852586622E+01 -0.70133895127E+02  0.10228739420E+03  0.47000000000E+01 0. -1.
         -5    1    1    2    0  502  0.49439678870E+02  0.17747816354E+02 -0.65655960107E+02  0.84214380777E+02  0.47000000000E+01 0. -1.
        -11    1    3    3    0    0  0.45338127519E+02  0.96756727106E+01 -0.22584303006E+02  0.51567578880E+02  0.00000000000E+00 0.  1.
         11    1    3    3    0    0 -0.20807157641E+02 -0.20338230403E+02 -0.10830005457E+03  0.11214046212E+03  0.00000000000E+00 0. -1.
<mgrwt>
<rscale>  0 0.22700612E+03</rscale>
<asrwt>0</asrwt>
<pdfrwt beam="2">  1        4 0.47452616E-01 0.22700612E+03</pdfrwt>
<pdfrwt beam="1">  1       -4 0.64258159E-02 0.22700612E+03</pdfrwt>
<totfact> 0.12486959E+03</totfact>
</mgrwt>
</event>
<event>
 6    1  0.1330601E-005  0.1182819E+03  0.7546771E-02  0.1296336E+00
         -4   -1    0    0    0  501 -0.00000000000E+00  0.00000000000E+00  0.21846960572E+03  0.21846960572E+03  0.00000000000E+00 0.  1.
          4   -1    0    0  501    0  0.00000000000E+00 -0.00000000000E+00 -0.39214318028E+02  0.39214318028E+02  0.00000000000E+00 0. -1.
          5    1    1    2  502    0  0.46965626284E+02 -0.32349903589E+02  0.38427702229E+02  0.68927966843E+02  0.47000000000E+01 0. -1.
         -5    1    1    2    0  502 -0.23151009528E+02  0.31007339586E+02  0.13861318896E+03  0.14399003613E+03  0.47000000000E+01 0.  1.
        -11    1    1    2    0    0 -0.18776556874E+02 -0.13760849120E+02 -0.93510925337E+01  0.25087108006E+02  0.00000000000E+00 0.  1.
         11    1    1    2    0    0 -0.50380598825E+01  0.15103413123E+02  0.11565489031E+02  0.19678812765E+02  0.00000000000E+00 0. -1.
<mgrwt>
<rscale>  0 0.92745425E+02</rscale>
<asrwt>0</asrwt>
<pdfrwt beam="2">  1        4 0.60329721E-02 0.11828186E+03</pdfrwt>
<pdfrwt beam="1">  1       -4 0.33610708E-01 0.11828186E+03</pdfrwt>
<totfact> 0.23913927E+03</totfact>
</mgrwt>
</event>
<event>
 7    1  0.1330601E-005  0.1254761E+03  0.7546771E-02  0.1250972E+00
          2   -1    0    0  501    0  0.00000000000E+00  0.00000000000E+00  0.61054329945E+02  0.61054329945E+02  0.00000000000E+00 0. -1.
         -2   -1    0    0    0  501 -0.00000000000E+00 -0.00000000000E+00 -0.19644007386E+03  0.19644007386E+03  0.00000000000E+00 0.  1.
         23    2    1    2    0    0  0.10799899054E+02  0.16436973433E+01 -0.32828806885E+02  0.95438317195E+02  0.88946063809E+02 0.  0.
          5    1    1    2  502    0 -0.43801149413E+02  0.19737160376E+02  0.39417358373E+01  0.48432669460E+02  0.47000000000E+01 0.  1.
         -5    1    1    2    0  502  0.33001250359E+02 -0.21380857719E+02 -0.10649867287E+03  0.11362341715E+03  0.47000000000E+01 0.  1.
        -11    1    3    3    0    0 -0.18316654581E+02  0.15893098347E+01 -0.55544926608E+02  0.58508671260E+02  0.00000000000E+00 0.  1.
         11    1    3    3    0    0  0.29116553636E+02  0.54387508668E-01  0.22716119723E+02  0.36929645935E+02  0.00000000000E+00 0. -1.
<mgrwt>
<rscale>  0 0.11534936E+03</rscale>
<asrwt>0</asrwt>
<pdfrwt beam="1">  1        2 0.93929739E-02 0.12547609E+03</pdfrwt>
<pdfrwt beam="2">  1       -2 0.30221550E-01 0.12547609E+03</pdfrwt>
<totfact> 0.65747997E+03</totfact>
</mgrwt>
</event>
<event>
 7    1  0.1330601E-005  0.1308129E+03  0.7546771E-02  0.1239633E+00
          2   -1    0    0  501    0  0.00000000000E+00  0.00000000000E+00  0.50028069762E+02  0.50028069762E+02  0.00000000000E+00 0. -1.
         -2   -1    0    0    0  501 -0.00000000000E+00 -0.00000000000E+00 -0.28329185784E+03  0.28329185784E+03  0.00000000000E+00 0.  1.
         23    2    1    2    0    0 -0.11401765724E+02 -0.36928205724E+02 -0.59503547641E+02  0.11582363332E+03  0.91546432011E+02 0.  0.
          5    1    1    2  502    0 -0.34330037943E+02  0.40394329321E+02 -0.19803598661E+02  0.56784908791E+02  0.47000000000E+01 0.  1.
         -5    1    1    2    0  502  0.45731803668E+02 -0.34661235971E+01 -0.15395664178E+03  0.16071138549E+03  0.47000000000E+01 0.  1.
        -11    1    3    3    0    0  0.32438708844E+02  0.22540423464E+01 -0.44547970491E+02  0.55153170473E+02  0.00000000000E+00 0.  1.
         11    1    3    3    0    0 -0.43840474568E+02 -0.39182248070E+02 -0.14955577149E+02  0.60670462847E+02  0.00000000000E+00 0. -1.
<mgrwt>
<rscale>  0 0.12212428E+03</rscale>
<asrwt>0</asrwt>
<pdfrwt beam="1">  1        2 0.76966262E-02 0.13081291E+03</pdfrwt>
<pdfrwt beam="2">  1       -2 0.43583362E-01 0.13081291E+03</pdfrwt>
<totfact> 0.42820873E+03</totfact>
</mgrwt>
</event>
<event>
 7    1  0.1330601E-005  0.1310821E+03  0.7546771E-02  0.1236931E+00
          1   -1    0    0  501    0  0.00000000000E+00  0.00000000000E+00  0.95381889547E+01  0.95381889547E+01  0.00000000000E+00 0. -1.
         -1   -1    0    0    0  501 -0.00000000000E+00 -0.00000000000E+00 -0.16890043167E+04  0.16890043167E+04  0.00000000000E+00 0.  1.
         23    2    1    2    0    0 -0.17658331588E+00  0.49875248889E+02 -0.44184836572E+03  0.45400233645E+03  0.91654632054E+02 0.  0.
          5    1    1    2  502    0 -0.43242357862E+02 -0.70453200343E+02 -0.78723578812E+03  0.79157806378E+03  0.47000000000E+01 0. -1.
         -5    1    1    2    0  502  0.43418941178E+02  0.20577951454E+02 -0.45038197386E+03  0.45296210539E+03  0.47000000000E+01 0.  1.
        -11    1    3    3    0    0 -0.27204542266E+02 -0.15949831589E+02 -0.10113381319E+03  0.10593645462E+03  0.00000000000E+00 0. -1.
         11    1    3    3    0    0  0.27027958950E+02  0.65825080477E+02 -0.34071455253E+03  0.34806588183E+03  0.00000000000E+00 0.  1.
<mgrwt>
<rscale>  0 0.12381598E+03</rscale>
<asrwt>0</asrwt>
<pdfrwt beam="1">  1        1 0.14674151E-02 0.13108207E+03</pdfrwt>
<pdfrwt beam="2">  1       -1 0.25984657E+00 0.13108207E+03</pdfrwt>
<totfact> 0.63834522E+02</totfact>
</mgrwt>
</event>
<event>
 7    1  0.1330601E-005  0.1329214E+03  0.7546771E-02  0.1238814E+00
         -3   -1    0    0    0  501 -0.00000000000E+00  0.00000000000E+00  0.18318148658E+03  0.18318148658E+03  0.00000000000E+00 0. -1.
          3   -1    0    0  501    0  0.00000000000E+00 -0.00000000000E+00 -0.89746241286E+02  0.89746241286E+02  0.00000000000E+00 0.  1.
         23    2    1    2    0    0 -0.34537724304E+02 -0.29185558028E+02 -0.19789391410E+02  0.98319851233E+02  0.85032475777E+02 0.  0.
          5    1    1    2  502    0  0.35982746901E+01 -0.47078029774E+02  0.24147640491E+02  0.53239900539E+02  0.47000000000E+01 0. -1.
         -5    1    1    2    0  502  0.30939449614E+02  0.76263587802E+02  0.89076996217E+02  0.12136797610E+03  0.47000000000E+01 0. -1.
        -11    1    3    3    0    0  0.16907802596E+02 -0.36609128239E+02 -0.22672285276E+02  0.46261588588E+02  0.00000000000E+00 0.  1.
         11    1    3    3    0    0 -0.51445526899E+02  0.74235702109E+01  0.28828938666E+01  0.52058262646E+02  0.00000000000E+00 0. -1.
<mgrwt>
<rscale>  0 0.12263414E+03</rscale>
<asrwt>0</asrwt>
<pdfrwt beam="2">  1        3 0.13807114E-01 0.13292138E+03</pdfrwt>
<pdfrwt beam="1">  1       -3 0.28181767E-01 0.13292138E+03</pdfrwt>
<totfact> 0.11843378E+03</totfact>
</mgrwt>
</event>
<event>
 7    1  0.1330601E-005  0.2906597E+03  0.7546771E-02  0.1091776E+00
          1   -1    0    0  501    0  0.00000000000E+00  0.00000000000E+00  0.71587978615E+03  0.71587978615E+03  0.00000000000E+00 0. -1.
         -1   -1    0    0    0  501 -0.00000000000E+00 -0.00000000000E+00 -0.12017310372E+03  0.12017310372E+03  0.00000000000E+00 0.  1.
         23    2    1    2    0    0  0.17926729014E+03 -0.19162931752E+03  0.39564469264E+03  0.48319618154E+03  0.89918131605E+02 0.  0.
          5    1    1    2  502    0  0.66386812179E+01 -0.79965127794E+01  0.28182737168E+02  0.30403502746E+02  0.47000000000E+01 0.  1.
         -5    1    1    2    0  502 -0.18590597136E+03  0.19962583030E+03  0.17187925262E+03  0.32245320558E+03  0.47000000000E+01 0.  1.
        -11    1    3    3    0    0  0.14747361980E+03 -0.13805223086E+03  0.35609427556E+03  0.40940202744E+03  0.00000000000E+00 0. -1.
         11    1    3    3    0    0  0.31793670342E+02 -0.53577086654E+02  0.39550417080E+02  0.73794154100E+02  0.00000000000E+00 0.  1.
<mgrwt>
<rscale>  0 0.28728327E+03</rscale>
<asrwt>0</asrwt>
<pdfrwt beam="1">  1        1 0.11013535E+00 0.29065969E+03</pdfrwt>
<pdfrwt beam="2">  1       -1 0.18488170E-01 0.29065969E+03</pdfrwt>
<totfact> 0.62733370E+02</totfact>
</mgrwt>
</event>
<event>
 7    1  0.1330601E-005  0.1349591E+03  0.7546771E-02  0.1232354E+00
          3   -1    0    0  501    0  0.00000000000E+00  0.00000000000E+00  0.56679518589E+02  0.56679518589E+02  0.00000000000E+00 0. -1.
         -3   -1    0    0    0  501 -0.00000000000E+00 -0.00000000000E+00 -0.25813522659E+03  0.25813522659E+03  0.00000000000E+00 0.  1.
         23    2    1    2    0    0 -0.37094290376E+02 -0.34820084087E+02 -0.68580955761E+02  0.12542187049E+03  0.91863341272E+02 0.  0.
          5    1    1    2  502    0  0.26891642837E+02  0.79525457208E+02 -0.10845205105E+03  0.13722753432E+03  0.47000000000E+01 0. -1.
         -5    1    1    2    0  502  0.10202647538E+02 -0.44705373121E+02 -0.24422701192E+02  0.52165340373E+02  0.47000000000E+01 0. -1.
        -11    1    3    3    0    0 -0.18226230428E+02  0.31267912769E+02 -0.21206209969E+02  0.41947362084E+02  0.00000000000E+00 0. -1.
         11    1    3    3    0    0 -0.18868059948E+02 -0.66087996856E+02 -0.47374745792E+02  0.83474508405E+02  0.00000000000E+00 0.  1.
<mgrwt>
<rscale>  0 0.12675360E+03</rscale>
<asrwt>0</asrwt>
<pdfrwt beam="1">  1        3 0.87199260E-02 0.13495911E+03</pdfrwt>
<pdfrwt beam="2">  1       -3 0.39713112E-01 0.13495911E+03</pdfrwt>
<totfact> 0.13401969E+03</totfact>
</mgrwt>
</event>
<event>
 7    1  0.1330601E-005  0.2173670E+03  0.7546771E-02  0.1139539E+00
         -2   -1    0    0    0  501 -0.00000000000E+00  0.00000000000E+00  0.13320427781E+03  0.13320427781E+03  0.00000000000E+00 0.  1.
          2   -1    0    0  501    0  0.00000000000E+00 -0.00000000000E+00 -0.33537194768E+03  0.33537194768E+03  0.00000000000E+00 0. -1.
         23    2    1    2    0    0  0.56364389686E+02  0.16865866015E+03 -0.13764328737E+03  0.24183453287E+03  0.88969537854E+02 0.  0.
          5    1    1    2  502    0 -0.67599740760E+02 -0.29389387941E+02 -0.27828450306E+01  0.73914107590E+02  0.47000000000E+01 0. -1.
         -5    1    1    2    0  502  0.11235351074E+02 -0.13926927221E+03 -0.61741537480E+02  0.15282758503E+03  0.47000000000E+01 0. -1.
        -11    1    3    3    0    0  0.35188809373E+02  0.71469172174E+02 -0.10419037455E+02  0.80340844020E+02  0.00000000000E+00 0.  1.
         11    1    3    3    0    0  0.21175580313E+02  0.97189487973E+02 -0.12722424991E+03  0.16149368885E+03  0.00000000000E+00 0. -1.
<mgrwt>
<rscale>  0 0.21257998E+03</rscale>
<asrwt>0</asrwt>
<pdfrwt beam="2">  1        2 0.51595684E-01 0.21736697E+03</pdfrwt>
<pdfrwt beam="1">  1       -2 0.20492966E-01 0.21736697E+03</pdfrwt>
<totfact> 0.19365916E+03</totfact>
</mgrwt>
</event>
<event>
 7    1  0.1330601E-005  0.1381933E+03  0.7546771E-02  0.1228060E+00
         -4   -1    0    0    0  501 -0.00000000000E+00  0.00000000000E+00  0.25155144857E+03  0.25155144857E+03  0.00000000000E+00 0. -1.
          4   -1    0    0  501    0  0.00000000000E+00 -0.00000000000E+00 -0.72399459147E+02  0.72399459147E+02  0.00000000000E+00 0.  1.
         23    2    1    2    0    0  0.58124118016E+02 -0.96108286493E+01  0.12727147837E+02  0.10763026648E+03  0.89171255732E+02 0.  0.
          5    1    1    2  502    0 -0.62077066981E+02  0.45995218370E+02  0.16150485642E+03  0.17909503345E+03  0.47000000000E+01 0.  1.
         -5    1    1    2    0  502  0.39529489655E+01 -0.36384389720E+02  0.49199851623E+01  0.37225607783E+02  0.47000000000E+01 0.  1.
        -11    1    3    3    0    0 -0.50389813296E+01 -0.25855676772E+02 -0.21475888629E+02  0.33987073228E+02  0.00000000000E+00 0.  1.
         11    1    3    3    0    0  0.63163099346E+02  0.16244848123E+02  0.34203036465E+02  0.73643193256E+02  0.00000000000E+00 0. -1.
<mgrwt>
<rscale>  0 0.12959386E+03</rscale>
<asrwt>0</asrwt>
<pdfrwt beam="2">  1        4 0.11138378E-01 0.13819331E+03</pdfrwt>
<pdfrwt beam="1">  1       -4 0.38700222E-01 0.13819331E+03</pdfrwt>
<totfact> 0.68128129E+02</totfact>
</mgrwt>
</event>
<event>
 7    1  0.1330601E-005  0.1822146E+03  0.7546771E-02  0.1170798E+00
          2   -1    0    0  501    0  0.00000000000E+00  0.00000000000E+00  0.50709286764E+03  0.50709286764E+03  0.00000000000E+00 0. -1.
         -2   -1    0    0    0  501 -0.00000000000E+00 -0.00000000000E+00 -0.78109254047E+02  0.78109254047E+02  0.00000000000E+00 0.  1.
         23    2    1    2    0    0 -0.66396630911E+01 -0.13241834351E+03  0.35180200855E+03  0.38731541716E+03  0.93112170675E+02 0.  0.
          5    1    1    2  502    0  0.31942603157E+02 -0.83260663908E+00 -0.13136649497E+02  0.34866670192E+02  0.47000000000E+01 0.  1.
         -5    1    1    2    0  502 -0.25302940065E+02  0.13325095015E+03  0.90318254541E+02  0.16302003433E+03  0.47000000000E+01 0.  1.
        -11    1    3    3    0    0  0.36857650580E+02 -0.44852214633E+02  0.83036845792E+02  0.10131794176E+03  0.00000000000E+00 0. -1.
         11    1    3    3    0    0 -0.43497313671E+02 -0.87566128875E+02  0.26876516276E+03  0.28599747540E+03  0.00000000000E+00 0.  1.
<mgrwt>
<rscale>  0 0.17693980E+03</rscale>
<asrwt>0</asrwt>
<pdfrwt beam="1">  1        2 0.78014285E-01 0.18221456E+03</pdfrwt>
<pdfrwt beam="2">  1       -2 0.12016809E-01 0.18221456E+03</pdfrwt>
<totfact> 0.29755157E+03</totfact>
</mgrwt>
</event>
<event>
 7    1  0.1330601E-005  0.1403246E+03  0.7546771E-02  0.1231264E+00
          3   -1    0    0  501    0  0.00000000000E+00  0.00000000000E+00  0.12305428810E+03  0.12305428810E+03  0.00000000000E+00 0. -1.
         -3   -1    0    0    0  501 -0.00000000000E+00 -0.00000000000E+00 -0.15201916180E+03  0.15201916180E+03  0.00000000000E+00 0.  1.
         23    2    1    2    0    0 -0.16307595267E+02  0.29052154822E+02  0.56281181474E+02  0.11088491792E+03  0.89542885092E+02 0.  0.
          5    1    1    2  502    0  0.28624939011E+02  0.37063315699E+02  0.93914090217E+01  0.47993385663E+02  0.47000000000E+01 0. -1.
         -5    1    1    2    0  502 -0.12317343745E+02 -0.66115470521E+02 -0.94637464195E+02  0.11619514632E+03  0.47000000000E+01 0.  1.
        -11    1    3    3    0    0 -0.30449406849E+01 -0.99846271120E+01 -0.20911545235E+02  0.23372145097E+02  0.00000000000E+00 0.  1.
         11    1    3    3    0    0 -0.13262654582E+02  0.39036781934E+02  0.77192726709E+02  0.87512772822E+02  0.00000000000E+00 0. -1.
<mgrwt>
<rscale>  0 0.12746666E+03</rscale>
<asrwt>0</asrwt>
<pdfrwt beam="1">  1        3 0.18931429E-01 0.14032457E+03</pdfrwt>
<pdfrwt beam="2">  1       -3 0.23387563E-01 0.14032457E+03</pdfrwt>
<totfact> 0.97223997E+02</totfact>
</mgrwt>
</event>
<event>
 7    1  0.1330601E-005  0.1648179E+03  0.7546771E-02  0.1190220E+00
          1   -1    0    0  501    0  0.00000000000E+00  0.00000000000E+00  0.58367627484E+03  0.58367627484E+03  0.00000000000E+00 0. -1.
         -1   -1    0    0    0  501 -0.00000000000E+00 -0.00000000000E+00 -0.15971071915E+03  0.15971071915E+03  0.00000000000E+00 0.  1.
         23    2    1    2    0    0  0.30185234450E+02  0.10309353841E+03  0.52922712973E+03  0.54782389613E+03  0.92142499943E+02 0.  0.
          5    1    1    2  502    0 -0.22637520255E+02 -0.74785515927E+02  0.78069267690E+01  0.78666186009E+02  0.47000000000E+01 0. -1.
         -5    1    1    2    0  502 -0.75477141954E+01 -0.28308022488E+02 -0.11306850080E+03  0.11689691185E+03  0.47000000000E+01 0. -1.
        -11    1    3    3    0    0 -0.81903682715E+00  0.96404519874E+02  0.47759068212E+03  0.48722413930E+03  0.00000000000E+00 0.  1.
         11    1    3    3    0    0  0.31004271277E+02  0.66890185405E+01  0.51636447611E+02  0.60599756834E+02  0.00000000000E+00 0. -1.
<mgrwt>
<rscale>  0 0.15865816E+03</rscale>
<asrwt>0</asrwt>
<pdfrwt beam="1">  1        1 0.89796349E-01 0.16481786E+03</pdfrwt>
<pdfrwt beam="2">  1       -1 0.24570880E-01 0.16481786E+03</pdfrwt>
<totfact> 0.52988318E+02</totfact>
</mgrwt>
</event>
<event>
 7    1  0.1330601E-005  0.1373293E+03  0.7546771E-02  0.1233727E+00
          1   -1    0    0  501    0  0.00000000000E+00  0.00000000000E+00  0.35947651032E+02  0.35947651032E+02  0.00000000000E+00 0. -1.
         -1   -1    0    0    0  501 -0.00000000000E+00 -0.00000000000E+00 -0.50965877016E+03  0.50965877016E+03  0.00000000000E+00 0.  1.
         23    2    1    2    0    0 -0.28615680869E+02  0.10232889206E+02 -0.70998377655E+02  0.12012212903E+03  0.92005364195E+02 0.  0.
          5    1    1    2  502    0  0.75133587265E+02  0.78637825069E+01 -0.15193912967E+03  0.16974829641E+03  0.47000000000E+01 0. -1.
         -5    1    1    2    0  502 -0.46517906396E+02 -0.18096671713E+02 -0.25077361180E+03  0.25573599574E+03  0.47000000000E+01 0.  1.
        -11    1    3    3    0    0 -0.18530994706E+01 -0.15963518535E+02  0.17660622193E+02  0.23878138074E+02  0.00000000000E+00 0. -1.
         11    1    3    3    0    0 -0.26762581399E+02  0.26196407741E+02 -0.88658999847E+02  0.96243990958E+02  0.00000000000E+00 0.  1.
<mgrwt>
<rscale>  0 0.12586275E+03</rscale>
<asrwt>0</asrwt>
<pdfrwt beam="1">  1        1 0.55304080E-02 0.13732928E+03</pdfrwt>
<pdfrwt beam="2">  1       -1 0.78409040E-01 0.13732928E+03</pdfrwt>
<totfact> 0.23835812E+03</totfact>
</mgrwt>
</event>
<event>
 7    1  0.1330601E-005  0.4580235E+03  0.7546771E-02  0.1076109E+00
          3   -1    0    0  501    0  0.00000000000E+00  0.00000000000E+00  0.44831057029E+03  0.44831057029E+03  0.00000000000E+00 0. -1.
         -3   -1    0    0    0  501 -0.00000000000E+00 -0.00000000000E+00 -0.20893218592E+03  0.20893218592E+03  0.00000000000E+00 0.  1.
         23    2    1    2    0    0  0.10406521863E+02  0.54822236572E+02  0.15920791555E+03  0.19225587123E+03  0.92202962697E+02 0.  0.
          5    1    1    2  502    0 -0.16393443372E+03  0.12032811389E+03  0.10811421314E+03  0.23035652072E+03  0.47000000000E+01 0. -1.
         -5    1    1    2    0  502  0.15352791186E+03 -0.17515035046E+03 -0.27943744317E+02  0.23463036426E+03  0.47000000000E+01 0.  1.
        -11    1    3    3    0    0  0.48596234155E+02  0.44479322753E+02  0.11789583425E+03  0.13505344075E+03  0.00000000000E+00 0.  1.
         11    1    3    3    0    0 -0.38189712292E+02  0.10342913820E+02  0.41312081301E+02  0.57202430479E+02  0.00000000000E+00 0. -1.
<mgrwt>
<rscale>  0 0.31900240E+03</rscale>
<asrwt>0</asrwt>
<pdfrwt beam="1">  1        3 0.68970857E-01 0.45802347E+03</pdfrwt>
<pdfrwt beam="2">  1       -3 0.32143413E-01 0.45802347E+03</pdfrwt>
<totfact> 0.49767664E+01</totfact>
</mgrwt>
</event>
<event>
 7    1  0.1330601E-005  0.1252185E+03  0.7546771E-02  0.1250380E+00
          1   -1    0    0  501    0  0.00000000000E+00  0.00000000000E+00  0.15693503947E+03  0.15693503947E+03  0.00000000000E+00 0. -1.
         -1   -1    0    0    0  501 -0.00000000000E+00 -0.00000000000E+00 -0.94957730285E+02  0.94957730285E+02  0.00000000000E+00 0.  1.
         23    2    1    2    0    0  0.62988578114E+01  0.38346692276E+01  0.84855454420E+02  0.12460139240E+03  0.90943271025E+02 0.  0.
          5    1    1    2  502    0 -0.21436346154E+02  0.28396952522E+02 -0.63578596242E+02  0.73008436151E+02  0.47000000000E+01 0. -1.
         -5    1    1    2    0  502  0.15137488343E+02 -0.32231621750E+02  0.40700451012E+02  0.54282941211E+02  0.47000000000E+01 0. -1.
        -11    1    3    3    0    0  0.94450420795E+01 -0.39736548462E+02  0.17759687053E+02  0.44537720954E+02  0.00000000000E+00 0.  1.
         11    1    3    3    0    0 -0.31461842681E+01  0.43571217690E+02  0.67095767367E+02  0.80063671443E+02  0.00000000000E+00 0. -1.
<mgrwt>
<rscale>  0 0.11569109E+03</rscale>
<asrwt>0</asrwt>
<pdfrwt beam="1">  1        1 0.24143852E-01 0.12521855E+03</pdfrwt>
<pdfrwt beam="2">  1       -1 0.14608882E-01 0.12521855E+03</pdfrwt>
<totfact> 0.63404351E+03</totfact>
</mgrwt>
</event>
<event>
 7    1  0.1796497E-005  0.2244749E+03  0.7546771E-02  0.1133640E+00
         -2   -1    0    0    0  501 -0.00000000000E+00  0.00000000000E+00  0.13740835679E+03  0.13740835679E+03  0.00000000000E+00 0.  1.
          2   -1    0    0  501    0  0.00000000000E+00 -0.00000000000E+00 -0.41821170467E+03  0.41821170467E+03  0.00000000000E+00 0. -1.
         23    2    1    2    0    0 -0.69789458000E+02 -0.17289766497E+03 -0.25557520750E+03  0.32973198255E+03  0.92953335754E+02 0.  0.
          5    1    1    2  502    0  0.98623931593E+02  0.16418760962E+03 -0.33040747046E+02  0.19441715974E+03  0.47000000000E+01 0. -1.
         -5    1    1    2    0  502 -0.28834473592E+02  0.87100553503E+01  0.78126066619E+01  0.31470919186E+02  0.47000000000E+01 0. -1.
        -11    1    3    3    0    0  0.11623122823E+02 -0.32698046497E+02 -0.11192498201E+02  0.36462737759E+02  0.00000000000E+00 0.  1.
         11    1    3    3    0    0 -0.81412580823E+02 -0.14019961847E+03 -0.24438270930E+03  0.29326924479E+03  0.00000000000E+00 0. -1.
<mgrwt>
<rscale>  0 0.22032695E+03</rscale>
<asrwt>0</asrwt>
<pdfrwt beam="2">  1        2 0.64340262E-01 0.22447487E+03</pdfrwt>
<pdfrwt beam="1">  1       -2 0.21139747E-01 0.22447487E+03</pdfrwt>
<totfact> 0.14464654E+03</totfact>
</mgrwt>
</event>
<event>
 7    1  0.1462237E-005  0.1586144E+03  0.7546771E-02  0.1197964E+00
          2   -1    0    0  501    0  0.00000000000E+00  0.00000000000E+00  0.34331065435E+03  0.34331065435E+03  0.00000000000E+00 0. -1.
         -2   -1    0    0    0  501 -0.00000000000E+00 -0.00000000000E+00 -0.63365559280E+02  0.63365559280E+02  0.00000000000E+00 0.  1.
         23    2    1    2    0    0 -0.29369060909E+01 -0.97598524483E+02  0.15412662219E+03  0.20421926322E+03  0.91740909120E+02 0.  0.
          5    1    1    2  502    0  0.10730370891E+02  0.64646829805E+02 -0.62872186199E+01  0.65999792282E+02  0.47000000000E+01 0.  1.
         -5    1    1    2    0  502 -0.77934648004E+01  0.32951694678E+02  0.13210569150E+03  0.13645715812E+03  0.47000000000E+01 0.  1.
        -11    1    3    3    0    0 -0.47304323240E+02 -0.53670785846E+02  0.82936944981E+02  0.10952985480E+03  0.00000000000E+00 0.  1.
         11    1    3    3    0    0  0.44367417149E+02 -0.43927738637E+02  0.71189677206E+02  0.94689408420E+02  0.00000000000E+00 0. -1.
<mgrwt>
<rscale>  0 0.15206053E+03</rscale>
<asrwt>0</asrwt>
<pdfrwt beam="1">  1        2 0.52817023E-01 0.15861440E+03</pdfrwt>
<pdfrwt beam="2">  1       -2 0.97485478E-02 0.15861440E+03</pdfrwt>
<totfact> 0.62952282E+03</totfact>
</mgrwt>
</event>
<event>
 7    1  0.1330601E-005  0.1445628E+03  0.7546771E-02  0.1223705E+00
          2   -1    0    0  501    0  0.00000000000E+00  0.00000000000E+00  0.11299202296E+03  0.11299202296E+03  0.00000000000E+00 0. -1.
         -2   -1    0    0    0  501 -0.00000000000E+00 -0.00000000000E+00 -0.13888187983E+03  0.13888187983E+03  0.00000000000E+00 0.  1.
         23    2    1    2    0    0 -0.29657087441E+02 -0.36533554101E+02 -0.32238075264E+02  0.10717180032E+03  0.90731790883E+02 0.  0.
          5    1    1    2  502    0  0.33529883729E+02  0.17030292849E+02  0.69043478393E+02  0.78761512720E+02  0.47000000000E+01 0. -1.
         -5    1    1    2    0  502 -0.38727962877E+01  0.19503261252E+02 -0.62695260001E+02  0.65940589754E+02  0.47000000000E+01 0.  1.
        -11    1    3    3    0    0  0.17856602390E+02 -0.43678061763E+02  0.34602960881E+01  0.47313898352E+02  0.00000000000E+00 0. -1.
         11    1    3    3    0    0 -0.47513689831E+02  0.71445076614E+01 -0.35698371352E+02  0.59857901970E+02  0.00000000000E+00 0.  1.
<mgrwt>
<rscale>  0 0.13256038E+03</rscale>
<asrwt>0</asrwt>
<pdfrwt beam="1">  1        2 0.17383388E-01 0.14456278E+03</pdfrwt>
<pdfrwt beam="2">  1       -2 0.21366443E-01 0.14456278E+03</pdfrwt>
<totfact> 0.58513358E+03</totfact>
</mgrwt>
</event>
<event>
 7    1  0.1330601E-005  0.1369878E+03  0.7546771E-02  0.1229989E+00
          1   -1    0    0  501    0  0.00000000000E+00  0.00000000000E+00  0.46404717180E+03  0.46404717180E+03  0.00000000000E+00 0. -1.
         -1   -1    0    0    0  501 -0.00000000000E+00 -0.00000000000E+00 -0.31663305141E+02  0.31663305141E+02  0.00000000000E+00 0.  1.
         23    2    1    2    0    0 -0.48648356526E+02  0.27812649689E+02  0.19074233155E+03  0.21794025193E+03  0.89303472995E+02 0.  0.
          5    1    1    2  502    0  0.66531579252E+02  0.21959887934E+02  0.19442436206E+03  0.20671625547E+03  0.47000000000E+01 0.  1.
         -5    1    1    2    0  502 -0.17883222726E+02 -0.49772537623E+02  0.47217173048E+02  0.71053969538E+02  0.47000000000E+01 0.  1.
        -11    1    3    3    0    0  0.20643009726E+02  0.10795001833E+02  0.99078478174E+02  0.10178020806E+03  0.00000000000E+00 0. -1.
         11    1    3    3    0    0 -0.69291366252E+02  0.17017647856E+02  0.91663853376E+02  0.11616004387E+03  0.00000000000E+00 0.  1.
<mgrwt>
<rscale>  0 0.12830741E+03</rscale>
<asrwt>0</asrwt>
<pdfrwt beam="1">  1        1 0.71391868E-01 0.13698783E+03</pdfrwt>
<pdfrwt beam="2">  1       -1 0.48712780E-02 0.13698783E+03</pdfrwt>
<totfact> 0.87110470E+03</totfact>
</mgrwt>
</event>
<event>
 7    1  0.1330601E-005  0.1322317E+03  0.7546771E-02  0.1237075E+00
         -2   -1    0    0    0  501 -0.00000000000E+00  0.00000000000E+00  0.26985526080E+02  0.26985526080E+02  0.00000000000E+00 0.  1.
          2   -1    0    0  501    0  0.00000000000E+00 -0.00000000000E+00 -0.51392992261E+03  0.51392992261E+03  0.00000000000E+00 0. -1.
         23    2    1    2    0    0 -0.11134136016E+02  0.41661585077E+02 -0.24623601342E+03  0.26627796549E+03  0.91717631591E+02 0.  0.
          5    1    1    2  502    0 -0.46149236238E+02 -0.53554844353E+02 -0.15861825514E+03  0.17372309640E+03  0.47000000000E+01 0.  1.
         -5    1    1    2    0  502  0.57283372254E+02  0.11893259276E+02 -0.82090127968E+02  0.10091438680E+03  0.47000000000E+01 0.  1.
        -11    1    3    3    0    0 -0.37850830692E+02  0.46761731350E+02 -0.93805050068E+02  0.11143936612E+03  0.00000000000E+00 0.  1.
         11    1    3    3    0    0  0.26716694676E+02 -0.51001462734E+01 -0.15243096336E+03  0.15483859937E+03  0.00000000000E+00 0. -1.
<mgrwt>
<rscale>  0 0.12372498E+03</rscale>
<asrwt>0</asrwt>
<pdfrwt beam="2">  1        2 0.79066146E-01 0.13223170E+03</pdfrwt>
<pdfrwt beam="1">  1       -2 0.41516192E-02 0.13223170E+03</pdfrwt>
<totfact> 0.14801223E+04</totfact>
</mgrwt>
</event>
<event>
 7    1  0.1819575E-005  0.2010864E+03  0.7546771E-02  0.1153560E+00
          3   -1    0    0  501    0  0.00000000000E+00  0.00000000000E+00  0.13088419981E+03  0.13088419981E+03  0.00000000000E+00 0. -1.
         -3   -1    0    0    0  501 -0.00000000000E+00 -0.00000000000E+00 -0.27711199472E+03  0.27711199472E+03  0.00000000000E+00 0.  1.
         23    2    1    2    0    0 -0.17498120555E+02 -0.15653840242E+03 -0.67330840470E+02  0.19198585028E+03  0.86687190359E+02 0.  0.
          5    1    1    2  502    0  0.13393192826E+02  0.17684154183E+03 -0.59156584616E+02  0.18701310123E+03  0.47000000000E+01 0.  1.
         -5    1    1    2    0  502  0.41049277288E+01 -0.20303139404E+02 -0.19740369824E+02  0.28997243009E+02  0.47000000000E+01 0.  1.
        -11    1    3    3    0    0  0.32630990825E+02 -0.94648399284E+02 -0.39286203814E+02  0.10754769574E+03  0.00000000000E+00 0.  1.
         11    1    3    3    0    0 -0.50129111380E+02 -0.61890003141E+02 -0.28044636655E+02  0.84438154537E+02  0.00000000000E+00 0. -1.
<mgrwt>
<rscale>  0 0.19553727E+03</rscale>
<asrwt>0</asrwt>
<pdfrwt beam="1">  1        3 0.20136031E-01 0.20108640E+03</pdfrwt>
<pdfrwt beam="2">  1       -3 0.42632614E-01 0.20108640E+03</pdfrwt>
<totfact> 0.29708174E+02</totfact>
</mgrwt>
</event>
<event>
 7    1  0.1330601E-005  0.1502258E+03  0.7546771E-02  0.1209159E+00
         -1   -1    0    0    0  501 -0.00000000000E+00  0.00000000000E+00  0.14306768322E+03  0.14306768322E+03  0.00000000000E+00 0.  1.
          1   -1    0    0  501    0  0.00000000000E+00 -0.00000000000E+00 -0.13317845780E+03  0.13317845780E+03  0.00000000000E+00 0. -1.
         23    2    1    2    0    0  0.43981222339E+02  0.70766859529E+02 -0.12053995749E+02  0.12442624233E+03  0.91620383329E+02 0.  0.
          5    1    1    2  502    0  0.38348514020E+02 -0.48911002723E+02 -0.45348976687E+01  0.62494399843E+02  0.47000000000E+01 0. -1.
         -5    1    1    2    0  502 -0.82329736359E+02 -0.21855856806E+02  0.26478118835E+02  0.89325498838E+02  0.47000000000E+01 0. -1.
        -11    1    3    3    0    0  0.32364518447E+02 -0.11397066588E+02  0.14571169453E+02  0.37278333658E+02  0.00000000000E+00 0.  1.
         11    1    3    3    0    0  0.11616703892E+02  0.82163926117E+02 -0.26625165203E+02  0.87147908674E+02  0.00000000000E+00 0. -1.
<mgrwt>
<rscale>  0 0.14314441E+03</rscale>
<asrwt>0</asrwt>
<pdfrwt beam="2">  1        1 0.20488993E-01 0.15022575E+03</pdfrwt>
<pdfrwt beam="1">  1       -1 0.22010413E-01 0.15022575E+03</pdfrwt>
<totfact> 0.41105988E+03</totfact>
</mgrwt>
</event>
<event>
 7    1  0.1330601E-005  0.1399710E+03  0.7546771E-02  0.1223918E+00
          2   -1    0    0  501    0  0.00000000000E+00  0.00000000000E+00  0.64310694813E+03  0.64310694813E+03  0.00000000000E+00 0. -1.
         -2   -1    0    0    0  501 -0.00000000000E+00 -0.00000000000E+00 -0.26050120515E+02  0.26050120515E+02  0.00000000000E+00 0.  1.
         23    2    1    2    0    0 -0.17974266492E+02  0.60368450791E+02  0.35189061906E+03  0.36931546334E+03  0.92733378953E+02 0.  0.
          5    1    1    2  502    0 -0.20639269633E+02 -0.42604444279E+02  0.24997357857E+03  0.25446020928E+03  0.47000000000E+01 0.  1.
         -5    1    1    2    0  502  0.38613536126E+02 -0.17764006512E+02  0.15192629986E+02  0.45381396027E+02  0.47000000000E+01 0.  1.
        -11    1    3    3    0    0 -0.37129550091E+02  0.45284556600E+02  0.33394797920E+03  0.33904357739E+03  0.00000000000E+00 0. -1.
         11    1    3    3    0    0  0.19155283599E+02  0.15083894191E+02  0.17942639854E+02  0.30271885945E+02  0.00000000000E+00 0.  1.
<mgrwt>
<rscale>  0 0.13241342E+03</rscale>
<asrwt>0</asrwt>
<pdfrwt beam="1">  1        2 0.98939519E-01 0.13997096E+03</pdfrwt>
<pdfrwt beam="2">  1       -2 0.40077113E-02 0.13997096E+03</pdfrwt>
<totfact> 0.12162655E+04</totfact>
</mgrwt>
</event>
<event>
 7    1  0.1330601E-005  0.1278070E+03  0.7546771E-02  0.1246540E+00
          4   -1    0    0  501    0  0.00000000000E+00  0.00000000000E+00  0.29954304505E+03  0.29954304505E+03  0.00000000000E+00 0.  1.
         -4   -1    0    0    0  501 -0.00000000000E+00 -0.00000000000E+00 -0.54165064055E+02  0.54165064055E+02  0.00000000000E+00 0. -1.
         23    2    1    2    0    0 -0.26335950732E+02 -0.38380629613E+01  0.19579928617E+03  0.21662175606E+03  0.88765487139E+02 0.  0.
          5    1    1    2  502    0 -0.37603366111E+02 -0.16695804836E+02  0.55791350774E+02  0.69480413522E+02  0.47000000000E+01 0. -1.
         -5    1    1    2    0  502  0.63939316843E+02  0.20533867797E+02 -0.62126559449E+01  0.67605939525E+02  0.47000000000E+01 0. -1.
        -11    1    3    3    0    0 -0.73734002916E+01 -0.44629652658E+02  0.73411608761E+02  0.86228981376E+02  0.00000000000E+00 0. -1.
         11    1    3    3    0    0 -0.18962550441E+02  0.40791589696E+02  0.12238767741E+03  0.13039277469E+03  0.00000000000E+00 0.  1.
<mgrwt>
<rscale>  0 0.11793699E+03</rscale>
<asrwt>0</asrwt>
<pdfrwt beam="1">  1        4 0.46083544E-01 0.12780697E+03</pdfrwt>
<pdfrwt beam="2">  1       -4 0.83330870E-02 0.12780697E+03</pdfrwt>
<totfact> 0.77203843E+02</totfact>
</mgrwt>
</event>
<event>
 7    1  0.1330601E-005  0.2272183E+03  0.7546771E-02  0.1131734E+00
          1   -1    0    0  501    0  0.00000000000E+00  0.00000000000E+00  0.41043604887E+02  0.41043604887E+02  0.00000000000E+00 0. -1.
         -1   -1    0    0    0  501 -0.00000000000E+00 -0.00000000000E+00 -0.11912899386E+04  0.11912899386E+04  0.00000000000E+00 0.  1.
         23    2    1    2    0    0 -0.12167541676E+03  0.14558655759E+03 -0.46527560879E+03  0.51065976913E+03  0.91058524477E+02 0.  0.
          5    1    1    2  502    0 -0.11277051132E+02 -0.76090455664E+02 -0.22462482702E+03  0.23747701413E+03  0.47000000000E+01 0.  1.
         -5    1    1    2    0  502  0.13295246789E+03 -0.69496101924E+02 -0.46034589795E+03  0.48419676027E+03  0.47000000000E+01 0.  1.
        -11    1    3    3    0    0  0.36397443689E+01  0.40876569265E+02 -0.15114532744E+03  0.15661753305E+03  0.00000000000E+00 0.  1.
         11    1    3    3    0    0 -0.12531516113E+03  0.10470998832E+03 -0.31413028135E+03  0.35404223608E+03  0.00000000000E+00 0. -1.
<mgrwt>
<rscale>  0 0.22290669E+03</rscale>
<asrwt>0</asrwt>
<pdfrwt beam="1">  1        1 0.63144002E-02 0.22721827E+03</pdfrwt>
<pdfrwt beam="2">  1       -1 0.18327539E+00 0.22721827E+03</pdfrwt>
<totfact> 0.26191523E+02</totfact>
</mgrwt>
</event>
<event>
 7    1  0.1330601E-005  0.1503097E+03  0.7546771E-02  0.1208223E+00
         -1   -1    0    0    0  501 -0.00000000000E+00  0.00000000000E+00  0.62781916149E+03  0.62781916149E+03  0.00000000000E+00 0.  1.
          1   -1    0    0  501    0  0.00000000000E+00 -0.00000000000E+00 -0.31860739240E+02  0.31860739240E+02  0.00000000000E+00 0. -1.
         23    2    1    2    0    0 -0.60377791727E+02  0.57639093249E+02  0.20348503104E+03  0.23940813434E+03  0.94564021325E+02 0.  0.
          5    1    1    2  502    0  0.34253967646E+02  0.32864847215E+02  0.20417088265E+03  0.20966943460E+03  0.47000000000E+01 0.  1.
         -5    1    1    2    0  502  0.26123824082E+02 -0.90503940464E+02  0.18830250856E+03  0.21060233179E+03  0.47000000000E+01 0.  1.
        -11    1    3    3    0    0 -0.68780948055E+02  0.31654212633E+02  0.19740819570E+03  0.21143037559E+03  0.00000000000E+00 0.  1.
         11    1    3    3    0    0  0.84031563275E+01  0.25984880616E+02  0.60768353313E+01  0.27977758748E+02  0.00000000000E+00 0. -1.
<mgrwt>
<rscale>  0 0.14386306E+03</rscale>
<asrwt>0</asrwt>
<pdfrwt beam="2">  1        1 0.49016526E-02 0.15030966E+03</pdfrwt>
<pdfrwt beam="1">  1       -1 0.96587554E-01 0.15030966E+03</pdfrwt>
<totfact> 0.18206273E+03</totfact>
</mgrwt>
</event>
<event>
 7    1  0.1330601E-005  0.2370154E+03  0.7546771E-02  0.1125276E+00
         -1   -1    0    0    0  501 -0.00000000000E+00  0.00000000000E+00  0.81673563271E+02  0.81673563271E+02  0.00000000000E+00 0.  1.
          1   -1    0    0  501    0  0.00000000000E+00 -0.00000000000E+00 -0.63679327941E+03  0.63679327941E+03  0.00000000000E+00 0. -1.
         23    2    1    2    0    0  0.19813720526E+03  0.35927515927E+02 -0.29667148529E+03  0.36779353613E+03  0.81908342237E+02 0.  0.
          5    1    1    2  502    0 -0.18841046028E+03 -0.52429773210E+02 -0.16727650134E+03  0.25739250292E+03  0.47000000000E+01 0.  1.
         -5    1    1    2    0  502 -0.97267449778E+01  0.16502257283E+02 -0.91171729513E+02  0.93280803629E+02  0.47000000000E+01 0.  1.
        -11    1    3    3    0    0  0.30174096753E+01 -0.11469217478E+02 -0.33418118471E+01  0.12321339908E+02  0.00000000000E+00 0.  1.
         11    1    3    3    0    0  0.19511979558E+03  0.47396733406E+02 -0.29332967345E+03  0.35547219623E+03  0.00000000000E+00 0. -1.
<mgrwt>
<rscale>  0 0.23194869E+03</rscale>
<asrwt>0</asrwt>
<pdfrwt beam="2">  1        1 0.97968196E-01 0.23701536E+03</pdfrwt>
<pdfrwt beam="1">  1       -1 0.12565164E-01 0.23701536E+03</pdfrwt>
<totfact> 0.13764599E+03</totfact>
</mgrwt>
</event>
<event>
 7    1  0.1330601E-005  0.1560660E+03  0.7546771E-02  0.1200555E+00
         -1   -1    0    0    0  501 -0.00000000000E+00  0.00000000000E+00  0.10938044243E+03  0.10938044243E+03  0.00000000000E+00 0.  1.
          1   -1    0    0  501    0  0.00000000000E+00 -0.00000000000E+00 -0.22314567671E+03  0.22314567671E+03  0.00000000000E+00 0. -1.
         23    2    1    2    0    0  0.85276238757E+02  0.38181220420E+02 -0.11601092547E+03  0.17644399812E+03  0.94573289860E+02 0.  0.
          5    1    1    2  502    0 -0.58492483941E+02 -0.53311877382E+02  0.53836119771E+02  0.95832900089E+02  0.47000000000E+01 0. -1.
         -5    1    1    2    0  502 -0.26783754817E+02  0.15130656961E+02 -0.51590428573E+02  0.60249220929E+02  0.47000000000E+01 0. -1.
        -11    1    3    3    0    0  0.48187051432E+02 -0.28183034065E+02 -0.60430572778E+02  0.82268642027E+02  0.00000000000E+00 0. -1.
         11    1    3    3    0    0  0.37089187325E+02  0.66364254485E+02 -0.55580352693E+02  0.94175356093E+02  0.00000000000E+00 0.  1.
<mgrwt>
<rscale>  0 0.14993321E+03</rscale>
<asrwt>0</asrwt>
<pdfrwt beam="2">  1        1 0.34330104E-01 0.15606596E+03</pdfrwt>
<pdfrwt beam="1">  1       -1 0.16827760E-01 0.15606596E+03</pdfrwt>
<totfact> 0.33133546E+03</totfact>
</mgrwt>
</event>
<event>
 7    1  0.1330601E-005  0.1389080E+03  0.7546771E-02  0.1225070E+00
         -2   -1    0    0    0  501 -0.00000000000E+00  0.00000000000E+00  0.41681133426E+02  0.41681133426E+02  0.00000000000E+00 0.  1.
          2   -1    0    0  501    0  0.00000000000E+00 -0.00000000000E+00 -0.39659547691E+03  0.39659547691E+03  0.00000000000E+00 0. -1.
         23    2    1    2    0    0  0.59641843341E+02 -0.10669227763E+02 -0.20711742314E+03  0.23544820728E+03  0.94166073751E+02 0.  0.
          5    1    1    2  502    0 -0.71169674215E+02  0.21081654349E+02 -0.16388752915E+03  0.17997436175E+03  0.47000000000E+01 0. -1.
         -5    1    1    2    0  502  0.11527830874E+02 -0.10412426587E+02  0.16090608805E+02  0.22854041302E+02  0.47000000000E+01 0. -1.
        -11    1    3    3    0    0 -0.30787767195E+01 -0.38700519221E+02 -0.10869946813E+03  0.11542436236E+03  0.00000000000E+00 0. -1.
         11    1    3    3    0    0  0.62720620060E+02  0.28031291458E+02 -0.98417955006E+02  0.12002384492E+03  0.00000000000E+00 0.  1.
<mgrwt>
<rscale>  0 0.13162093E+03</rscale>
<asrwt>0</asrwt>
<pdfrwt beam="2">  1        2 0.61014690E-01 0.13890800E+03</pdfrwt>
<pdfrwt beam="1">  1       -2 0.64124820E-02 0.13890800E+03</pdfrwt>
<totfact> 0.10228049E+04</totfact>
</mgrwt>
</event>
<event>
 7    1  0.1330601E-005  0.1843057E+03  0.7546771E-02  0.1168941E+00
         -1   -1    0    0    0  501 -0.00000000000E+00  0.00000000000E+00  0.14570650379E+03  0.14570650379E+03  0.00000000000E+00 0.  1.
          1   -1    0    0  501    0  0.00000000000E+00 -0.00000000000E+00 -0.21455360197E+03  0.21455360197E+03  0.00000000000E+00 0. -1.
         23    2    1    2    0    0 -0.37859860226E+01  0.13539071591E+03 -0.65289291601E+02  0.17592001982E+03  0.91324597627E+02 0.  0.
          5    1    1    2  502    0  0.49790234120E+01 -0.41773341219E+01 -0.45732166313E+02  0.46430182319E+02  0.47000000000E+01 0. -1.
         -5    1    1    2    0  502 -0.11930373893E+01 -0.13121338178E+03  0.42174359737E+02  0.13790990362E+03  0.47000000000E+01 0. -1.
        -11    1    3    3    0    0  0.15107493963E+02  0.13646356862E+03 -0.37548258153E+02  0.14233907975E+03  0.00000000000E+00 0.  1.
         11    1    3    3    0    0 -0.18893479985E+02 -0.10728527159E+01 -0.27741033448E+02  0.33580940065E+02  0.00000000000E+00 0. -1.
<mgrwt>
<rscale>  0 0.17882898E+03</rscale>
<asrwt>0</asrwt>
<pdfrwt beam="2">  1        1 0.33008246E-01 0.18430575E+03</pdfrwt>
<pdfrwt beam="1">  1       -1 0.22416385E-01 0.18430575E+03</pdfrwt>
<totfact> 0.22071320E+03</totfact>
</mgrwt>
</event>
<event>
 7    1  0.1330601E-005  0.1500317E+03  0.7546771E-02  0.1207486E+00
          2   -1    0    0  501    0  0.00000000000E+00  0.00000000000E+00  0.50732516502E+03  0.50732516502E+03  0.00000000000E+00 0. -1.
         -2   -1    0    0    0  501 -0.00000000000E+00 -0.00000000000E+00 -0.61228982136E+02  0.61228982136E+02  0.00000000000E+00 0.  1.
         23    2    1    2    0    0 -0.16716512059E+02 -0.89292296870E+02  0.38598934265E+03  0.40693011122E+03  0.91388110410E+02 0.  0.
          5    1    1    2  502    0 -0.45380177841E+02  0.71220884700E+01  0.26194782556E+02  0.53088052500E+02  0.47000000000E+01 0. -1.
         -5    1    1    2    0  502  0.62096689901E+02  0.82170208400E+02  0.33912057686E+02  0.10853598344E+03  0.47000000000E+01 0.  1.
        -11    1    3    3    0    0  0.18671134553E+02 -0.36614759740E+02  0.48712786087E+02  0.63735291830E+02  0.00000000000E+00 0.  1.
         11    1    3    3    0    0 -0.35387646613E+02 -0.52677537131E+02  0.33727655656E+03  0.34319481939E+03  0.00000000000E+00 0. -1.
<mgrwt>
<rscale>  0 0.14443248E+03</rscale>
<asrwt>0</asrwt>
<pdfrwt beam="1">  1        2 0.78050022E-01 0.15003165E+03</pdfrwt>
<pdfrwt beam="2">  1       -2 0.94198438E-02 0.15003165E+03</pdfrwt>
<totfact> 0.43436282E+03</totfact>
</mgrwt>
</event>
<event>
 7    1  0.1330601E-005  0.1654551E+03  0.7546771E-02  0.1189739E+00
          1   -1    0    0  501    0  0.00000000000E+00  0.00000000000E+00  0.38901488460E+03  0.38901488460E+03  0.00000000000E+00 0. -1.
         -1   -1    0    0    0  501 -0.00000000000E+00 -0.00000000000E+00 -0.61500807232E+02  0.61500807232E+02  0.00000000000E+00 0.  1.
         23    2    1    2    0    0 -0.54340267661E+01 -0.10824719270E+03  0.12260750612E+03  0.18714885710E+03  0.90802592381E+02 0.  0.
          5    1    1    2  502    0 -0.41023152978E+02 -0.28395722854E+01  0.30643259552E+02  0.51498170909E+02  0.47000000000E+01 0.  1.
         -5    1    1    2    0  502  0.46457179744E+02  0.11108676499E+03  0.17426331169E+03  0.21186866382E+03  0.47000000000E+01 0.  1.
        -11    1    3    3    0    0  0.35869431695E+02 -0.21868238918E+02  0.58110942444E+02  0.71705771283E+02  0.00000000000E+00 0. -1.
         11    1    3    3    0    0 -0.41303458461E+02 -0.86378953784E+02  0.64496563674E+02  0.11544308582E+03  0.00000000000E+00 0.  1.
<mgrwt>
<rscale>  0 0.15908066E+03</rscale>
<asrwt>0</asrwt>
<pdfrwt beam="1">  1        1 0.59848442E-01 0.16545509E+03</pdfrwt>
<pdfrwt beam="2">  1       -1 0.94616629E-02 0.16545509E+03</pdfrwt>
<totfact> 0.40669876E+03</totfact>
</mgrwt>
</event>
<event>
 7    1  0.1330601E-005  0.1761828E+03  0.7546771E-02  0.1177173E+00
          3   -1    0    0  501    0  0.00000000000E+00  0.00000000000E+00  0.52859808879E+02  0.52859808879E+02  0.00000000000E+00 0. -1.
         -3   -1    0    0    0  501 -0.00000000000E+00 -0.00000000000E+00 -0.52093311201E+03  0.52093311201E+03  0.00000000000E+00 0.  1.
         23    2    1    2    0    0  0.11509406112E+03  0.46547847794E+02 -0.20150577224E+03  0.25426418394E+03  0.92910462010E+02 0.  0.
          5    1    1    2  502    0 -0.10894991408E+03 -0.83970764701E+02 -0.20023386386E+03  0.24297502616E+03  0.47000000000E+01 0. -1.
         -5    1    1    2    0  502 -0.61441470405E+01  0.37422916907E+02 -0.66333667039E+02  0.76553710789E+02  0.47000000000E+01 0. -1.
        -11    1    3    3    0    0  0.11036239557E+03  0.70163672748E+02 -0.16525439904E+03  0.21074111068E+03  0.00000000000E+00 0. -1.
         11    1    3    3    0    0  0.47316655473E+01 -0.23615824954E+02 -0.36251373197E+02  0.43523073257E+02  0.00000000000E+00 0.  1.
<mgrwt>
<rscale>  0 0.17064841E+03</rscale>
<asrwt>0</asrwt>
<pdfrwt beam="1">  1        3 0.81322785E-02 0.17618276E+03</pdfrwt>
<pdfrwt beam="2">  1       -3 0.80143554E-01 0.17618276E+03</pdfrwt>
<totfact> 0.37095630E+02</totfact>
</mgrwt>
</event>
<event>
 7    1  0.1330601E-005  0.1457624E+03  0.7546771E-02  0.1216180E+00
          2   -1    0    0  501    0  0.00000000000E+00  0.00000000000E+00  0.45920851887E+02  0.45920851887E+02  0.00000000000E+00 0.  1.
         -2   -1    0    0    0  501 -0.00000000000E+00 -0.00000000000E+00 -0.38663986365E+03  0.38663986365E+03  0.00000000000E+00 0. -1.
         23    2    1    2    0    0 -0.67750230723E+02  0.32132068337E+02 -0.11518447679E+03  0.16402299827E+03  0.89518247805E+02 0.  0.
          5    1    1    2  502    0  0.36808315811E+02 -0.80117913093E+02 -0.13023209696E+03  0.15734109822E+03  0.47000000000E+01 0.  1.
         -5    1    1    2    0  502  0.30941914912E+02  0.47985844756E+02 -0.95302438017E+02  0.11119661905E+03  0.47000000000E+01 0.  1.
        -11    1    3    3    0    0 -0.40912227224E+02  0.47673645231E+02 -0.23229617592E+02  0.66979115547E+02  0.00000000000E+00 0.  1.
         11    1    3    3    0    0 -0.26838003499E+02 -0.15541576894E+02 -0.91954859198E+02  0.97043882724E+02  0.00000000000E+00 0. -1.
<mgrwt>
<rscale>  0 0.13790193E+03</rscale>
<asrwt>0</asrwt>
<pdfrwt beam="1">  1        2 0.70647464E-02 0.14576241E+03</pdfrwt>
<pdfrwt beam="2">  1       -2 0.59483057E-01 0.14576241E+03</pdfrwt>
<totfact> 0.25911055E+03</totfact>
</mgrwt>
</event>
<event>
 7    1  0.1330601E-005  0.1368938E+03  0.7546771E-02  0.1229293E+00
          3   -1    0    0  501    0  0.00000000000E+00  0.00000000000E+00  0.32617815666E+02  0.32617815666E+02  0.00000000000E+00 0. -1.
         -3   -1    0    0    0  501 -0.00000000000E+00 -0.00000000000E+00 -0.10541477372E+04  0.10541477372E+04  0.00000000000E+00 0.  1.
         23    2    1    2    0    0  0.39137246869E+02 -0.39629957905E+02 -0.76027883057E+02  0.13140488138E+03  0.91568259737E+02 0.  0.
          5    1    1    2  502    0  0.14073987235E+02  0.59364495481E+01 -0.12673880761E+02  0.20396955740E+02  0.47000000000E+01 0. -1.
         -5    1    1    2    0  502 -0.53211234105E+02  0.33693508357E+02 -0.93282815774E+03  0.93496371577E+03  0.47000000000E+01 0. -1.
        -11    1    3    3    0    0  0.23394542973E+02 -0.32771191249E+02  0.11764959420E+02  0.41948419361E+02  0.00000000000E+00 0. -1.
         11    1    3    3    0    0  0.15742703897E+02 -0.68587666562E+01 -0.87792842477E+02  0.89456462015E+02  0.00000000000E+00 0.  1.
<mgrwt>
<rscale>  0 0.12876969E+03</rscale>
<asrwt>0</asrwt>
<pdfrwt beam="1">  1        3 0.50181262E-02 0.13689378E+03</pdfrwt>
<pdfrwt beam="2">  1       -3 0.16217655E+00 0.13689378E+03</pdfrwt>
<totfact> 0.14957305E+02</totfact>
</mgrwt>
</event>
<event>
 7    1  0.1330601E-005  0.2921144E+03  0.7546771E-02  0.1090641E+00
          1   -1    0    0  501    0  0.00000000000E+00  0.00000000000E+00  0.35242302222E+03  0.35242302222E+03  0.00000000000E+00 0. -1.
         -1   -1    0    0    0  501 -0.00000000000E+00 -0.00000000000E+00 -0.41074089543E+03  0.41074089543E+03  0.00000000000E+00 0.  1.
         23    2    1    2    0    0  0.97555955451E+02 -0.24866442946E+03  0.22180853340E+03  0.35843980562E+03  0.89044403757E+02 0.  0.
          5    1    1    2  502    0 -0.36397794521E+01 -0.80399109513E+01  0.36862438908E+01  0.10656761074E+02  0.47000000000E+01 0. -1.
         -5    1    1    2    0  502 -0.93916175999E+02  0.25670434041E+03 -0.28381265050E+03  0.39406735095E+03  0.47000000000E+01 0.  1.
        -11    1    3    3    0    0  0.81214880356E+02 -0.91128456394E+02  0.11248880169E+03  0.16599392417E+03  0.00000000000E+00 0. -1.
         11    1    3    3    0    0  0.16341075094E+02 -0.15753597306E+03  0.10931973171E+03  0.19244588144E+03  0.00000000000E+00 0.  1.
<mgrwt>
<rscale>  0 0.28944109E+03</rscale>
<asrwt>0</asrwt>
<pdfrwt beam="1">  1        1 0.54218926E-01 0.29211437E+03</pdfrwt>
<pdfrwt beam="2">  1       -1 0.63190907E-01 0.29211437E+03</pdfrwt>
<totfact> 0.18865888E+02</totfact>
</mgrwt>
</event>
<event>
 7    1  0.1330601E-005  0.1413027E+03  0.7546771E-02  0.1222947E+00
          1   -1    0    0  501    0  0.00000000000E+00  0.00000000000E+00  0.17766982969E+03  0.17766982969E+03  0.00000000000E+00 0. -1.
         -1   -1    0    0    0  501 -0.00000000000E+00 -0.00000000000E+00 -0.10189139289E+03  0.10189139289E+03  0.00000000000E+00 0.  1.
         23    2    1    2    0    0  0.65767174920E+02  0.41791442864E+01  0.81940118298E+02  0.13812426718E+03  0.89561954268E+02 0.  0.
          5    1    1    2  502    0  0.34643327634E+02  0.11377902591E+02  0.10791637971E+02  0.38316657827E+02  0.47000000000E+01 0. -1.
         -5    1    1    2    0  502 -0.10041050255E+03 -0.15557046878E+02 -0.16953319475E+02  0.10312029757E+03  0.47000000000E+01 0. -1.
        -11    1    3    3    0    0  0.81525685328E+02 -0.10053412610E+02  0.40553993198E+02  0.91608595872E+02  0.00000000000E+00 0.  1.
         11    1    3    3    0    0 -0.15758510408E+02  0.14232556896E+02  0.41386125100E+02  0.46515671304E+02  0.00000000000E+00 0. -1.
<mgrwt>
<rscale>  0 0.13308626E+03</rscale>
<asrwt>0</asrwt>
<pdfrwt beam="1">  1        1 0.27333820E-01 0.14130268E+03</pdfrwt>
<pdfrwt beam="2">  1       -1 0.15675599E-01 0.14130268E+03</pdfrwt>
<totfact> 0.48980746E+03</totfact>
</mgrwt>
</event>
<event>
 7    1  0.1330601E-005  0.3832819E+03  0.7546771E-02  0.1050725E+00
          2   -1    0    0  501    0  0.00000000000E+00  0.00000000000E+00  0.71600407008E+03  0.71600407008E+03  0.00000000000E+00 0.  1.
         -2   -1    0    0    0  501 -0.00000000000E+00 -0.00000000000E+00 -0.19969979964E+03  0.19969979964E+03  0.00000000000E+00 0. -1.
         23    2    1    2    0    0 -0.84450066316E+02  0.35234669968E+03  0.27047743934E+03  0.46036239476E+03  0.86576433536E+02 0.  0.
          5    1    1    2  502    0  0.37637044558E+02 -0.23491160988E+03  0.89478805133E+02  0.25422147460E+03  0.47000000000E+01 0. -1.
         -5    1    1    2    0  502  0.46813021757E+02 -0.11743508980E+03  0.15634802597E+03  0.20112000037E+03  0.47000000000E+01 0. -1.
        -11    1    3    3    0    0 -0.44970150866E+02  0.24096820907E+03  0.13231794662E+03  0.27856064196E+03  0.00000000000E+00 0. -1.
         11    1    3    3    0    0 -0.39479915449E+02  0.11137849061E+03  0.13815949271E+03  0.18180175280E+03  0.00000000000E+00 0.  1.
<mgrwt>
<rscale>  0 0.38056412E+03</rscale>
<asrwt>0</asrwt>
<pdfrwt beam="1">  1        2 0.11015447E+00 0.38328192E+03</pdfrwt>
<pdfrwt beam="2">  1       -2 0.30723046E-01 0.38328192E+03</pdfrwt>
<totfact> 0.39905577E+02</totfact>
</mgrwt>
</event>
<event>
 6    1  0.1330601E-005  0.3801795E+03  0.7546771E-02  0.1090721E+00
          1   -1    0    0  501    0  0.00000000000E+00  0.00000000000E+00  0.26336892723E+03  0.26336892723E+03  0.00000000000E+00 0.  1.
         -1   -1    0    0    0  501 -0.00000000000E+00 -0.00000000000E+00 -0.24505435530E+03  0.24505435530E+03  0.00000000000E+00 0. -1.
          5    1    1    2  502    0 -0.27660029208E+02  0.28664089451E+02  0.44234355406E+02  0.59711602207E+02  0.47000000000E+01 0.  1.
         -5    1    1    2    0  502  0.36218952585E+01 -0.61176416861E+02 -0.30257416534E+02  0.68507469378E+02  0.47000000000E+01 0. -1.
        -11    1    1    2    0    0  0.19051850329E+03  0.42437846836E+02 -0.55652952629E+02  0.20296680043E+03  0.00000000000E+00 0. -1.
         11    1    1    2    0    0 -0.16648036934E+03 -0.99255194257E+01  0.59990585687E+02  0.17723741051E+03  0.00000000000E+00 0.  1.
<mgrwt>
<rscale>  0 0.28928819E+03</rscale>
<asrwt>0</asrwt>
<pdfrwt beam="1">  1        1 0.40518297E-01 0.38017947E+03</pdfrwt>
<pdfrwt beam="2">  1       -1 0.37700670E-01 0.38017947E+03</pdfrwt>
<totfact> 0.71091432E+02</totfact>
</mgrwt>
</event>
<event>
 7    1  0.1330601E-005  0.1263276E+03  0.7546771E-02  0.1248366E+00
         -1   -1    0    0    0  501 -0.00000000000E+00  0.00000000000E+00  0.49322312144E+02  0.49322312144E+02  0.00000000000E+00 0.  1.
          1   -1    0    0  501    0  0.00000000000E+00 -0.00000000000E+00 -0.32089277936E+03  0.32089277936E+03  0.00000000000E+00 0. -1.
         23    2    1    2    0    0 -0.51814947157E+01 -0.17456131999E+02 -0.21043449715E+03  0.22987171155E+03  0.90701498054E+02 0.  0.
          5    1    1    2  502    0  0.15772825891E+01  0.51686484225E+02 -0.84002009587E+02  0.98754281358E+02  0.47000000000E+01 0. -1.
         -5    1    1    2    0  502  0.36042121267E+01 -0.34230352226E+02  0.22866039521E+02  0.41589098595E+02  0.47000000000E+01 0. -1.
        -11    1    3    3    0    0  0.81250410718E+01 -0.53376120870E+02 -0.11530196731E+03  0.12731681051E+03  0.00000000000E+00 0.  1.
         11    1    3    3    0    0 -0.13306535787E+02  0.35919988870E+02 -0.95132529838E+02  0.10255490105E+03  0.00000000000E+00 0. -1.
<mgrwt>
<rscale>  0 0.11686171E+03</rscale>
<asrwt>0</asrwt>
<pdfrwt beam="2">  1        1 0.49368121E-01 0.12632758E+03</pdfrwt>
<pdfrwt beam="1">  1       -1 0.75880478E-02 0.12632758E+03</pdfrwt>
<totfact> 0.71197165E+03</totfact>
</mgrwt>
</event>
<event>
 7    1  0.1330601E-005  0.1763286E+03  0.7546771E-02  0.1177693E+00
          2   -1    0    0  501    0  0.00000000000E+00  0.00000000000E+00  0.19541386582E+03  0.19541386582E+03  0.00000000000E+00 0. -1.
         -2   -1    0    0    0  501 -0.00000000000E+00 -0.00000000000E+00 -0.15686366188E+03  0.15686366188E+03  0.00000000000E+00 0.  1.
         23    2    1    2    0    0 -0.15853187106E+02 -0.12335245000E+03  0.77944076516E+02  0.17160200688E+03  0.88909050379E+02 0.  0.
          5    1    1    2  502    0 -0.15848743299E+00  0.12382685166E+03 -0.72522614522E+02  0.14357831984E+03  0.47000000000E+01 0. -1.
         -5    1    1    2    0  502  0.16011674539E+02 -0.47440166156E+00  0.33128741939E+02  0.37097200985E+02  0.47000000000E+01 0. -1.
        -11    1    3    3    0    0 -0.28437391557E+02 -0.43492880827E-01  0.20073390813E+02  0.34808449390E+02  0.00000000000E+00 0.  1.
         11    1    3    3    0    0  0.12584204451E+02 -0.12330895712E+03  0.57870685704E+02  0.13679355749E+03  0.00000000000E+00 0. -1.
<mgrwt>
<rscale>  0 0.17014882E+03</rscale>
<asrwt>0</asrwt>
<pdfrwt beam="1">  1        2 0.30063672E-01 0.17632858E+03</pdfrwt>
<pdfrwt beam="2">  1       -2 0.24132871E-01 0.17632858E+03</pdfrwt>
<totfact> 0.25949110E+03</totfact>
</mgrwt>
</event>
<event>
 7    1  0.1330601E-005  0.1360849E+03  0.7546771E-02  0.1231551E+00
          1   -1    0    0  501    0  0.00000000000E+00  0.00000000000E+00  0.11844394028E+03  0.11844394028E+03  0.00000000000E+00 0. -1.
         -1   -1    0    0    0  501 -0.00000000000E+00 -0.00000000000E+00 -0.13450887006E+03  0.13450887006E+03  0.00000000000E+00 0.  1.
         23    2    1    2    0    0  0.95285020743E+01  0.52949756587E+02  0.31504099440E+02  0.10879348775E+03  0.89157420446E+02 0.  0.
          5    1    1    2  502    0 -0.12263975694E+02 -0.93822344834E+02 -0.30404221039E+02  0.99496452937E+02  0.47000000000E+01 0. -1.
         -5    1    1    2    0  502  0.27354736194E+01  0.40872588247E+02 -0.17164808186E+02  0.44662869657E+02  0.47000000000E+01 0. -1.
        -11    1    3    3    0    0  0.24574597618E+02  0.33442557312E+02  0.58834406320E+02  0.71998630923E+02  0.00000000000E+00 0. -1.
         11    1    3    3    0    0 -0.15046095543E+02  0.19507199275E+02 -0.27330306880E+02  0.36794856826E+02  0.00000000000E+00 0.  1.
<mgrwt>
<rscale>  0 0.12727810E+03</rscale>
<asrwt>0</asrwt>
<pdfrwt beam="1">  1        1 0.18222145E-01 0.13608489E+03</pdfrwt>
<pdfrwt beam="2">  1       -1 0.20693672E-01 0.13608489E+03</pdfrwt>
<totfact> 0.52440681E+03</totfact>
</mgrwt>
</event>
<event>
 7    1  0.1330601E-005  0.1653796E+03  0.7546771E-02  0.1193467E+00
          2   -1    0    0  501    0  0.00000000000E+00  0.00000000000E+00  0.53443650539E+03  0.53443650539E+03  0.00000000000E+00 0. -1.
         -2   -1    0    0    0  501 -0.00000000000E+00 -0.00000000000E+00 -0.47966336674E+02  0.47966336674E+02  0.00000000000E+00 0.  1.
         23    2    1    2    0    0 -0.20542595381E+02 -0.87421777466E+02  0.32956977275E+03  0.35443758265E+03  0.94579064713E+02 0.  0.
          5    1    1    2  502    0 -0.42744082088E+02  0.90512246948E+01  0.10654025078E+03  0.11524710955E+03  0.47000000000E+01 0. -1.
         -5    1    1    2    0  502  0.63286677469E+02  0.78370552771E+02  0.50360145178E+02  0.11271814987E+03  0.47000000000E+01 0.  1.
        -11    1    3    3    0    0  0.20635905957E+02 -0.68677817088E+02  0.11797736493E+03  0.13806209404E+03  0.00000000000E+00 0.  1.
         11    1    3    3    0    0 -0.41178501337E+02 -0.18743960377E+02  0.21159240783E+03  0.21637548861E+03  0.00000000000E+00 0. -1.
<mgrwt>
<rscale>  0 0.15584713E+03</rscale>
<asrwt>0</asrwt>
<pdfrwt beam="1">  1        2 0.82220997E-01 0.16537964E+03</pdfrwt>
<pdfrwt beam="2">  1       -2 0.73794368E-02 0.16537964E+03</pdfrwt>
<totfact> 0.60200816E+03</totfact>
</mgrwt>
</event>
<event>
 7    1  0.1330601E-005  0.1545206E+03  0.7546771E-02  0.1203566E+00
          1   -1    0    0  501    0  0.00000000000E+00  0.00000000000E+00  0.75455642642E+02  0.75455642642E+02  0.00000000000E+00 0. -1.
         -1   -1    0    0    0  501 -0.00000000000E+00 -0.00000000000E+00 -0.63158939493E+03  0.63158939493E+03  0.00000000000E+00 0.  1.
         23    2    1    2    0    0  0.85717086153E+02  0.30057750474E+02  0.15615122649E+01  0.12833904144E+03  0.90650890872E+02 0.  0.
          5    1    1    2  502    0 -0.66836594096E+02 -0.74551407640E+02 -0.29511339898E+03  0.31167138295E+03  0.47000000000E+01 0. -1.
         -5    1    1    2    0  502 -0.18880492057E+02  0.44493657167E+02 -0.26258186558E+03  0.26703461318E+03  0.47000000000E+01 0. -1.
        -11    1    3    3    0    0  0.18518828905E+02 -0.31757993297E+02 -0.32496890902E+01  0.36906336061E+02  0.00000000000E+00 0.  1.
         11    1    3    3    0    0  0.67198257248E+02  0.61815743770E+02  0.48112013551E+01  0.91432705382E+02  0.00000000000E+00 0. -1.
<mgrwt>
<rscale>  0 0.14751001E+03</rscale>
<asrwt>0</asrwt>
<pdfrwt beam="1">  1        1 0.11608560E-01 0.15452062E+03</pdfrwt>
<pdfrwt beam="2">  1       -1 0.97167601E-01 0.15452062E+03</pdfrwt>
<totfact> 0.56253159E+02</totfact>
</mgrwt>
</event>
<event>
 7    1  0.1330601E-005  0.1625237E+03  0.7546771E-02  0.1193834E+00
         -2   -1    0    0    0  501 -0.00000000000E+00  0.00000000000E+00  0.10246559275E+03  0.10246559275E+03  0.00000000000E+00 0.  1.
          2   -1    0    0  501    0  0.00000000000E+00 -0.00000000000E+00 -0.21788937271E+03  0.21788937271E+03  0.00000000000E+00 0. -1.
         23    2    1    2    0    0 -0.99151415732E+02 -0.30946821315E+02 -0.52426336333E+02  0.14604882402E+03  0.88278135835E+02 0.  0.
          5    1    1    2  502    0  0.12531987011E+03  0.20872199727E+02 -0.69852834364E+02  0.14505939141E+03  0.47000000000E+01 0. -1.
         -5    1    1    2    0  502 -0.26168454381E+02  0.10074621588E+02  0.68553907340E+01  0.29246750024E+02  0.47000000000E+01 0. -1.
        -11    1    3    3    0    0 -0.68101187746E+02 -0.21497241574E+02 -0.77239379120E+02  0.10519422444E+03  0.00000000000E+00 0. -1.
         11    1    3    3    0    0 -0.31050227985E+02 -0.94495797405E+01  0.24813042787E+02  0.40854599589E+02  0.00000000000E+00 0.  1.
<mgrwt>
<rscale>  0 0.15553328E+03</rscale>
<asrwt>0</asrwt>
<pdfrwt beam="2">  1        2 0.33521442E-01 0.16252370E+03</pdfrwt>
<pdfrwt beam="1">  1       -2 0.15763937E-01 0.16252370E+03</pdfrwt>
<totfact> 0.47292038E+03</totfact>
</mgrwt>
</event>
<event>
 7    1  0.1330601E-005  0.2188779E+03  0.7546771E-02  0.1134722E+00
          1   -1    0    0  501    0  0.00000000000E+00  0.00000000000E+00  0.96222361012E+02  0.96222361012E+02  0.00000000000E+00 0. -1.
         -1   -1    0    0    0  501 -0.00000000000E+00 -0.00000000000E+00 -0.12447086097E+03  0.12447086097E+03  0.00000000000E+00 0.  1.
         23    2    1    2    0    0 -0.60412469258E+01  0.86860171292E+01 -0.13036250410E+02  0.94337630269E+02  0.92831573842E+02 0.  0.
          5    1    1    2  502    0 -0.17501622820E+01 -0.62900052393E+02 -0.29354148731E+02  0.69593359645E+02  0.47000000000E+01 0. -1.
         -5    1    1    2    0  502  0.77914092077E+01  0.54214035263E+02  0.14141899182E+02  0.56762232069E+02  0.47000000000E+01 0. -1.
        -11    1    3    3    0    0 -0.48704787912E+02  0.10365891804E+02 -0.13664221473E+02  0.51636411832E+02  0.00000000000E+00 0. -1.
         11    1    3    3    0    0  0.42663540986E+02 -0.16798746749E+01  0.62797106320E+00  0.42701218437E+02  0.00000000000E+00 0.  1.
<mgrwt>
<rscale>  0 0.21887787E+03</rscale>
<asrwt>0</asrwt>
<pdfrwt beam="1">  1        1 0.14803440E-01 0.21887787E+03</pdfrwt>
<pdfrwt beam="2">  1       -1 0.19149363E-01 0.21887787E+03</pdfrwt>
<totfact> 0.80206178E+03</totfact>
</mgrwt>
</event>
<event>
 7    1  0.1330601E-005  0.1426355E+03  0.7546771E-02  0.1220388E+00
         -1   -1    0    0    0  501 -0.00000000000E+00  0.00000000000E+00  0.44048595840E+03  0.44048595840E+03  0.00000000000E+00 0.  1.
          1   -1    0    0  501    0  0.00000000000E+00 -0.00000000000E+00 -0.47226471329E+02  0.47226471329E+02  0.00000000000E+00 0. -1.
         23    2    1    2    0    0 -0.67717477599E+02  0.11597591137E+02  0.68587124135E+02  0.13309004205E+03  0.91041775049E+02 0.  0.
          5    1    1    2  502    0  0.60069523785E+02  0.19980402450E+02  0.58155839674E+02  0.86091555091E+02  0.47000000000E+01 0.  1.
         -5    1    1    2    0  502  0.76479538143E+01 -0.31577993587E+02  0.26651652326E+03  0.26853083258E+03  0.47000000000E+01 0.  1.
        -11    1    3    3    0    0 -0.93899013078E+01  0.31699784750E+02 -0.87114630085E+01  0.34189708796E+02  0.00000000000E+00 0. -1.
         11    1    3    3    0    0 -0.58327576291E+02 -0.20102193613E+02  0.77298587144E+02  0.98900333258E+02  0.00000000000E+00 0.  1.
<mgrwt>
<rscale>  0 0.13488085E+03</rscale>
<asrwt>0</asrwt>
<pdfrwt beam="2">  1        1 0.72656113E-02 0.14263553E+03</pdfrwt>
<pdfrwt beam="1">  1       -1 0.67767068E-01 0.14263553E+03</pdfrwt>
<totfact> 0.22067735E+03</totfact>
</mgrwt>
</event>
<event>
 7    1  0.1330601E-005  0.1441695E+03  0.7546771E-02  0.1217951E+00
         -4   -1    0    0    0  501 -0.00000000000E+00  0.00000000000E+00  0.34212032604E+03  0.34212032604E+03  0.00000000000E+00 0.  1.
          4   -1    0    0  501    0  0.00000000000E+00 -0.00000000000E+00 -0.69211902059E+02  0.69211902059E+02  0.00000000000E+00 0. -1.
         23    2    1    2    0    0  0.13627989786E+02  0.70529587940E+02  0.16847063188E+02  0.11747468616E+03  0.91412983051E+02 0.  0.
          5    1    1    2  502    0  0.46918217527E+02 -0.35278619836E+02  0.18420375579E+03  0.19338824628E+03  0.47000000000E+01 0. -1.
         -5    1    1    2    0  502 -0.60546207313E+02 -0.35250968104E+02  0.71857605005E+02  0.10046929565E+03  0.47000000000E+01 0. -1.
        -11    1    3    3    0    0 -0.14948525550E+02 -0.16042527560E+02 -0.73932826466E+01  0.23140478278E+02  0.00000000000E+00 0.  1.
         11    1    3    3    0    0  0.28576515336E+02  0.86572115500E+02  0.24240345834E+02  0.94334207884E+02  0.00000000000E+00 0. -1.
<mgrwt>
<rscale>  0 0.13661957E+03</rscale>
<asrwt>0</asrwt>
<pdfrwt beam="2">  1        4 0.10647985E-01 0.14416946E+03</pdfrwt>
<pdfrwt beam="1">  1       -4 0.52633895E-01 0.14416946E+03</pdfrwt>
<totfact> 0.40000210E+02</totfact>
</mgrwt>
</event>
<event>
 7    1  0.1330601E-005  0.1365400E+03  0.7546771E-02  0.1229395E+00
         -2   -1    0    0    0  501 -0.00000000000E+00  0.00000000000E+00  0.65669156327E+02  0.65669156327E+02  0.00000000000E+00 0.  1.
          2   -1    0    0  501    0  0.00000000000E+00 -0.00000000000E+00 -0.24593617004E+03  0.24593617004E+03  0.00000000000E+00 0. -1.
         23    2    1    2    0    0 -0.54892805640E+02  0.22089778697E+01 -0.12299555647E+03  0.16354051709E+03  0.92733457426E+02 0.  0.
          5    1    1    2  502    0  0.21326835076E+01 -0.42450274957E+02  0.19056994966E+02  0.46817018701E+02  0.47000000000E+01 0.  1.
         -5    1    1    2    0  502  0.52760122132E+02  0.40241297088E+02 -0.76328452213E+02  0.10124779057E+03  0.47000000000E+01 0.  1.
        -11    1    3    3    0    0 -0.58415853130E+02  0.35506138078E+02 -0.54966062999E+02  0.87717534277E+02  0.00000000000E+00 0. -1.
         11    1    3    3    0    0  0.35230474896E+01 -0.33297160208E+02 -0.68029493467E+02  0.75822982815E+02  0.00000000000E+00 0.  1.
<mgrwt>
<rscale>  0 0.12870174E+03</rscale>
<asrwt>0</asrwt>
<pdfrwt beam="2">  1        2 0.37836333E-01 0.13653999E+03</pdfrwt>
<pdfrwt beam="1">  1       -2 0.10102947E-01 0.13653999E+03</pdfrwt>
<totfact> 0.84039351E+03</totfact>
</mgrwt>
</event>
<event>
 7    1  0.1330601E-005  0.1663624E+03  0.7546771E-02  0.1186126E+00
         -2   -1    0    0    0  501 -0.00000000000E+00  0.00000000000E+00  0.18424507067E+02  0.18424507067E+02  0.00000000000E+00 0.  1.
          2   -1    0    0  501    0  0.00000000000E+00 -0.00000000000E+00 -0.13797657844E+04  0.13797657844E+04  0.00000000000E+00 0. -1.
         23    2    1    2    0    0 -0.37707447184E+02 -0.10310452534E+03 -0.57276282640E+03  0.59225454666E+03  0.10322692487E+03 0.  0.
          5    1    1    2  502    0 -0.38932717415E+01  0.11441616672E+03 -0.44015492199E+03  0.45482377040E+03  0.47000000000E+01 0. -1.
         -5    1    1    2    0  502  0.41600718926E+02 -0.11311641382E+02 -0.34842352895E+03  0.35111197441E+03  0.47000000000E+01 0. -1.
        -11    1    3    3    0    0  0.21363775796E+02 -0.16795708755E+02 -0.34463286532E+02  0.43888778378E+02  0.00000000000E+00 0.  1.
         11    1    3    3    0    0 -0.59071222981E+02 -0.86308816586E+02 -0.53829953986E+03  0.54836576828E+03  0.00000000000E+00 0. -1.
<mgrwt>
<rscale>  0 0.16229839E+03</rscale>
<asrwt>0</asrwt>
<pdfrwt beam="2">  1        2 0.21227173E+00 0.16636241E+03</pdfrwt>
<pdfrwt beam="1">  1       -2 0.28345386E-02 0.16636241E+03</pdfrwt>
<totfact> 0.71988434E+03</totfact>
</mgrwt>
</event>
<event>
 7    1  0.1330601E-005  0.1250055E+03  0.7546771E-02  0.1250355E+00
         -2   -1    0    0    0  501 -0.00000000000E+00  0.00000000000E+00  0.23532067929E+02  0.23532067929E+02  0.00000000000E+00 0.  1.
          2   -1    0    0  501    0  0.00000000000E+00 -0.00000000000E+00 -0.55142596126E+03  0.55142596126E+03  0.00000000000E+00 0. -1.
         23    2    1    2    0    0 -0.64822846411E+00  0.67330725548E+00 -0.31485617268E+03  0.32795310231E+03  0.91749410307E+02 0.  0.
          5    1    1    2  502    0 -0.46596306295E+02  0.40500893979E+02 -0.11344971947E+03  0.12924576210E+03  0.47000000000E+01 0. -1.
         -5    1    1    2    0  502  0.47244534759E+02 -0.41174201234E+02 -0.99588001175E+02  0.11775916478E+03  0.47000000000E+01 0. -1.
        -11    1    3    3    0    0 -0.41005158077E+02  0.13289517230E+02 -0.21875300259E+03  0.22295943666E+03  0.00000000000E+00 0. -1.
         11    1    3    3    0    0  0.40356929613E+02 -0.12616209975E+02 -0.96103170098E+02  0.10499366564E+03  0.00000000000E+00 0.  1.
<mgrwt>
<rscale>  0 0.11570528E+03</rscale>
<asrwt>0</asrwt>
<pdfrwt beam="2">  1        2 0.84834755E-01 0.12500545E+03</pdfrwt>
<pdfrwt beam="1">  1       -2 0.36203185E-02 0.12500545E+03</pdfrwt>
<totfact> 0.16693954E+04</totfact>
</mgrwt>
</event>
<event>
 7    1  0.1330601E-005  0.1428073E+03  0.7546771E-02  0.1218062E+00
         -1   -1    0    0    0  501 -0.00000000000E+00  0.00000000000E+00  0.35267743395E+02  0.35267743395E+02  0.00000000000E+00 0.  1.
          1   -1    0    0  501    0  0.00000000000E+00 -0.00000000000E+00 -0.64939479146E+03  0.64939479146E+03  0.00000000000E+00 0. -1.
         23    2    1    2    0    0  0.72084456137E+02 -0.16954030480E+02 -0.45704533224E+03  0.47236889271E+03  0.93585934373E+02 0.  0.
          5    1    1    2  502    0 -0.31003492436E+02  0.31284485173E+02 -0.16228697948E+03  0.16822333151E+03  0.47000000000E+01 0. -1.
         -5    1    1    2    0  502 -0.41080963701E+02 -0.14330454692E+02  0.52052636480E+01  0.44070310641E+02  0.47000000000E+01 0.  1.
        -11    1    3    3    0    0  0.49342164260E+02 -0.55640214247E+02 -0.27574272543E+03  0.28559505115E+03  0.00000000000E+00 0. -1.
         11    1    3    3    0    0  0.22742291878E+02  0.38686183767E+02 -0.18130260681E+03  0.18677384156E+03  0.00000000000E+00 0.  1.
<mgrwt>
<rscale>  0 0.13653970E+03</rscale>
<asrwt>0</asrwt>
<pdfrwt beam="2">  1        1 0.99906878E-01 0.14280730E+03</pdfrwt>
<pdfrwt beam="1">  1       -1 0.54258074E-02 0.14280730E+03</pdfrwt>
<totfact> 0.47514583E+03</totfact>
</mgrwt>
</event>
<event>
 7    1  0.1330601E-005  0.1498432E+03  0.7546771E-02  0.1209169E+00
          2   -1    0    0  501    0  0.00000000000E+00  0.00000000000E+00  0.24866505717E+03  0.24866505717E+03  0.00000000000E+00 0. -1.
         -2   -1    0    0    0  501 -0.00000000000E+00 -0.00000000000E+00 -0.82050446093E+02  0.82050446093E+02  0.00000000000E+00 0.  1.
         23    2    1    2    0    0 -0.74548248225E+02 -0.35638492770E+02  0.12168614889E+03  0.17428167487E+03  0.93482832016E+02 0.  0.
          5    1    1    2  502    0  0.63228896228E+02 -0.38751198962E+02  0.25716115443E+02  0.78631783222E+02  0.47000000000E+01 0.  1.
         -5    1    1    2    0  502  0.11319351997E+02  0.74389691732E+02  0.19212346739E+02  0.77802045171E+02  0.47000000000E+01 0.  1.
        -11    1    3    3    0    0 -0.79338079134E+02 -0.58579713262E+01  0.12012332007E+03  0.14407796033E+03  0.00000000000E+00 0. -1.
         11    1    3    3    0    0  0.47898309086E+01 -0.29780521444E+02  0.15628288184E+01  0.30203714532E+02  0.00000000000E+00 0.  1.
<mgrwt>
<rscale>  0 0.14313699E+03</rscale>
<asrwt>0</asrwt>
<pdfrwt beam="1">  1        2 0.38256162E-01 0.14984317E+03</pdfrwt>
<pdfrwt beam="2">  1       -2 0.12623146E-01 0.14984317E+03</pdfrwt>
<totfact> 0.58646022E+03</totfact>
</mgrwt>
</event>
<event>
 7    1  0.1330601E-005  0.2374312E+03  0.7546771E-02  0.1121516E+00
         -2   -1    0    0    0  501 -0.00000000000E+00  0.00000000000E+00  0.12732730735E+02  0.12732730735E+02  0.00000000000E+00 0.  1.
          2   -1    0    0  501    0  0.00000000000E+00 -0.00000000000E+00 -0.11068634156E+04  0.11068634156E+04  0.00000000000E+00 0. -1.
         23    2    1    2    0    0 -0.78441266086E+01 -0.31848313470E+02 -0.53046243473E+03  0.53942731891E+03  0.92279967154E+02 0.  0.
          5    1    1    2  502    0 -0.32971460704E+02 -0.38122294012E+02 -0.30185501695E+03  0.30607020073E+03  0.47000000000E+01 0. -1.
         -5    1    1    2    0  502  0.40815587312E+02  0.69970607482E+02 -0.26181323320E+03  0.27409862669E+03  0.47000000000E+01 0.  1.
        -11    1    3    3    0    0  0.16676713052E+02  0.28337808600E+02 -0.16900843281E+03  0.17217721834E+03  0.00000000000E+00 0.  1.
         11    1    3    3    0    0 -0.24520839660E+02 -0.60186122070E+02 -0.36145400192E+03  0.36725010057E+03  0.00000000000E+00 0. -1.
<mgrwt>
<rscale>  0 0.23743120E+03</rscale>
<asrwt>0</asrwt>
<pdfrwt beam="2">  1        2 0.17028668E+00 0.23743120E+03</pdfrwt>
<pdfrwt beam="1">  1       -2 0.19588816E-02 0.23743120E+03</pdfrwt>
<totfact> 0.17878433E+04</totfact>
</mgrwt>
</event>
<event>
 7    1  0.1330601E-005  0.1515855E+03  0.7546771E-02  0.1207537E+00
          3   -1    0    0  501    0  0.00000000000E+00  0.00000000000E+00  0.10667061753E+03  0.10667061753E+03  0.00000000000E+00 0. -1.
         -3   -1    0    0    0  501 -0.00000000000E+00 -0.00000000000E+00 -0.20451023820E+03  0.20451023820E+03  0.00000000000E+00 0.  1.
         23    2    1    2    0    0  0.38849089511E+02  0.76435274147E+02  0.99241867418E+01  0.12519374681E+03  0.90682864241E+02 0.  0.
          5    1    1    2  502    0  0.13052376936E+02  0.21633360972E+02 -0.59662614602E+02  0.64962176932E+02  0.47000000000E+01 0. -1.
         -5    1    1    2    0  502 -0.51901466447E+02 -0.98068635119E+02 -0.48101192816E+02  0.12102493199E+03  0.47000000000E+01 0. -1.
        -11    1    3    3    0    0  0.42424291054E+01  0.85278717921E+02 -0.69955514357E+01  0.85670272993E+02  0.00000000000E+00 0. -1.
         11    1    3    3    0    0  0.34606660405E+02 -0.88434437736E+01  0.16919738178E+02  0.39523473812E+02  0.00000000000E+00 0.  1.
<mgrwt>
<rscale>  0 0.14439319E+03</rscale>
<asrwt>0</asrwt>
<pdfrwt beam="1">  1        3 0.16410864E-01 0.15158551E+03</pdfrwt>
<pdfrwt beam="2">  1       -3 0.31463113E-01 0.15158551E+03</pdfrwt>
<totfact> 0.73318968E+02</totfact>
</mgrwt>
</event>
<event>
 7    1  0.1330601E-005  0.2381234E+03  0.7546771E-02  0.1123975E+00
         -1   -1    0    0    0  501 -0.00000000000E+00  0.00000000000E+00  0.14027887517E+03  0.14027887517E+03  0.00000000000E+00 0.  1.
          1   -1    0    0  501    0  0.00000000000E+00 -0.00000000000E+00 -0.38905699875E+03  0.38905699875E+03  0.00000000000E+00 0. -1.
         23    2    1    2    0    0 -0.18634443839E+03  0.79724621862E+02 -0.16787186101E+03  0.27784315265E+03  0.89081932558E+02 0.  0.
          5    1    1    2  502    0  0.14669136383E+03 -0.67731626498E+02 -0.11438663463E+03  0.19802101311E+03  0.47000000000E+01 0. -1.
         -5    1    1    2    0  502  0.39653074561E+02 -0.11992995363E+02  0.33480372058E+02  0.53471708155E+02  0.47000000000E+01 0. -1.
        -11    1    3    3    0    0 -0.31867490921E+02  0.11580179239E+02  0.71555502518E+01  0.34653130136E+02  0.00000000000E+00 0.  1.
         11    1    3    3    0    0 -0.15447694747E+03  0.68144442622E+02 -0.17502741126E+03  0.24319002252E+03  0.00000000000E+00 0. -1.
<mgrwt>
<rscale>  0 0.23382646E+03</rscale>
<asrwt>0</asrwt>
<pdfrwt beam="2">  1        1 0.59854922E-01 0.23812342E+03</pdfrwt>
<pdfrwt beam="1">  1       -1 0.21581366E-01 0.23812342E+03</pdfrwt>
<totfact> 0.11171094E+03</totfact>
</mgrwt>
</event>
<event>
 7    1  0.1330601E-005  0.1472953E+03  0.7546771E-02  0.1213323E+00
          1   -1    0    0  501    0  0.00000000000E+00  0.00000000000E+00  0.71177058307E+03  0.71177058307E+03  0.00000000000E+00 0. -1.
         -1   -1    0    0    0  501 -0.00000000000E+00 -0.00000000000E+00 -0.41900432843E+02  0.41900432843E+02  0.00000000000E+00 0.  1.
         23    2    1    2    0    0 -0.32478438652E+02  0.70827331503E+02  0.55222269714E+03  0.56515887603E+03  0.91560297336E+02 0.  0.
          5    1    1    2  502    0  0.82250054120E+01 -0.55865879497E+02  0.14062068035E+03  0.15160776019E+03  0.47000000000E+01 0. -1.
         -5    1    1    2    0  502  0.24253433240E+02 -0.14961452005E+02 -0.22973227266E+02  0.36904379700E+02  0.47000000000E+01 0. -1.
        -11    1    3    3    0    0 -0.61087940920E+02  0.38992753226E+02  0.41924490078E+03  0.42546264015E+03  0.00000000000E+00 0. -1.
         11    1    3    3    0    0  0.28609502267E+02  0.31834578277E+02  0.13297779636E+03  0.13969623588E+03  0.00000000000E+00 0.  1.
<mgrwt>
<rscale>  0 0.14000469E+03</rscale>
<asrwt>0</asrwt>
<pdfrwt beam="1">  1        1 0.10950316E+00 0.14729529E+03</pdfrwt>
<pdfrwt beam="2">  1       -1 0.64462209E-02 0.14729529E+03</pdfrwt>
<totfact> 0.32302554E+03</totfact>
</mgrwt>
</event>
<event>
 7    1  0.1330601E-005  0.1281177E+03  0.7546771E-02  0.1244831E+00
         -2   -1    0    0    0  501 -0.00000000000E+00  0.00000000000E+00  0.87827771978E+03  0.87827771978E+03  0.00000000000E+00 0. -1.
          2   -1    0    0  501    0  0.00000000000E+00 -0.00000000000E+00 -0.25930460250E+02  0.25930460250E+02  0.00000000000E+00 0.  1.
         23    2    1    2    0    0  0.27416163062E+02  0.61127420307E+01  0.89491915558E+02  0.13066928413E+03  0.90976080659E+02 0.  0.
          5    1    1    2  502    0  0.17518062891E+02 -0.41737839621E+02  0.58144660661E+03  0.58322480754E+03  0.47000000000E+01 0. -1.
         -5    1    1    2    0  502 -0.44934225953E+02  0.35625097591E+02  0.18140873736E+03  0.19031408836E+03  0.47000000000E+01 0. -1.
        -11    1    3    3    0    0  0.24890627215E+02 -0.20401177730E+02  0.97647772487E+02  0.10281458480E+03  0.00000000000E+00 0. -1.
         11    1    3    3    0    0  0.25255358471E+01  0.26513919761E+02 -0.81558569293E+01  0.27854699328E+02  0.00000000000E+00 0.  1.
<mgrwt>
<rscale>  0 0.11895475E+03</rscale>
<asrwt>0</asrwt>
<pdfrwt beam="2">  1        2 0.39893023E-02 0.12811771E+03</pdfrwt>
<pdfrwt beam="1">  1       -2 0.13511963E+00 0.12811771E+03</pdfrwt>
<totfact> 0.85311050E+02</totfact>
</mgrwt>
</event>
<event>
 7    1  0.1330601E-005  0.1269164E+03  0.7546771E-02  0.1246570E+00
          2   -1    0    0  501    0  0.00000000000E+00  0.00000000000E+00  0.10684966359E+03  0.10684966359E+03  0.00000000000E+00 0. -1.
         -2   -1    0    0    0  501 -0.00000000000E+00 -0.00000000000E+00 -0.14252399183E+03  0.14252399183E+03  0.00000000000E+00 0.  1.
         23    2    1    2    0    0  0.21289868479E+02 -0.53958633625E+01  0.38794161014E+02  0.10222293372E+03  0.91990039727E+02 0.  0.
          5    1    1    2  502    0 -0.12877074518E+02 -0.33241902053E+02 -0.95551061781E+02  0.10209279361E+03  0.47000000000E+01 0. -1.
         -5    1    1    2    0  502 -0.84127939613E+01  0.38637765416E+02  0.21082572536E+02  0.45057928085E+02  0.47000000000E+01 0. -1.
        -11    1    3    3    0    0  0.35234767084E+02  0.29118828412E+02 -0.35439212926E+01  0.45847075781E+02  0.00000000000E+00 0.  1.
         11    1    3    3    0    0 -0.13944898605E+02 -0.34514691775E+02  0.42338082306E+02  0.56375857942E+02  0.00000000000E+00 0. -1.
<mgrwt>
<rscale>  0 0.11791882E+03</rscale>
<asrwt>0</asrwt>
<pdfrwt beam="1">  1        2 0.16438410E-01 0.12691643E+03</pdfrwt>
<pdfrwt beam="2">  1       -2 0.21926768E-01 0.12691643E+03</pdfrwt>
<totfact> 0.59173888E+03</totfact>
</mgrwt>
</event>
<event>
 7    1  0.1330601E-005  0.2047484E+03  0.7546771E-02  0.1150149E+00
          1   -1    0    0  501    0  0.00000000000E+00  0.00000000000E+00  0.40757595782E+03  0.40757595782E+03  0.00000000000E+00 0. -1.
         -1   -1    0    0    0  501 -0.00000000000E+00 -0.00000000000E+00 -0.93779979974E+02  0.93779979974E+02  0.00000000000E+00 0.  1.
         23    2    1    2    0    0  0.26193604766E+02 -0.16002987922E+03  0.17189734868E+03  0.25224325473E+03  0.88217310647E+02 0.  0.
          5    1    1    2  502    0 -0.39911134031E+02  0.16339413316E+03  0.81603704032E+02  0.18700747547E+03  0.47000000000E+01 0. -1.
         -5    1    1    2    0  502  0.13717529265E+02 -0.33642539365E+01  0.60294925125E+02  0.62105207588E+02  0.47000000000E+01 0. -1.
        -11    1    3    3    0    0 -0.19197820001E+02 -0.11245222864E+03  0.13534604537E+03  0.17701020314E+03  0.00000000000E+00 0.  1.
         11    1    3    3    0    0  0.45391424767E+02 -0.47577650585E+02  0.36551303310E+02  0.75233051588E+02  0.00000000000E+00 0. -1.
<mgrwt>
<rscale>  0 0.19951456E+03</rscale>
<asrwt>0</asrwt>
<pdfrwt beam="1">  1        1 0.62703993E-01 0.20474840E+03</pdfrwt>
<pdfrwt beam="2">  1       -1 0.14427689E-01 0.20474840E+03</pdfrwt>
<totfact> 0.20055486E+03</totfact>
</mgrwt>
</event>
<event>
 7    1  0.1330601E-005  0.2515828E+03  0.7546771E-02  0.1114674E+00
          1   -1    0    0  501    0  0.00000000000E+00  0.00000000000E+00  0.63554544356E+02  0.63554544356E+02  0.00000000000E+00 0. -1.
         -1   -1    0    0    0  501 -0.00000000000E+00 -0.00000000000E+00 -0.99246484548E+03  0.99246484548E+03  0.00000000000E+00 0.  1.
         23    2    1    2    0    0 -0.13851299215E+03 -0.16877202980E+03 -0.32866962636E+03  0.40518701524E+03  0.92102915188E+02 0.  0.
          5    1    1    2  502    0  0.23483482537E+02 -0.10151151610E+02 -0.19992902699E+02  0.32807407538E+02  0.47000000000E+01 0.  1.
         -5    1    1    2    0  502  0.11502950961E+03  0.17892318141E+03 -0.58024777206E+03  0.61802496706E+03  0.47000000000E+01 0.  1.
        -11    1    3    3    0    0 -0.34316602043E+02 -0.11260461481E+03 -0.14646621129E+03  0.18790896600E+03  0.00000000000E+00 0.  1.
         11    1    3    3    0    0 -0.10419639011E+03 -0.56167414992E+02 -0.18220341507E+03  0.21727804924E+03  0.00000000000E+00 0. -1.
<mgrwt>
<rscale>  0 0.24784613E+03</rscale>
<asrwt>0</asrwt>
<pdfrwt beam="1">  1        1 0.97776225E-02 0.25158281E+03</pdfrwt>
<pdfrwt beam="2">  1       -1 0.15268690E+00 0.25158281E+03</pdfrwt>
<totfact> 0.23923735E+02</totfact>
</mgrwt>
</event>
<event>
 7    1  0.1330601E-005  0.1421036E+03  0.7546771E-02  0.1221580E+00
          1   -1    0    0  501    0  0.00000000000E+00  0.00000000000E+00  0.22390680125E+02  0.22390680125E+02  0.00000000000E+00 0. -1.
         -1   -1    0    0    0  501 -0.00000000000E+00 -0.00000000000E+00 -0.73399020971E+03  0.73399020971E+03  0.00000000000E+00 0.  1.
         23    2    1    2    0    0 -0.33369522988E+02 -0.58763103379E+02 -0.35938128980E+03  0.37657683066E+03  0.89936480643E+02 0.  0.
          5    1    1    2  502    0 -0.21673062012E+02  0.32798756252E+02 -0.28982954701E+03  0.29252134341E+03  0.47000000000E+01 0.  1.
         -5    1    1    2    0  502  0.55042585001E+02  0.25964347127E+02 -0.62388692779E+02  0.87282715769E+02  0.47000000000E+01 0.  1.
        -11    1    3    3    0    0 -0.12921232894E+01  0.23436157809E+02 -0.58784802935E+02  0.63297520738E+02  0.00000000000E+00 0. -1.
         11    1    3    3    0    0 -0.32077399699E+02 -0.82199261189E+02 -0.30059648686E+03  0.31327930992E+03  0.00000000000E+00 0.  1.
<mgrwt>
<rscale>  0 0.13404093E+03</rscale>
<asrwt>0</asrwt>
<pdfrwt beam="1">  1        1 0.34447201E-02 0.14210361E+03</pdfrwt>
<pdfrwt beam="2">  1       -1 0.11292157E+00 0.14210361E+03</pdfrwt>
<totfact> 0.20813280E+03</totfact>
</mgrwt>
</event>
<event>
 7    1  0.1330601E-005  0.1384249E+03  0.7546771E-02  0.1227119E+00
         -2   -1    0    0    0  501 -0.00000000000E+00  0.00000000000E+00  0.16520912466E+03  0.16520912466E+03  0.00000000000E+00 0.  1.
          2   -1    0    0  501    0  0.00000000000E+00 -0.00000000000E+00 -0.10095213094E+03  0.10095213094E+03  0.00000000000E+00 0. -1.
         23    2    1    2    0    0  0.99926114956E+01  0.58666447477E+02 -0.10324217986E+02  0.10892317696E+03  0.90642510214E+02 0.  0.
          5    1    1    2  502    0 -0.33884191135E+02 -0.91273672353E+02  0.48201778537E+02  0.10874062317E+03  0.47000000000E+01 0.  1.
         -5    1    1    2    0  502  0.23891579640E+02  0.32607224876E+02  0.26379433170E+02  0.48497455460E+02  0.47000000000E+01 0.  1.
        -11    1    3    3    0    0 -0.27834674285E+02  0.49927667949E+02  0.19034980775E+02  0.60248415850E+02  0.00000000000E+00 0.  1.
         11    1    3    3    0    0  0.37827285780E+02  0.87387795285E+01 -0.29359198762E+02  0.48674761110E+02  0.00000000000E+00 0. -1.
<mgrwt>
<rscale>  0 0.13022694E+03</rscale>
<asrwt>0</asrwt>
<pdfrwt beam="2">  1        2 0.15531097E-01 0.13842491E+03</pdfrwt>
<pdfrwt beam="1">  1       -2 0.25416788E-01 0.13842491E+03</pdfrwt>
<totfact> 0.49239773E+03</totfact>
</mgrwt>
</event>
<event>
 7    1  0.1330601E-005  0.1484834E+03  0.7546771E-02  0.1211337E+00
         -1   -1    0    0    0  501 -0.00000000000E+00  0.00000000000E+00  0.13052296178E+03  0.13052296178E+03  0.00000000000E+00 0.  1.
          1   -1    0    0  501    0  0.00000000000E+00 -0.00000000000E+00 -0.15138352994E+03  0.15138352994E+03  0.00000000000E+00 0. -1.
         23    2    1    2    0    0  0.68867653205E+02  0.40991913322E+02 -0.47001030354E+02  0.13113960301E+03  0.92549489497E+02 0.  0.
          5    1    1    2  502    0  0.23538677779E+02 -0.36212808576E+02  0.37541961709E+02  0.57418862280E+02  0.47000000000E+01 0.  1.
         -5    1    1    2    0  502 -0.92406330984E+02 -0.47791047455E+01 -0.11401499515E+02  0.93348026435E+02  0.47000000000E+01 0.  1.
        -11    1    3    3    0    0 -0.10648865569E+02  0.39889243128E+02 -0.61666478601E+01  0.41744192423E+02  0.00000000000E+00 0. -1.
         11    1    3    3    0    0  0.79516518774E+02  0.11026701942E+01 -0.40834382494E+02  0.89395410582E+02  0.00000000000E+00 0.  1.
<mgrwt>
<rscale>  0 0.14149082E+03</rscale>
<asrwt>0</asrwt>
<pdfrwt beam="2">  1        1 0.23289774E-01 0.14848344E+03</pdfrwt>
<pdfrwt beam="1">  1       -1 0.20080456E-01 0.14848344E+03</pdfrwt>
<totfact> 0.40506395E+03</totfact>
</mgrwt>
</event>
<event>
 7    1  0.1330601E-005  0.1544772E+03  0.7546771E-02  0.1205696E+00
          1   -1    0    0  501    0  0.00000000000E+00  0.00000000000E+00  0.18110996490E+03  0.18110996490E+03  0.00000000000E+00 0. -1.
         -1   -1    0    0    0  501 -0.00000000000E+00 -0.00000000000E+00 -0.11262901810E+03  0.11262901810E+03  0.00000000000E+00 0.  1.
         23    2    1    2    0    0  0.28097475940E+02 -0.86307517642E+02  0.65861419470E+02  0.13923952524E+03  0.82531588242E+02 0.  0.
          5    1    1    2  502    0  0.12264869580E+02  0.44689847605E+02 -0.55375616904E+02  0.72361304937E+02  0.47000000000E+01 0.  1.
         -5    1    1    2    0  502 -0.40362345520E+02  0.41617670037E+02  0.57995144230E+02  0.82138152825E+02  0.47000000000E+01 0.  1.
        -11    1    3    3    0    0 -0.86780103084E+01 -0.82318869983E+02  0.30939641751E+02  0.88368352083E+02  0.00000000000E+00 0.  1.
         11    1    3    3    0    0  0.36775486248E+02 -0.39886476588E+01  0.34921777719E+02  0.50871173153E+02  0.00000000000E+00 0. -1.
<mgrwt>
<rscale>  0 0.14582775E+03</rscale>
<asrwt>0</asrwt>
<pdfrwt beam="1">  1        1 0.27863072E-01 0.15447725E+03</pdfrwt>
<pdfrwt beam="2">  1       -1 0.17327541E-01 0.15447725E+03</pdfrwt>
<totfact> 0.41015941E+03</totfact>
</mgrwt>
</event>
<event>
 7    1  0.1330601E-005  0.2391333E+03  0.7546771E-02  0.1123108E+00
         -2   -1    0    0    0  501 -0.00000000000E+00  0.00000000000E+00  0.40971460329E+03  0.40971460329E+03  0.00000000000E+00 0.  1.
          2   -1    0    0  501    0  0.00000000000E+00 -0.00000000000E+00 -0.17439062690E+03  0.17439062690E+03  0.00000000000E+00 0. -1.
         23    2    1    2    0    0  0.10961177192E+03 -0.17187661396E+03 -0.31758664222E+02  0.22561135108E+03  0.91299277191E+02 0.  0.
          5    1    1    2  502    0 -0.95953116391E+02  0.36186919729E+02  0.11692268162E+03  0.15559401396E+03  0.47000000000E+01 0. -1.
         -5    1    1    2    0  502 -0.13658655527E+02  0.13568969423E+03  0.15015995899E+03  0.20289986514E+03  0.47000000000E+01 0. -1.
        -11    1    3    3    0    0  0.29195942078E+02 -0.10010578745E+03  0.19782727227E+02  0.10613636517E+03  0.00000000000E+00 0.  1.
         11    1    3    3    0    0  0.80415829840E+02 -0.71770826505E+02 -0.51541391448E+02  0.11947498591E+03  0.00000000000E+00 0. -1.
<mgrwt>
<rscale>  0 0.23508977E+03</rscale>
<asrwt>0</asrwt>
<pdfrwt beam="2">  1        2 0.26829327E-01 0.23913328E+03</pdfrwt>
<pdfrwt beam="1">  1       -2 0.63033016E-01 0.23913328E+03</pdfrwt>
<totfact> 0.47499269E+02</totfact>
</mgrwt>
</event>
<event>
 7    1  0.1330601E-005  0.3451908E+03  0.7546771E-02  0.1065763E+00
          1   -1    0    0  501    0  0.00000000000E+00  0.00000000000E+00  0.28502564969E+03  0.28502564969E+03  0.00000000000E+00 0. -1.
         -1   -1    0    0    0  501 -0.00000000000E+00 -0.00000000000E+00 -0.48723114920E+03  0.48723114920E+03  0.00000000000E+00 0.  1.
         23    2    1    2    0    0 -0.13811008966E+03 -0.29061512184E+03  0.58875230532E+02  0.33945219803E+03  0.90719105304E+02 0.  0.
          5    1    1    2  502    0  0.29405970578E+02  0.15035196256E+03 -0.18345463607E+03  0.23905672391E+03  0.47000000000E+01 0.  1.
         -5    1    1    2    0  502  0.10870411909E+03  0.14026315928E+03 -0.77626093972E+02  0.19374787695E+03  0.47000000000E+01 0.  1.
        -11    1    3    3    0    0 -0.88826006686E+02 -0.24055403345E+03  0.15516137057E+02  0.25689891589E+03  0.00000000000E+00 0.  1.
         11    1    3    3    0    0 -0.49284082979E+02 -0.50061088387E+02  0.43359093475E+02  0.82553282142E+02  0.00000000000E+00 0. -1.
<mgrwt>
<rscale>  0 0.34243719E+03</rscale>
<asrwt>0</asrwt>
<pdfrwt beam="1">  1        1 0.43850101E-01 0.34519078E+03</pdfrwt>
<pdfrwt beam="2">  1       -1 0.74958637E-01 0.34519078E+03</pdfrwt>
<totfact> 0.17463235E+02</totfact>
</mgrwt>
</event>
<event>
 7    1  0.1330601E-005  0.1332021E+03  0.7546771E-02  0.1234707E+00
          1   -1    0    0  501    0  0.00000000000E+00  0.00000000000E+00  0.13972404283E+03  0.13972404283E+03  0.00000000000E+00 0. -1.
         -1   -1    0    0    0  501 -0.00000000000E+00 -0.00000000000E+00 -0.10297890180E+03  0.10297890180E+03  0.00000000000E+00 0.  1.
         23    2    1    2    0    0 -0.69302109020E+01  0.45488149238E+02  0.33959403327E+02  0.10947168574E+03  0.93346715845E+02 0.  0.
          5    1    1    2  502    0 -0.71671088711E+01 -0.10114924860E+02  0.61598985454E+02  0.63009556128E+02  0.47000000000E+01 0.  1.
         -5    1    1    2    0  502  0.14097319773E+02 -0.35373224379E+02 -0.58813247754E+02  0.70221702764E+02  0.47000000000E+01 0.  1.
        -11    1    3    3    0    0 -0.34493459304E+02 -0.66437892138E+01  0.36222765366E+02  0.50458174766E+02  0.00000000000E+00 0. -1.
         11    1    3    3    0    0  0.27563248402E+02  0.52131938452E+02 -0.22633620387E+01  0.59013510970E+02  0.00000000000E+00 0.  1.
<mgrwt>
<rscale>  0 0.12523220E+03</rscale>
<asrwt>0</asrwt>
<pdfrwt beam="1">  1        1 0.21496007E-01 0.13320213E+03</pdfrwt>
<pdfrwt beam="2">  1       -1 0.15842908E-01 0.13320213E+03</pdfrwt>
<totfact> 0.64920968E+03</totfact>
</mgrwt>
</event>
<event>
 7    1  0.1330601E-005  0.1680842E+03  0.7546771E-02  0.1186855E+00
          2   -1    0    0  501    0  0.00000000000E+00  0.00000000000E+00  0.64973253161E+03  0.64973253161E+03  0.00000000000E+00 0. -1.
         -2   -1    0    0    0  501 -0.00000000000E+00 -0.00000000000E+00 -0.38134985343E+02  0.38134985343E+02  0.00000000000E+00 0.  1.
         23    2    1    2    0    0  0.57379229254E+01 -0.11222389480E+03  0.32939954893E+03  0.35940442668E+03  0.89668014138E+02 0.  0.
          5    1    1    2  502    0  0.24311200322E+02  0.12126421298E+03  0.26475356847E+03  0.29225431704E+03  0.47000000000E+01 0.  1.
         -5    1    1    2    0  502 -0.30049123247E+02 -0.90403181755E+01  0.17444428874E+02  0.36208773238E+02  0.47000000000E+01 0.  1.
        -11    1    3    3    0    0  0.61902323756E+00 -0.56264891922E+02  0.52824501343E+02  0.77178683553E+02  0.00000000000E+00 0.  1.
         11    1    3    3    0    0  0.51188996879E+01 -0.55959002882E+02  0.27657504759E+03  0.28222574313E+03  0.00000000000E+00 0. -1.
<mgrwt>
<rscale>  0 0.16164269E+03</rscale>
<asrwt>0</asrwt>
<pdfrwt beam="1">  1        2 0.99958843E-01 0.16808418E+03</pdfrwt>
<pdfrwt beam="2">  1       -2 0.58669213E-02 0.16808418E+03</pdfrwt>
<totfact> 0.68489691E+03</totfact>
</mgrwt>
</event>
<event>
 7    1  0.1330601E-005  0.1416209E+03  0.7546771E-02  0.1223184E+00
         -2   -1    0    0    0  501 -0.00000000000E+00  0.00000000000E+00  0.88076066255E+02  0.88076066255E+02  0.00000000000E+00 0.  1.
          2   -1    0    0  501    0  0.00000000000E+00 -0.00000000000E+00 -0.20197128703E+03  0.20197128703E+03  0.00000000000E+00 0. -1.
         23    2    1    2    0    0 -0.16040652660E+02 -0.64435492309E+02 -0.98517371903E+02  0.14759400726E+03  0.87573301895E+02 0.  0.
          5    1    1    2  502    0 -0.25923751931E+02 -0.52515071465E+01  0.36899289707E+02  0.45642817861E+02  0.47000000000E+01 0.  1.
         -5    1    1    2    0  502  0.41964404591E+02  0.69686999456E+02 -0.52277138581E+02  0.96810528167E+02  0.47000000000E+01 0.  1.
        -11    1    3    3    0    0  0.89781886248E+00 -0.66350287861E+02 -0.23081502487E+02  0.70256120978E+02  0.00000000000E+00 0.  1.
         11    1    3    3    0    0 -0.16938471523E+02  0.19147955515E+01 -0.75435869417E+02  0.77337886280E+02  0.00000000000E+00 0. -1.
<mgrwt>
<rscale>  0 0.13292183E+03</rscale>
<asrwt>0</asrwt>
<pdfrwt beam="2">  1        2 0.31072506E-01 0.14162089E+03</pdfrwt>
<pdfrwt beam="1">  1       -2 0.13550164E-01 0.14162089E+03</pdfrwt>
<totfact> 0.65179802E+03</totfact>
</mgrwt>
</event>
<event>
 7    1  0.1330601E-005  0.2450704E+03  0.7546771E-02  0.1119514E+00
          2   -1    0    0  501    0  0.00000000000E+00  0.00000000000E+00  0.18282097404E+04  0.18282097404E+04  0.00000000000E+00 0.  1.
         -2   -1    0    0    0  501 -0.00000000000E+00 -0.00000000000E+00 -0.30483481127E+02  0.30483481127E+02  0.00000000000E+00 0. -1.
         23    2    1    2    0    0  0.16463850345E+03 -0.13161254718E+03  0.88229156969E+03  0.91102230480E+03  0.84234948285E+02 0.  0.
          5    1    1    2  502    0 -0.17972910703E+03  0.13934123522E+03  0.84738671191E+03  0.87738524108E+03  0.47000000000E+01 0.  1.
         -5    1    1    2    0  502  0.15090603577E+02 -0.77286880343E+01  0.68047977717E+02  0.70285675685E+02  0.47000000000E+01 0.  1.
        -11    1    3    3    0    0  0.13247638088E+03 -0.63376669599E+02  0.66457194434E+03  0.68060448349E+03  0.00000000000E+00 0.  1.
         11    1    3    3    0    0  0.32162122570E+02 -0.68235877586E+02  0.21771962535E+03  0.23041782132E+03  0.00000000000E+00 0. -1.
<mgrwt>
<rscale>  0 0.24041885E+03</rscale>
<asrwt>0</asrwt>
<pdfrwt beam="1">  1        2 0.28126295E+00 0.24507039E+03</pdfrwt>
<pdfrwt beam="2">  1       -2 0.46897678E-02 0.24507039E+03</pdfrwt>
<totfact> 0.19769391E+03</totfact>
</mgrwt>
</event>
<event>
 7    1  0.1330601E-005  0.1325330E+03  0.7546771E-02  0.1236843E+00
         -1   -1    0    0    0  501 -0.00000000000E+00  0.00000000000E+00  0.16607178618E+02  0.16607178618E+02  0.00000000000E+00 0. -1.
          1   -1    0    0  501    0  0.00000000000E+00 -0.00000000000E+00 -0.82266430875E+03  0.82266430875E+03  0.00000000000E+00 0.  1.
         23    2    1    2    0    0 -0.43307291277E+02  0.80045756479E+01 -0.33681998721E+03  0.35167687685E+03  0.91045742474E+02 0.  0.
          5    1    1    2  502    0 -0.44560715488E+01  0.21119192961E+02 -0.88492499164E+01  0.23796556664E+02  0.47000000000E+01 0. -1.
         -5    1    1    2    0  502  0.47763362826E+02 -0.29123768609E+02 -0.46038789301E+03  0.46379805385E+03  0.47000000000E+01 0. -1.
        -11    1    3    3    0    0 -0.66676483623E+02 -0.98005292367E+01 -0.27633477453E+03  0.28443401951E+03  0.00000000000E+00 0.  1.
         11    1    3    3    0    0  0.23369192346E+02  0.17805104885E+02 -0.60485212677E+02  0.67242857341E+02  0.00000000000E+00 0. -1.
<mgrwt>
<rscale>  0 0.12387163E+03</rscale>
<asrwt>0</asrwt>
<pdfrwt beam="2">  1        1 0.12656375E+00 0.13253304E+03</pdfrwt>
<pdfrwt beam="1">  1       -1 0.25549504E-02 0.13253304E+03</pdfrwt>
<totfact> 0.10119716E+04</totfact>
</mgrwt>
</event>
<event>
 6    1  0.1330601E-005  0.2269399E+03  0.7546771E-02  0.1171925E+00
         -2   -1    0    0    0  501 -0.00000000000E+00  0.00000000000E+00  0.35479097542E+02  0.35479097542E+02  0.00000000000E+00 0.  1.
          2   -1    0    0  501    0  0.00000000000E+00 -0.00000000000E+00 -0.67139709166E+03  0.67139709166E+03  0.00000000000E+00 0. -1.
          5    1    1    2  502    0  0.63132253913E+02 -0.49808256362E+02 -0.43627988918E+03  0.44365389166E+03  0.47000000000E+01 0. -1.
         -5    1    1    2    0  502 -0.68455978861E+02 -0.15395239329E+02 -0.33130582197E+02  0.77736477362E+02  0.47000000000E+01 0.  1.
        -11    1    1    2    0    0  0.26445310935E+02  0.28516743791E+02 -0.90091576685E+02  0.98127729702E+02  0.00000000000E+00 0. -1.
         11    1    1    2    0    0 -0.21121585987E+02  0.36686751900E+02 -0.76415946056E+02  0.87358090474E+02  0.00000000000E+00 0.  1.
<mgrwt>
<rscale>  0 0.17580537E+03</rscale>
<asrwt>0</asrwt>
<pdfrwt beam="2">  1        2 0.10329186E+00 0.22693992E+03</pdfrwt>
<pdfrwt beam="1">  1       -2 0.54583227E-02 0.22693992E+03</pdfrwt>
<totfact> 0.74613982E+03</totfact>
</mgrwt>
</event>
<event>
 7    1  0.1330601E-005  0.1846321E+03  0.7546771E-02  0.1176056E+00
          4   -1    0    0  501    0  0.00000000000E+00  0.00000000000E+00  0.62428352398E+02  0.62428352398E+02  0.00000000000E+00 0. -1.
         -4   -1    0    0    0  501 -0.00000000000E+00 -0.00000000000E+00 -0.66264277186E+03  0.66264277186E+03  0.00000000000E+00 0.  1.
         23    2    1    2    0    0 -0.82665461447E+02 -0.47524799626E+02 -0.53771623509E+02  0.14827936729E+03  0.10001598958E+03 0.  0.
          5    1    1    2  502    0 -0.24733898904E+02 -0.32449724556E+02 -0.22205925403E+03  0.22582549165E+03  0.47000000000E+01 0. -1.
         -5    1    1    2    0  502  0.10739936035E+03  0.79974524182E+02 -0.32438354192E+03  0.35096626532E+03  0.47000000000E+01 0.  1.
        -11    1    3    3    0    0 -0.71174180553E+02 -0.76450088466E+02 -0.53036762010E+02  0.11714639614E+03  0.00000000000E+00 0. -1.
         11    1    3    3    0    0 -0.11491280893E+02  0.28925288840E+02 -0.73486149867E+00  0.31132971148E+02  0.00000000000E+00 0.  1.
<mgrwt>
<rscale>  0 0.17173009E+03</rscale>
<asrwt>0</asrwt>
<pdfrwt beam="1">  1        4 0.96043612E-02 0.18463207E+03</pdfrwt>
<pdfrwt beam="2">  1       -4 0.10194505E+00 0.18463207E+03</pdfrwt>
<totfact> 0.11677500E+02</totfact>
</mgrwt>
</event>
<event>
 7    1  0.1330601E-005  0.1451042E+03  0.7546771E-02  0.1216622E+00
          1   -1    0    0  501    0  0.00000000000E+00  0.00000000000E+00  0.10217718976E+03  0.10217718976E+03  0.00000000000E+00 0. -1.
         -1   -1    0    0    0  501 -0.00000000000E+00 -0.00000000000E+00 -0.19012846215E+03  0.19012846215E+03  0.00000000000E+00 0.  1.
         23    2    1    2    0    0  0.61610642615E+02  0.40368958864E+02  0.92784144159E+01  0.11763787677E+03  0.91252709289E+02 0.  0.
          5    1    1    2  502    0 -0.42297958975E+02 -0.82796353562E+02 -0.41681502718E+02  0.10199897630E+03  0.47000000000E+01 0.  1.
         -5    1    1    2    0  502 -0.19312683641E+02  0.42427394699E+02 -0.55548184086E+02  0.72668798845E+02  0.47000000000E+01 0.  1.
        -11    1    3    3    0    0  0.15538402177E+02 -0.26713703780E+02 -0.12590693021E+02  0.33370487899E+02  0.00000000000E+00 0.  1.
         11    1    3    3    0    0  0.46072240438E+02  0.67082662643E+02  0.21869107437E+02  0.84267388867E+02  0.00000000000E+00 0. -1.
<mgrwt>
<rscale>  0 0.13758084E+03</rscale>
<asrwt>0</asrwt>
<pdfrwt beam="1">  1        1 0.15719568E-01 0.14510417E+03</pdfrwt>
<pdfrwt beam="2">  1       -1 0.29250532E-01 0.14510417E+03</pdfrwt>
<totfact> 0.36056831E+03</totfact>
</mgrwt>
</event>
<event>
 7    1  0.1330601E-005  0.1345542E+03  0.7546771E-02  0.1234690E+00
         -1   -1    0    0    0  501 -0.00000000000E+00  0.00000000000E+00  0.54298271026E+03  0.54298271026E+03  0.00000000000E+00 0.  1.
          1   -1    0    0  501    0  0.00000000000E+00 -0.00000000000E+00 -0.39902648946E+02  0.39902648946E+02  0.00000000000E+00 0. -1.
         23    2    1    2    0    0 -0.15043201079E+02  0.47481301299E+02  0.54929722602E+02  0.11497131790E+03  0.87865565740E+02 0.  0.
          5    1    1    2  502    0  0.64526885130E+01 -0.85335840899E+02  0.37807425390E+03  0.38766747916E+03  0.47000000000E+01 0. -1.
         -5    1    1    2    0  502  0.85905125657E+01  0.37854539600E+02  0.70076084807E+02  0.80246562147E+02  0.47000000000E+01 0. -1.
        -11    1    3    3    0    0 -0.22365091878E+02 -0.16304567717E+02 -0.38250930818E+01  0.27940429493E+02  0.00000000000E+00 0.  1.
         11    1    3    3    0    0  0.73218907992E+01  0.63785869016E+02  0.58754815683E+02  0.87030888408E+02  0.00000000000E+00 0. -1.
<mgrwt>
<rscale>  0 0.12524313E+03</rscale>
<asrwt>0</asrwt>
<pdfrwt beam="2">  1        1 0.61388695E-02 0.13455417E+03</pdfrwt>
<pdfrwt beam="1">  1       -1 0.83535796E-01 0.13455417E+03</pdfrwt>
<totfact> 0.18143265E+03</totfact>
</mgrwt>
</event>
<event>
 7    1  0.1330601E-005  0.1500565E+03  0.7546771E-02  0.1208954E+00
         -1   -1    0    0    0  501 -0.00000000000E+00  0.00000000000E+00  0.55126176174E+02  0.55126176174E+02  0.00000000000E+00 0.  1.
          1   -1    0    0  501    0  0.00000000000E+00 -0.00000000000E+00 -0.42070585757E+03  0.42070585757E+03  0.00000000000E+00 0. -1.
         23    2    1    2    0    0  0.78507500674E+02  0.26979942462E+02 -0.27125762384E+03  0.29859323987E+03  0.93198065670E+02 0.  0.
          5    1    1    2  502    0 -0.91925730713E+02  0.23697550613E+02 -0.75344115278E+02  0.12128783772E+03  0.47000000000E+01 0. -1.
         -5    1    1    2    0  502  0.13418230039E+02 -0.50677493075E+02 -0.18977942279E+02  0.55950956157E+02  0.47000000000E+01 0. -1.
        -11    1    3    3    0    0  0.21118221299E+02 -0.19645054558E+02 -0.16300330890E+02  0.33130170941E+02  0.00000000000E+00 0.  1.
         11    1    3    3    0    0  0.57389279374E+02  0.46624997021E+02 -0.25495729295E+03  0.26546306893E+03  0.00000000000E+00 0. -1.
<mgrwt>
<rscale>  0 0.14330201E+03</rscale>
<asrwt>0</asrwt>
<pdfrwt beam="2">  1        1 0.64723980E-01 0.15005645E+03</pdfrwt>
<pdfrwt beam="1">  1       -1 0.84809499E-02 0.15005645E+03</pdfrwt>
<totfact> 0.43300132E+03</totfact>
</mgrwt>
</event>
<event>
 7    1  0.1330601E-005  0.1386643E+03  0.7546771E-02  0.1227139E+00
          1   -1    0    0  501    0  0.00000000000E+00  0.00000000000E+00  0.59697635843E+02  0.59697635843E+02  0.00000000000E+00 0. -1.
         -1   -1    0    0    0  501 -0.00000000000E+00 -0.00000000000E+00 -0.43853732824E+03  0.43853732824E+03  0.00000000000E+00 0.  1.
         23    2    1    2    0    0  0.53131238123E+02 -0.27931065027E+02 -0.15000394048E+02  0.10886775667E+03  0.89577361885E+02 0.  0.
          5    1    1    2  502    0 -0.29642998810E+02 -0.43523081073E+02 -0.81521649101E+02  0.97163960586E+02  0.47000000000E+01 0.  1.
         -5    1    1    2    0  502 -0.23488239313E+02  0.71454146100E+02 -0.28231764925E+03  0.29220324683E+03  0.47000000000E+01 0.  1.
        -11    1    3    3    0    0  0.40882159447E+02 -0.34981599539E+02  0.30066625107E+02  0.61636557437E+02  0.00000000000E+00 0. -1.
         11    1    3    3    0    0  0.12249078675E+02  0.70505345115E+01 -0.45067019154E+02  0.47231199231E+02  0.00000000000E+00 0.  1.
<mgrwt>
<rscale>  0 0.13021403E+03</rscale>
<asrwt>0</asrwt>
<pdfrwt beam="1">  1        1 0.91842516E-02 0.13866430E+03</pdfrwt>
<pdfrwt beam="2">  1       -1 0.67467282E-01 0.13866430E+03</pdfrwt>
<totfact> 0.16238794E+03</totfact>
</mgrwt>
</event>
<event>
 7    1  0.1330601E-005  0.1257317E+03  0.7546771E-02  0.1248749E+00
          2   -1    0    0  501    0  0.00000000000E+00  0.00000000000E+00  0.12423601959E+03  0.12423601959E+03  0.00000000000E+00 0.  1.
         -2   -1    0    0    0  501 -0.00000000000E+00 -0.00000000000E+00 -0.97114888365E+02  0.97114888365E+02  0.00000000000E+00 0. -1.
         23    2    1    2    0    0 -0.51160410407E+01  0.10881975431E+02  0.20124163724E+01  0.93136593547E+02  0.92335171916E+02 0.  0.
          5    1    1    2  502    0  0.83288481477E+01 -0.53982811039E+02 -0.26368311525E+02  0.60834952550E+02  0.47000000000E+01 0. -1.
         -5    1    1    2    0  502 -0.32128071070E+01  0.43100835608E+02  0.51477026377E+02  0.67379361857E+02  0.47000000000E+01 0. -1.
        -11    1    3    3    0    0  0.37936579721E+02 -0.12467122880E+02  0.14684766382E+02  0.42547098579E+02  0.00000000000E+00 0.  1.
         11    1    3    3    0    0 -0.43052620762E+02  0.23349098310E+02 -0.12672350010E+02  0.50589494968E+02  0.00000000000E+00 0. -1.
<mgrwt>
<rscale>  0 0.11663754E+03</rscale>
<asrwt>0</asrwt>
<pdfrwt beam="1">  1        2 0.19113234E-01 0.12573171E+03</pdfrwt>
<pdfrwt beam="2">  1       -2 0.14940752E-01 0.12573171E+03</pdfrwt>
<totfact> 0.94366723E+03</totfact>
</mgrwt>
</event>
<event>
 7    1  0.1330601E-005  0.1327559E+03  0.7546771E-02  0.1232780E+00
         -2   -1    0    0    0  501 -0.00000000000E+00  0.00000000000E+00  0.47357780500E+02  0.47357780500E+02  0.00000000000E+00 0.  1.
          2   -1    0    0  501    0  0.00000000000E+00 -0.00000000000E+00 -0.31312698676E+03  0.31312698676E+03  0.00000000000E+00 0. -1.
         23    2    1    2    0    0  0.44257095393E+02  0.63196518825E+01 -0.10079511126E+03  0.14872880721E+03  0.99809694663E+02 0.  0.
          5    1    1    2  502    0  0.28651158996E+02 -0.40619443911E+02 -0.45349444265E+02  0.67449909048E+02  0.47000000000E+01 0.  1.
         -5    1    1    2    0  502 -0.72908254389E+02  0.34299792029E+02 -0.11962465073E+03  0.14430605099E+03  0.47000000000E+01 0.  1.
        -11    1    3    3    0    0 -0.15702922010E+02 -0.31601382904E+02 -0.51139273913E+02  0.62132555858E+02  0.00000000000E+00 0. -1.
         11    1    3    3    0    0  0.59960017403E+02  0.37921034787E+02 -0.49655837350E+02  0.86596251357E+02  0.00000000000E+00 0.  1.
<mgrwt>
<rscale>  0 0.12647642E+03</rscale>
<asrwt>0</asrwt>
<pdfrwt beam="2">  1        2 0.48173382E-01 0.13275592E+03</pdfrwt>
<pdfrwt beam="1">  1       -2 0.72858125E-02 0.13275592E+03</pdfrwt>
<totfact> 0.10781826E+04</totfact>
</mgrwt>
</event>
<event>
 7    1  0.1330601E-005  0.1541592E+03  0.7546771E-02  0.1204004E+00
          1   -1    0    0  501    0  0.00000000000E+00  0.00000000000E+00  0.29995072346E+03  0.29995072346E+03  0.00000000000E+00 0. -1.
         -1   -1    0    0    0  501 -0.00000000000E+00 -0.00000000000E+00 -0.78726578665E+02  0.78726578665E+02  0.00000000000E+00 0.  1.
         23    2    1    2    0    0 -0.43559503964E+02  0.79003230978E+02  0.17673027465E+03  0.21822554050E+03  0.90828716055E+02 0.  0.
          5    1    1    2  502    0 -0.11140767420E+01 -0.45892809614E+02  0.81383804003E+02  0.93556425195E+02  0.47000000000E+01 0. -1.
         -5    1    1    2    0  502  0.44673580706E+02 -0.33110421364E+02 -0.36889933855E+02  0.66895336428E+02  0.47000000000E+01 0. -1.
        -11    1    3    3    0    0 -0.49188873105E+02  0.82224613147E+01  0.39147192630E+02  0.63400763389E+02  0.00000000000E+00 0.  1.
         11    1    3    3    0    0  0.56293691414E+01  0.70780769663E+02  0.13758308202E+03  0.15482477711E+03  0.00000000000E+00 0. -1.
<mgrwt>
<rscale>  0 0.14716194E+03</rscale>
<asrwt>0</asrwt>
<pdfrwt beam="1">  1        1 0.46146265E-01 0.15415921E+03</pdfrwt>
<pdfrwt beam="2">  1       -1 0.12111781E-01 0.15415921E+03</pdfrwt>
<totfact> 0.38395426E+03</totfact>
</mgrwt>
</event>
<event>
 7    1  0.1330601E-005  0.1725652E+03  0.7546771E-02  0.1181521E+00
          1   -1    0    0  501    0  0.00000000000E+00  0.00000000000E+00  0.27109945302E+03  0.27109945302E+03  0.00000000000E+00 0. -1.
         -1   -1    0    0    0  501 -0.00000000000E+00 -0.00000000000E+00 -0.10223082416E+03  0.10223082416E+03  0.00000000000E+00 0.  1.
         23    2    1    2    0    0  0.11013386163E+03 -0.44986465493E+02  0.12574082262E+03  0.19545743821E+03  0.90772276186E+02 0.  0.
          5    1    1    2  502    0 -0.13037433556E+03  0.13176643264E+02  0.18077729095E+02  0.13236308243E+03  0.47000000000E+01 0. -1.
         -5    1    1    2    0  502  0.20240473936E+02  0.31809822228E+02  0.25050077139E+02  0.45509756536E+02  0.47000000000E+01 0. -1.
        -11    1    3    3    0    0  0.26397099309E+02 -0.34672707613E+02  0.96979303802E+02  0.10632021854E+03  0.00000000000E+00 0.  1.
         11    1    3    3    0    0  0.83736762320E+02 -0.10313757880E+02  0.28761518819E+02  0.89137219668E+02  0.00000000000E+00 0. -1.
<mgrwt>
<rscale>  0 0.16652466E+03</rscale>
<asrwt>0</asrwt>
<pdfrwt beam="1">  1        1 0.41707608E-01 0.17256517E+03</pdfrwt>
<pdfrwt beam="2">  1       -1 0.15727819E-01 0.17256517E+03</pdfrwt>
<totfact> 0.29071321E+03</totfact>
</mgrwt>
</event>
<event>
 7    1  0.1330601E-005  0.1328225E+03  0.7546771E-02  0.1235648E+00
         -2   -1    0    0    0  501 -0.00000000000E+00  0.00000000000E+00  0.88901041554E+02  0.88901041554E+02  0.00000000000E+00 0.  1.
          2   -1    0    0  501    0  0.00000000000E+00 -0.00000000000E+00 -0.15633951658E+03  0.15633951658E+03  0.00000000000E+00 0. -1.
         23    2    1    2    0    0 -0.33034169426E+02  0.30417313147E+02 -0.29081346122E+02  0.10699051197E+03  0.92654064506E+02 0.  0.
          5    1    1    2  502    0  0.44759600677E+02 -0.48056449474E+01  0.36490708680E+02  0.58139297347E+02  0.47000000000E+01 0. -1.
         -5    1    1    2    0  502 -0.11725431251E+02 -0.25611668200E+02 -0.74847837588E+02  0.80110748827E+02  0.47000000000E+01 0. -1.
        -11    1    3    3    0    0  0.26311994915E+02 -0.12908460806E+02 -0.54891406704E+01  0.29817446270E+02  0.00000000000E+00 0.  1.
         11    1    3    3    0    0 -0.59346164341E+02  0.43325773953E+02 -0.23592205452E+02  0.77173065695E+02  0.00000000000E+00 0. -1.
<mgrwt>
<rscale>  0 0.12463019E+03</rscale>
<asrwt>0</asrwt>
<pdfrwt beam="2">  1        2 0.24052233E-01 0.13282246E+03</pdfrwt>
<pdfrwt beam="1">  1       -2 0.13677083E-01 0.13282246E+03</pdfrwt>
<totfact> 0.84572641E+03</totfact>
</mgrwt>
</event>
<event>
 6    1  0.1330601E-005  0.1589010E+03  0.7546771E-02  0.1244753E+00
         -3   -1    0    0    0  501 -0.00000000000E+00  0.00000000000E+00  0.18002572098E+03  0.18002572098E+03  0.00000000000E+00 0.  1.
          3   -1    0    0  501    0  0.00000000000E+00 -0.00000000000E+00 -0.97540416970E+02  0.97540416970E+02  0.00000000000E+00 0. -1.
          5    1    1    2  502    0 -0.29464354348E+02 -0.47122074265E+01 -0.23335587210E+02  0.38170573828E+02  0.47000000000E+01 0. -1.
         -5    1    1    2    0  502  0.45594595376E+02  0.45664294594E+02  0.15580626660E+03  0.16870618732E+03  0.47000000000E+01 0.  1.
        -11    1    1    2    0    0 -0.16913951423E+02 -0.29024966328E+02 -0.47977034319E+02  0.58568987059E+02  0.00000000000E+00 0. -1.
         11    1    1    2    0    0  0.78371039487E+00 -0.11927120840E+02 -0.20083410681E+01  0.12120389736E+02  0.00000000000E+00 0.  1.
<mgrwt>
<rscale>  0 0.11900185E+03</rscale>
<asrwt>0</asrwt>
<pdfrwt beam="2">  1        3 0.15006218E-01 0.15890095E+03</pdfrwt>
<pdfrwt beam="1">  1       -3 0.27696265E-01 0.15890095E+03</pdfrwt>
<totfact> 0.10907708E+03</totfact>
</mgrwt>
</event>
<event>
 7    1  0.1330601E-005  0.4914007E+03  0.7546771E-02  0.1016048E+00
         -3   -1    0    0    0  501 -0.00000000000E+00  0.00000000000E+00  0.51953358715E+03  0.51953358715E+03  0.00000000000E+00 0.  1.
          3   -1    0    0  501    0  0.00000000000E+00 -0.00000000000E+00 -0.11619781206E+03  0.11619781206E+03  0.00000000000E+00 0. -1.
         23    2    1    2    0    0 -0.25079630196E+02 -0.14351597329E+02  0.80745318463E+02  0.12496799562E+03  0.90896849667E+02 0.  0.
          5    1    1    2  502    0 -0.18169750900E+03 -0.30041960066E+02  0.15891059588E+03  0.24329235834E+03  0.47000000000E+01 0. -1.
         -5    1    1    2    0  502  0.20677713919E+03  0.44393557395E+02  0.16367986074E+03  0.26747104524E+03  0.47000000000E+01 0.  1.
        -11    1    3    3    0    0  0.25997288463E+02  0.14872430691E+01  0.63738443642E+02  0.68852451643E+02  0.00000000000E+00 0.  1.
         11    1    3    3    0    0 -0.51076918660E+02 -0.15838840398E+02  0.17006874822E+02  0.56115543980E+02  0.00000000000E+00 0. -1.
<mgrwt>
<rscale>  0 0.49140072E+03</rscale>
<asrwt>0</asrwt>
<pdfrwt beam="2">  1        3 0.17876587E-01 0.49140072E+03</pdfrwt>
<pdfrwt beam="1">  1       -3 0.79928243E-01 0.49140072E+03</pdfrwt>
<totfact> 0.10656304E+02</totfact>
</mgrwt>
</event>
<event>
 7    1  0.1330601E-005  0.1435943E+03  0.7546771E-02  0.1218941E+00
          2   -1    0    0  501    0  0.00000000000E+00  0.00000000000E+00  0.48873248015E+02  0.48873248015E+02  0.00000000000E+00 0. -1.
         -2   -1    0    0    0  501 -0.00000000000E+00 -0.00000000000E+00 -0.36175078115E+03  0.36175078115E+03  0.00000000000E+00 0.  1.
         23    2    1    2    0    0  0.10023333773E+02 -0.69988291887E+02 -0.93342229237E+02  0.14829778110E+03  0.90997977444E+02 0.  0.
          5    1    1    2  502    0 -0.42716506022E+02 -0.24569811188E+01 -0.19944018093E+02  0.47440388918E+02  0.47000000000E+01 0. -1.
         -5    1    1    2    0  502  0.32693172249E+02  0.72445273006E+02 -0.19959128580E+03  0.21488585915E+03  0.47000000000E+01 0. -1.
        -11    1    3    3    0    0  0.17770769333E+02 -0.48645482662E+02 -0.10902644136E+03  0.12070189783E+03  0.00000000000E+00 0.  1.
         11    1    3    3    0    0 -0.77474355599E+01 -0.21342809226E+02  0.15684212119E+02  0.27595883265E+02  0.00000000000E+00 0. -1.
<mgrwt>
<rscale>  0 0.13590967E+03</rscale>
<asrwt>0</asrwt>
<pdfrwt beam="1">  1        2 0.75189612E-02 0.14359426E+03</pdfrwt>
<pdfrwt beam="2">  1       -2 0.55653966E-01 0.14359426E+03</pdfrwt>
<totfact> 0.27394565E+03</totfact>
</mgrwt>
</event>
<event>
 7    1  0.1330601E-005  0.1260124E+03  0.7546771E-02  0.1250677E+00
         -1   -1    0    0    0  501 -0.00000000000E+00  0.00000000000E+00  0.11801150449E+03  0.11801150449E+03  0.00000000000E+00 0.  1.
          1   -1    0    0  501    0  0.00000000000E+00 -0.00000000000E+00 -0.11191272033E+03  0.11191272033E+03  0.00000000000E+00 0. -1.
         23    2    1    2    0    0  0.22321661990E+01  0.15451330044E+02 -0.37508971433E+02  0.96579744625E+02  0.87618479602E+02 0.  0.
          5    1    1    2  502    0 -0.54555607336E+02  0.24523245685E+02  0.20940159533E+02  0.63547495246E+02  0.47000000000E+01 0.  1.
         -5    1    1    2    0  502  0.52323441137E+02 -0.39974575729E+02  0.22667596051E+02  0.69796984948E+02  0.47000000000E+01 0.  1.
        -11    1    3    3    0    0  0.44470795372E+02  0.13951176182E+02 -0.22227708906E+02  0.51636789221E+02  0.00000000000E+00 0. -1.
         11    1    3    3    0    0 -0.42238629173E+02  0.15001538620E+01 -0.15281262527E+02  0.44942955404E+02  0.00000000000E+00 0.  1.
<mgrwt>
<rscale>  0 0.11551954E+03</rscale>
<asrwt>0</asrwt>
<pdfrwt beam="2">  1        1 0.17217342E-01 0.12601236E+03</pdfrwt>
<pdfrwt beam="1">  1       -1 0.18155616E-01 0.12601236E+03</pdfrwt>
<totfact> 0.69147238E+03</totfact>
</mgrwt>
</event>
<event>
 7    1  0.1330601E-005  0.2539278E+03  0.7546771E-02  0.1113305E+00
          3   -1    0    0  501    0  0.00000000000E+00  0.00000000000E+00  0.21461235049E+03  0.21461235049E+03  0.00000000000E+00 0. -1.
         -3   -1    0    0    0  501 -0.00000000000E+00 -0.00000000000E+00 -0.32885247347E+03  0.32885247347E+03  0.00000000000E+00 0.  1.
         23    2    1    2    0    0  0.19450724768E+03 -0.10498614363E+03  0.46322142232E+02  0.24303255087E+03  0.89799332787E+02 0.  0.
          5    1    1    2  502    0 -0.16986553109E+03  0.29095763185E+02 -0.93676816275E+02  0.19620983154E+03  0.47000000000E+01 0.  1.
         -5    1    1    2    0  502 -0.24641716594E+02  0.75890380446E+02 -0.66885448933E+02  0.10422244154E+03  0.47000000000E+01 0.  1.
        -11    1    3    3    0    0  0.71093865087E+02 -0.16516083709E+02  0.54307318349E+02  0.90974741002E+02  0.00000000000E+00 0. -1.
         11    1    3    3    0    0  0.12341338259E+03 -0.88470059921E+02 -0.79851761175E+01  0.15205780987E+03  0.00000000000E+00 0.  1.
<mgrwt>
<rscale>  0 0.24999992E+03</rscale>
<asrwt>0</asrwt>
<pdfrwt beam="1">  1        3 0.33017285E-01 0.25392776E+03</pdfrwt>
<pdfrwt beam="2">  1       -3 0.50592688E-01 0.25392776E+03</pdfrwt>
<totfact> 0.87141095E+01</totfact>
</mgrwt>
</event>
<event>
 7    1  0.1330601E-005  0.2138750E+03  0.7546771E-02  0.1142141E+00
          1   -1    0    0  501    0  0.00000000000E+00  0.00000000000E+00  0.36616410916E+03  0.36616410916E+03  0.00000000000E+00 0.  1.
         -1   -1    0    0    0  501 -0.00000000000E+00 -0.00000000000E+00 -0.13976920771E+03  0.13976920771E+03  0.00000000000E+00 0. -1.
         23    2    1    2    0    0  0.15780211901E+03 -0.72236235620E+02  0.21613405400E+03  0.29181229604E+03  0.91218991005E+02 0.  0.
          5    1    1    2  502    0 -0.50945582062E+02 -0.35285166200E+02  0.53559997867E+01  0.62380061070E+02  0.47000000000E+01 0. -1.
         -5    1    1    2    0  502 -0.10685653694E+03  0.10752140182E+03  0.49048476647E+01  0.15174095976E+03  0.47000000000E+01 0. -1.
        -11    1    3    3    0    0  0.36523327291E+02 -0.49087068469E+02  0.12224206750E+03  0.13669900070E+03  0.00000000000E+00 0. -1.
         11    1    3    3    0    0  0.12127879172E+03 -0.23149167150E+02  0.93891986504E+02  0.15511329533E+03  0.00000000000E+00 0.  1.
<mgrwt>
<rscale>  0 0.20927563E+03</rscale>
<asrwt>0</asrwt>
<pdfrwt beam="1">  1        1 0.56332940E-01 0.21387503E+03</pdfrwt>
<pdfrwt beam="2">  1       -1 0.21502955E-01 0.21387503E+03</pdfrwt>
<totfact> 0.12126414E+03</totfact>
</mgrwt>
</event>
<event>
 7    1  0.1330601E-005  0.3549768E+03  0.7546771E-02  0.1061902E+00
          1   -1    0    0  501    0  0.00000000000E+00  0.00000000000E+00  0.13003322093E+04  0.13003322093E+04  0.00000000000E+00 0. -1.
         -1   -1    0    0    0  501 -0.00000000000E+00 -0.00000000000E+00 -0.11301611673E+03  0.11301611673E+03  0.00000000000E+00 0.  1.
         23    2    1    2    0    0  0.11039199484E+03  0.31336283661E+03  0.87864543236E+03  0.94293778140E+03  0.82043914452E+02 0.  0.
          5    1    1    2  502    0 -0.10438432731E+03 -0.11140355146E+03  0.13931293233E+03  0.20672934523E+03  0.47000000000E+01 0. -1.
         -5    1    1    2    0  502 -0.60076675277E+01 -0.20195928515E+03  0.16935772793E+03  0.26368119944E+03  0.47000000000E+01 0. -1.
        -11    1    3    3    0    0  0.19852684078E+02  0.33299619701E+02  0.48089977548E+02  0.61770864312E+02  0.00000000000E+00 0.  1.
         11    1    3    3    0    0  0.90539310761E+02  0.28006321691E+03  0.83055545481E+03  0.88116691709E+03  0.00000000000E+00 0. -1.
<mgrwt>
<rscale>  0 0.35174342E+03</rscale>
<asrwt>0</asrwt>
<pdfrwt beam="1">  1        1 0.20005110E+00 0.35497677E+03</pdfrwt>
<pdfrwt beam="2">  1       -1 0.17387096E-01 0.35497677E+03</pdfrwt>
<totfact> 0.24566929E+02</totfact>
</mgrwt>
</event>
<event>
 7    1  0.1330601E-005  0.1929962E+03  0.7546771E-02  0.1160584E+00
         -2   -1    0    0    0  501 -0.00000000000E+00  0.00000000000E+00  0.14905059575E+03  0.14905059575E+03  0.00000000000E+00 0.  1.
          2   -1    0    0  501    0  0.00000000000E+00 -0.00000000000E+00 -0.22556629040E+03  0.22556629040E+03  0.00000000000E+00 0. -1.
         23    2    1    2    0    0  0.67784366563E+02 -0.13049152356E+03 -0.51145075075E+02  0.17996027408E+03  0.90261417396E+02 0.  0.
          5    1    1    2  502    0 -0.57971340299E+02  0.58991921529E+01  0.19740662465E+02  0.61703002510E+02  0.47000000000E+01 0.  1.
         -5    1    1    2    0  502 -0.98130262637E+01  0.12459233140E+03 -0.45111282044E+02  0.13295360957E+03  0.47000000000E+01 0.  1.
        -11    1    3    3    0    0 -0.10809484941E+02 -0.39619774620E+02  0.13877368594E+02  0.43349196817E+02  0.00000000000E+00 0.  1.
         11    1    3    3    0    0  0.78593851504E+02 -0.90871748937E+02 -0.65022443668E+02  0.13661107726E+03  0.00000000000E+00 0. -1.
<mgrwt>
<rscale>  0 0.18766517E+03</rscale>
<asrwt>0</asrwt>
<pdfrwt beam="2">  1        2 0.34702506E-01 0.19299619E+03</pdfrwt>
<pdfrwt beam="1">  1       -2 0.22930861E-01 0.19299619E+03</pdfrwt>
<totfact> 0.24355896E+03</totfact>
</mgrwt>
</event>
<event>
 7    1  0.1330601E-005  0.2253204E+03  0.7546771E-02  0.1129977E+00
         -2   -1    0    0    0  501 -0.00000000000E+00  0.00000000000E+00  0.21573643680E+02  0.21573643680E+02  0.00000000000E+00 0.  1.
          2   -1    0    0  501    0  0.00000000000E+00 -0.00000000000E+00 -0.58832541470E+03  0.58832541470E+03  0.00000000000E+00 0. -1.
         23    2    1    2    0    0  0.71927561705E+01  0.28189000589E+02 -0.24111047269E+03  0.25988161843E+03  0.92508594524E+02 0.  0.
          5    1    1    2  502    0  0.21473054078E+02  0.36709262423E+02 -0.52262766934E+02  0.67543680732E+02  0.47000000000E+01 0. -1.
         -5    1    1    2    0  502 -0.28665810249E+02 -0.64898263013E+02 -0.27337853139E+03  0.28247375921E+03  0.47000000000E+01 0. -1.
        -11    1    3    3    0    0 -0.34215791386E+02  0.28305189305E+02 -0.63361307572E+02  0.77372859705E+02  0.00000000000E+00 0.  1.
         11    1    3    3    0    0  0.41408547556E+02 -0.11618871611E+00 -0.17774916512E+03  0.18250875873E+03  0.00000000000E+00 0. -1.
<mgrwt>
<rscale>  0 0.22532042E+03</rscale>
<asrwt>0</asrwt>
<pdfrwt beam="2">  1        2 0.90511596E-01 0.22532042E+03</pdfrwt>
<pdfrwt beam="1">  1       -2 0.33190223E-02 0.22532042E+03</pdfrwt>
<totfact> 0.18452406E+04</totfact>
</mgrwt>
</event>
<event>
 7    1  0.1330601E-005  0.1632951E+03  0.7546771E-02  0.1193073E+00
          2   -1    0    0  501    0  0.00000000000E+00  0.00000000000E+00  0.46140660176E+03  0.46140660176E+03  0.00000000000E+00 0. -1.
         -2   -1    0    0    0  501 -0.00000000000E+00 -0.00000000000E+00 -0.51748985254E+02  0.51748985254E+02  0.00000000000E+00 0.  1.
         23    2    1    2    0    0 -0.20902928929E+02  0.10297802439E+03  0.24924992292E+03  0.28425400537E+03  0.87369385631E+02 0.  0.
          5    1    1    2  502    0  0.61737366714E+02 -0.15395060001E+02  0.84761346944E+02  0.10608999131E+03  0.47000000000E+01 0.  1.
         -5    1    1    2    0  502 -0.40834437785E+02 -0.87582964390E+02  0.75646346646E+02  0.12281159034E+03  0.47000000000E+01 0.  1.
        -11    1    3    3    0    0 -0.47957493946E+02  0.96217226975E+02  0.18089824442E+03  0.21043253272E+03  0.00000000000E+00 0.  1.
         11    1    3    3    0    0  0.27054565017E+02  0.67607974163E+01  0.68351678498E+02  0.73821472645E+02  0.00000000000E+00 0. -1.
<mgrwt>
<rscale>  0 0.15618417E+03</rscale>
<asrwt>0</asrwt>
<pdfrwt beam="1">  1        2 0.70985628E-01 0.16329515E+03</pdfrwt>
<pdfrwt beam="2">  1       -2 0.79613827E-02 0.16329515E+03</pdfrwt>
<totfact> 0.62927915E+03</totfact>
</mgrwt>
</event>
<event>
 7    1  0.1330601E-005  0.1434024E+03  0.7546771E-02  0.1220172E+00
          1   -1    0    0  501    0  0.00000000000E+00  0.00000000000E+00  0.38081148276E+02  0.38081148276E+02  0.00000000000E+00 0. -1.
         -1   -1    0    0    0  501 -0.00000000000E+00 -0.00000000000E+00 -0.52650749174E+03  0.52650749174E+03  0.00000000000E+00 0.  1.
         23    2    1    2    0    0 -0.68402210960E+02 -0.16109381875E+02 -0.10060953178E+03  0.15110812558E+03  0.88164692949E+02 0.  0.
          5    1    1    2  502    0  0.89587086458E+02  0.36238306972E+02 -0.36030884576E+03  0.37307320365E+03  0.47000000000E+01 0. -1.
         -5    1    1    2    0  502 -0.21184875499E+02 -0.20128925097E+02 -0.27507965929E+02  0.40407310787E+02  0.47000000000E+01 0. -1.
        -11    1    3    3    0    0 -0.63199112085E+02 -0.29460337837E+02 -0.11258823529E+03  0.13243168050E+03  0.00000000000E+00 0.  1.
         11    1    3    3    0    0 -0.52030988745E+01  0.13350955963E+02  0.11978703512E+02  0.18676445080E+02  0.00000000000E+00 0. -1.
<mgrwt>
<rscale>  0 0.13503349E+03</rscale>
<asrwt>0</asrwt>
<pdfrwt beam="1">  1        1 0.58586383E-02 0.14340243E+03</pdfrwt>
<pdfrwt beam="2">  1       -1 0.81001151E-01 0.14340243E+03</pdfrwt>
<totfact> 0.20659338E+03</totfact>
</mgrwt>
</event>
<event>
 7    1  0.1330601E-005  0.1368588E+03  0.7546771E-02  0.1230240E+00
          1   -1    0    0  501    0  0.00000000000E+00  0.00000000000E+00  0.32139458597E+03  0.32139458597E+03  0.00000000000E+00 0. -1.
         -1   -1    0    0    0  501 -0.00000000000E+00 -0.00000000000E+00 -0.74769547189E+02  0.74769547189E+02  0.00000000000E+00 0.  1.
         23    2    1    2    0    0 -0.95916346862E+01  0.54838225310E+02  0.23661525019E+03  0.25893981299E+03  0.89240235971E+02 0.  0.
          5    1    1    2  502    0  0.66750922008E+02 -0.20380964782E+02  0.49492347954E+01  0.70125988331E+02  0.47000000000E+01 0.  1.
         -5    1    1    2    0  502 -0.57159287322E+02 -0.34457260528E+02  0.50605537887E+01  0.67098331834E+02  0.47000000000E+01 0.  1.
        -11    1    3    3    0    0  0.14480631414E+02  0.55413873192E+02  0.22505647507E+03  0.23223006481E+03  0.00000000000E+00 0. -1.
         11    1    3    3    0    0 -0.24072266100E+02 -0.57564788204E+00  0.11558775120E+02  0.26709748182E+02  0.00000000000E+00 0.  1.
<mgrwt>
<rscale>  0 0.12814120E+03</rscale>
<asrwt>0</asrwt>
<pdfrwt beam="1">  1        1 0.49445320E-01 0.13685875E+03</pdfrwt>
<pdfrwt beam="2">  1       -1 0.11503007E-01 0.13685875E+03</pdfrwt>
<totfact> 0.37939584E+03</totfact>
</mgrwt>
</event>
<event>
 7    1  0.1330601E-005  0.1350407E+03  0.7546771E-02  0.1233786E+00
          2   -1    0    0  501    0  0.00000000000E+00  0.00000000000E+00  0.38122703799E+03  0.38122703799E+03  0.00000000000E+00 0. -1.
         -2   -1    0    0    0  501 -0.00000000000E+00 -0.00000000000E+00 -0.37108243884E+02  0.37108243884E+02  0.00000000000E+00 0.  1.
         23    2    1    2    0    0 -0.49609623121E+02  0.12126298844E+02  0.12861569955E+03  0.16401743777E+03  0.88042943452E+02 0.  0.
          5    1    1    2  502    0  0.57368199753E+02 -0.63330029581E+01  0.24279750158E+02  0.62791826993E+02  0.47000000000E+01 0. -1.
         -5    1    1    2    0  502 -0.77585766317E+01 -0.57932958854E+01  0.19122334439E+03  0.19152601711E+03  0.47000000000E+01 0. -1.
        -11    1    3    3    0    0  0.21006544863E+02 -0.83981851726E+01  0.57187473751E+02  0.61499687766E+02  0.00000000000E+00 0. -1.
         11    1    3    3    0    0 -0.70616167984E+02  0.20524484016E+02  0.71428225800E+02  0.10251775000E+03  0.00000000000E+00 0.  1.
<mgrwt>
<rscale>  0 0.12582500E+03</rscale>
<asrwt>0</asrwt>
<pdfrwt beam="1">  1        2 0.58650311E-01 0.13504067E+03</pdfrwt>
<pdfrwt beam="2">  1       -2 0.57089609E-02 0.13504067E+03</pdfrwt>
<totfact> 0.12699148E+04</totfact>
</mgrwt>
</event>
<event>
 7    1  0.1330601E-005  0.1334198E+03  0.7546771E-02  0.1234988E+00
         -1   -1    0    0    0  501 -0.00000000000E+00  0.00000000000E+00  0.27646815103E+03  0.27646815103E+03  0.00000000000E+00 0.  1.
          1   -1    0    0  501    0  0.00000000000E+00 -0.00000000000E+00 -0.67970423264E+02  0.67970423264E+02  0.00000000000E+00 0. -1.
         23    2    1    2    0    0 -0.43080922690E+02 -0.17892444785E+02  0.75681210143E+01  0.10324662795E+03  0.91795883609E+02 0.  0.
          5    1    1    2  502    0  0.73841930277E+02  0.20092379685E+02  0.19487371369E+03  0.20941391710E+03  0.47000000000E+01 0. -1.
         -5    1    1    2    0  502 -0.30761007587E+02 -0.21999348999E+01  0.60558930568E+01  0.31778029235E+02  0.47000000000E+01 0. -1.
        -11    1    3    3    0    0 -0.32873210496E+02 -0.18529486091E+02  0.48275501966E+02  0.61274088432E+02  0.00000000000E+00 0.  1.
         11    1    3    3    0    0 -0.10207712194E+02  0.63704130611E+00 -0.40707380951E+02  0.41972539520E+02  0.00000000000E+00 0. -1.
<mgrwt>
<rscale>  0 0.12505232E+03</rscale>
<asrwt>0</asrwt>
<pdfrwt beam="2">  1        1 0.10456988E-01 0.13341982E+03</pdfrwt>
<pdfrwt beam="1">  1       -1 0.42533561E-01 0.13341982E+03</pdfrwt>
<totfact> 0.32119593E+03</totfact>
</mgrwt>
</event>
<event>
 7    1  0.1330601E-005  0.1411426E+03  0.7546771E-02  0.1222518E+00
         -2   -1    0    0    0  501 -0.00000000000E+00  0.00000000000E+00  0.58212187259E+02  0.58212187259E+02  0.00000000000E+00 0. -1.
          2   -1    0    0  501    0  0.00000000000E+00 -0.00000000000E+00 -0.29271696015E+03  0.29271696015E+03  0.00000000000E+00 0.  1.
         23    2    1    2    0    0 -0.46245721061E+02  0.46480915853E+02 -0.14588621068E+03  0.18427232937E+03  0.91511543799E+02 0.  0.
          5    1    1    2  502    0  0.30658990654E+02 -0.69083204303E+02 -0.10858642784E+03  0.13238415742E+03  0.47000000000E+01 0.  1.
         -5    1    1    2    0  502  0.15586730407E+02  0.22602288450E+02  0.19967865635E+02  0.34272660620E+02  0.47000000000E+01 0.  1.
        -11    1    3    3    0    0 -0.67590808772E+02  0.10299170491E+02 -0.10730092178E+03  0.12723237857E+03  0.00000000000E+00 0.  1.
         11    1    3    3    0    0  0.21345087711E+02  0.36181745361E+02 -0.38585288909E+02  0.57039950798E+02  0.00000000000E+00 0. -1.
<mgrwt>
<rscale>  0 0.13338463E+03</rscale>
<asrwt>0</asrwt>
<pdfrwt beam="2">  1        2 0.45033378E-01 0.14114264E+03</pdfrwt>
<pdfrwt beam="1">  1       -2 0.89557213E-02 0.14114264E+03</pdfrwt>
<totfact> 0.84544782E+03</totfact>
</mgrwt>
</event>
<event>
 7    1  0.1330601E-005  0.1309760E+03  0.7546771E-02  0.1235940E+00
          2   -1    0    0  501    0  0.00000000000E+00  0.00000000000E+00  0.10861991836E+03  0.10861991836E+03  0.00000000000E+00 0. -1.
         -2   -1    0    0    0  501 -0.00000000000E+00 -0.00000000000E+00 -0.15480342133E+03  0.15480342133E+03  0.00000000000E+00 0.  1.
         23    2    1    2    0    0  0.26573934006E+02 -0.28696579877E+02  0.31313062723E+02  0.11123782476E+03  0.99316051544E+02 0.  0.
          5    1    1    2  502    0  0.18788951709E+02  0.43989690504E+02  0.12919379834E+02  0.49770653525E+02  0.47000000000E+01 0. -1.
         -5    1    1    2    0  502 -0.45362885715E+02 -0.15293110627E+02 -0.90415945525E+02  0.10241486141E+03  0.47000000000E+01 0. -1.
        -11    1    3    3    0    0 -0.34340108614E+02  0.79407830098E+01  0.58316293266E+01  0.35725439046E+02  0.00000000000E+00 0.  1.
         11    1    3    3    0    0  0.60914042621E+02 -0.36637362887E+02  0.25481433396E+02  0.75512385710E+02  0.00000000000E+00 0. -1.
<mgrwt>
<rscale>  0 0.12444436E+03</rscale>
<asrwt>0</asrwt>
<pdfrwt beam="1">  1        2 0.16710757E-01 0.13097600E+03</pdfrwt>
<pdfrwt beam="2">  1       -2 0.23815911E-01 0.13097600E+03</pdfrwt>
<totfact> 0.50473376E+03</totfact>
</mgrwt>
</event>
<event>
 7    1  0.1330601E-005  0.1585157E+03  0.7546771E-02  0.1196727E+00
         -1   -1    0    0    0  501 -0.00000000000E+00  0.00000000000E+00  0.36886910443E+03  0.36886910443E+03  0.00000000000E+00 0.  1.
          1   -1    0    0  501    0  0.00000000000E+00 -0.00000000000E+00 -0.60422153167E+02  0.60422153167E+02  0.00000000000E+00 0. -1.
         23    2    1    2    0    0  0.82858019127E+01 -0.10279032875E+03  0.11791645632E+03  0.18144233009E+03  0.91556115455E+02 0.  0.
          5    1    1    2  502    0 -0.35536193298E+02 -0.12559628644E+02  0.30855166813E+02  0.48935637574E+02  0.47000000000E+01 0. -1.
         -5    1    1    2    0  502  0.27250391385E+02  0.11534995739E+03  0.15967532813E+03  0.19891328994E+03  0.47000000000E+01 0.  1.
        -11    1    3    3    0    0 -0.11759420982E+01 -0.18284730653E+02 -0.14982035942E+02  0.23668029403E+02  0.00000000000E+00 0.  1.
         11    1    3    3    0    0  0.94617440109E+01 -0.84505598097E+02  0.13289849226E+03  0.15777430068E+03  0.00000000000E+00 0. -1.
<mgrwt>
<rscale>  0 0.15309006E+03</rscale>
<asrwt>0</asrwt>
<pdfrwt beam="2">  1        1 0.92957161E-02 0.15851568E+03</pdfrwt>
<pdfrwt beam="1">  1       -1 0.56749091E-01 0.15851568E+03</pdfrwt>
<totfact> 0.22388353E+03</totfact>
</mgrwt>
</event>
<event>
 7    1  0.1330601E-005  0.1702783E+03  0.7546771E-02  0.1184123E+00
         -1   -1    0    0    0  501 -0.00000000000E+00  0.00000000000E+00  0.59798196471E+02  0.59798196471E+02  0.00000000000E+00 0.  1.
          1   -1    0    0  501    0  0.00000000000E+00 -0.00000000000E+00 -0.45588320239E+03  0.45588320239E+03  0.00000000000E+00 0. -1.
         23    2    1    2    0    0 -0.86935579931E+02 -0.76237569337E+02 -0.25603507737E+03  0.29520761595E+03  0.90684142143E+02 0.  0.
          5    1    1    2  502    0  0.70838894619E+01  0.31264137272E+02  0.18480417355E+02  0.37299377942E+02  0.47000000000E+01 0. -1.
         -5    1    1    2    0  502  0.79851690469E+02  0.44973432066E+02 -0.15853034590E+03  0.18317440496E+03  0.47000000000E+01 0. -1.
        -11    1    3    3    0    0 -0.51125021241E+02 -0.56817803335E+02 -0.66402671680E+02  0.10124892779E+03  0.00000000000E+00 0.  1.
         11    1    3    3    0    0 -0.35810558690E+02 -0.19419766002E+02 -0.18963240569E+03  0.19395868816E+03  0.00000000000E+00 0. -1.
<mgrwt>
<rscale>  0 0.16411946E+03</rscale>
<asrwt>0</asrwt>
<pdfrwt beam="2">  1        1 0.70135875E-01 0.17027832E+03</pdfrwt>
<pdfrwt beam="1">  1       -1 0.91997229E-02 0.17027832E+03</pdfrwt>
<totfact> 0.34704201E+03</totfact>
</mgrwt>
</event>
<event>
 7    1  0.1330601E-005  0.1437100E+03  0.7546771E-02  0.1218628E+00
         -1   -1    0    0    0  501 -0.00000000000E+00  0.00000000000E+00  0.15289206956E+03  0.15289206956E+03  0.00000000000E+00 0.  1.
          1   -1    0    0  501    0  0.00000000000E+00 -0.00000000000E+00 -0.12763893131E+03  0.12763893131E+03  0.00000000000E+00 0. -1.
         23    2    1    2    0    0  0.49220188010E+02  0.51040701867E+02 -0.40353900934E+02  0.12255360202E+03  0.91450357530E+02 0.  0.
          5    1    1    2  502    0  0.34645260160E+02 -0.25497331432E+02  0.54336537247E+02  0.69461912165E+02  0.47000000000E+01 0.  1.
         -5    1    1    2    0  502 -0.83865448170E+02 -0.25543370435E+02  0.11270501932E+02  0.88515486689E+02  0.47000000000E+01 0.  1.
        -11    1    3    3    0    0 -0.23898023322E+02  0.74369007853E+01  0.58329159180E+01  0.25699142400E+02  0.00000000000E+00 0.  1.
         11    1    3    3    0    0  0.73118211332E+02  0.43603801082E+02 -0.46186816852E+02  0.96854459619E+02  0.00000000000E+00 0. -1.
<mgrwt>
<rscale>  0 0.13613404E+03</rscale>
<asrwt>0</asrwt>
<pdfrwt beam="2">  1        1 0.19636759E-01 0.14371004E+03</pdfrwt>
<pdfrwt beam="1">  1       -1 0.23521857E-01 0.14371004E+03</pdfrwt>
<totfact> 0.38846031E+03</totfact>
</mgrwt>
</event>
<event>
 7    1  0.1330601E-005  0.1414083E+03  0.7546771E-02  0.1222047E+00
          1   -1    0    0  501    0  0.00000000000E+00  0.00000000000E+00  0.52118565893E+03  0.52118565893E+03  0.00000000000E+00 0. -1.
         -1   -1    0    0    0  501 -0.00000000000E+00 -0.00000000000E+00 -0.32509027529E+02  0.32509027529E+02  0.00000000000E+00 0.  1.
         23    2    1    2    0    0  0.12156885457E+02  0.64988878794E+02  0.16020438632E+03  0.19607712873E+03  0.91703057660E+02 0.  0.
          5    1    1    2  502    0  0.22986779747E+01  0.27857115372E+02  0.17736283056E+03  0.17961338052E+03  0.47000000000E+01 0.  1.
         -5    1    1    2    0  502 -0.14455563431E+02 -0.92845994165E+02  0.15110941452E+03  0.17800417721E+03  0.47000000000E+01 0.  1.
        -11    1    3    3    0    0  0.10847120355E+02  0.81963289775E+02  0.83503379857E+02  0.11750938404E+03  0.00000000000E+00 0.  1.
         11    1    3    3    0    0  0.13097651017E+01 -0.16974410982E+02  0.76701006461E+02  0.78567744685E+02  0.00000000000E+00 0. -1.
<mgrwt>
<rscale>  0 0.13371369E+03</rscale>
<asrwt>0</asrwt>
<pdfrwt beam="1">  1        1 0.80182403E-01 0.14140828E+03</pdfrwt>
<pdfrwt beam="2">  1       -1 0.50013892E-02 0.14140828E+03</pdfrwt>
<totfact> 0.72172135E+03</totfact>
</mgrwt>
</event>
<event>
 7    1  0.1330601E-005  0.1552053E+03  0.7546771E-02  0.1201872E+00
          1   -1    0    0  501    0  0.00000000000E+00  0.00000000000E+00  0.77480386421E+03  0.77480386421E+03  0.00000000000E+00 0. -1.
         -1   -1    0    0    0  501 -0.00000000000E+00 -0.00000000000E+00 -0.26747159410E+02  0.26747159410E+02  0.00000000000E+00 0.  1.
         23    2    1    2    0    0 -0.60056927308E+02  0.69689082599E+02  0.30460361345E+03  0.33172196490E+03  0.93769386892E+02 0.  0.
          5    1    1    2  502    0  0.96172697121E+02 -0.68523885496E+02  0.32073876419E+03  0.34181889270E+03  0.47000000000E+01 0.  1.
         -5    1    1    2    0  502 -0.36115769813E+02 -0.11651971029E+01  0.12271432717E+03  0.12801016602E+03  0.47000000000E+01 0.  1.
        -11    1    3    3    0    0 -0.53379684549E+02 -0.55650082654E+01  0.97921887839E+02  0.11166492805E+03  0.00000000000E+00 0.  1.
         11    1    3    3    0    0 -0.66772427584E+01  0.75254090865E+02  0.20668172561E+03  0.22005703684E+03  0.00000000000E+00 0. -1.
<mgrwt>
<rscale>  0 0.14886680E+03</rscale>
<asrwt>0</asrwt>
<pdfrwt beam="1">  1        1 0.11920058E+00 0.15520535E+03</pdfrwt>
<pdfrwt beam="2">  1       -1 0.41149482E-02 0.15520535E+03</pdfrwt>
<totfact> 0.55669667E+03</totfact>
</mgrwt>
</event>
<event>
 7    1  0.1330601E-005  0.1716062E+03  0.7546771E-02  0.1188593E+00
         -4   -1    0    0    0  501 -0.00000000000E+00  0.00000000000E+00  0.20591103812E+03  0.20591103812E+03  0.00000000000E+00 0.  1.
          4   -1    0    0  501    0  0.00000000000E+00 -0.00000000000E+00 -0.12875172737E+03  0.12875172737E+03  0.00000000000E+00 0. -1.
         23    2    1    2    0    0  0.26289461195E+02 -0.89531573420E+02 -0.28593990682E+02  0.13308787042E+03  0.90486057161E+02 0.  0.
          5    1    1    2  502    0 -0.26200625209E+02  0.71227875913E+02 -0.16550590294E+02  0.77819631891E+02  0.47000000000E+01 0. -1.
         -5    1    1    2    0  502 -0.88835985654E-01  0.18303697506E+02  0.12230389173E+03  0.12375526319E+03  0.47000000000E+01 0.  1.
        -11    1    3    3    0    0 -0.21720380616E+02 -0.63446483854E+02 -0.38839910950E+02  0.77496902713E+02  0.00000000000E+00 0. -1.
         11    1    3    3    0    0  0.48009841811E+02 -0.26085089566E+02  0.10245920267E+02  0.55590967706E+02  0.00000000000E+00 0.  1.
<mgrwt>
<rscale>  0 0.16009165E+03</rscale>
<asrwt>0</asrwt>
<pdfrwt beam="2">  1        4 0.19807958E-01 0.17160617E+03</pdfrwt>
<pdfrwt beam="1">  1       -4 0.31678621E-01 0.17160617E+03</pdfrwt>
<totfact> 0.38145838E+02</totfact>
</mgrwt>
</event>
<event>
 7    1  0.1330601E-005  0.1257216E+03  0.7546771E-02  0.1259985E+00
          3   -1    0    0  501    0  0.00000000000E+00  0.00000000000E+00  0.23716037328E+03  0.23716037328E+03  0.00000000000E+00 0. -1.
         -3   -1    0    0    0  501 -0.00000000000E+00 -0.00000000000E+00 -0.54753967115E+02  0.54753967115E+02  0.00000000000E+00 0.  1.
         23    2    1    2    0    0  0.13089336334E+02 -0.32002241306E+01  0.14111126950E+03  0.15958441077E+03  0.73302262048E+02 0.  0.
          5    1    1    2  502    0  0.46081120335E+02  0.35252536538E+02  0.21071562621E+02  0.61905668036E+02  0.47000000000E+01 0.  1.
         -5    1    1    2    0  502 -0.59170456668E+02 -0.32052312408E+02  0.20223574045E+02  0.70424261588E+02  0.47000000000E+01 0.  1.
        -11    1    3    3    0    0 -0.25374238658E+02  0.13527431546E+02  0.83569978492E+02  0.88378643896E+02  0.00000000000E+00 0. -1.
         11    1    3    3    0    0  0.38463574992E+02 -0.16727655676E+02  0.57541291007E+02  0.71205766876E+02  0.00000000000E+00 0.  1.
<mgrwt>
<rscale>  0 0.11031662E+03</rscale>
<asrwt>0</asrwt>
<pdfrwt beam="1">  1        3 0.36486211E-01 0.12572160E+03</pdfrwt>
<pdfrwt beam="2">  1       -3 0.84236874E-02 0.12572160E+03</pdfrwt>
<totfact> 0.16475020E+03</totfact>
</mgrwt>
</event>
<event>
 7    1  0.1330601E-005  0.1843408E+03  0.7546771E-02  0.1172891E+00
         -2   -1    0    0    0  501 -0.00000000000E+00  0.00000000000E+00  0.76092889303E+03  0.76092889303E+03  0.00000000000E+00 0.  1.
          2   -1    0    0  501    0  0.00000000000E+00 -0.00000000000E+00 -0.47287563865E+02  0.47287563865E+02  0.00000000000E+00 0. -1.
         23    2    1    2    0    0  0.11055121509E+03  0.78263748211E+02  0.13598262357E+03  0.20185756698E+03  0.62517341506E+02 0.  0.
          5    1    1    2  502    0 -0.13179621183E+03 -0.50071686692E+02  0.51814022142E+03  0.53699980848E+03  0.47000000000E+01 0. -1.
         -5    1    1    2    0  502  0.21244996744E+02 -0.28192061519E+02  0.59518484173E+02  0.69359081435E+02  0.47000000000E+01 0. -1.
        -11    1    3    3    0    0  0.63211307332E+02  0.46807972444E+02  0.11880169702E+03  0.14247981918E+03  0.00000000000E+00 0.  1.
         11    1    3    3    0    0  0.47339907757E+02  0.31455775767E+02  0.17180926551E+02  0.59377747791E+02  0.00000000000E+00 0. -1.
<mgrwt>
<rscale>  0 0.17484170E+03</rscale>
<asrwt>0</asrwt>
<pdfrwt beam="2">  1        2 0.72750104E-02 0.18434078E+03</pdfrwt>
<pdfrwt beam="1">  1       -2 0.11706597E+00 0.18434078E+03</pdfrwt>
<totfact> 0.56128444E+02</totfact>
</mgrwt>
</event>
<event>
 7    1  0.1330601E-005  0.1596356E+03  0.7546771E-02  0.1197112E+00
         -1   -1    0    0    0  501 -0.00000000000E+00  0.00000000000E+00  0.11273335021E+03  0.11273335021E+03  0.00000000000E+00 0.  1.
          1   -1    0    0  501    0  0.00000000000E+00 -0.00000000000E+00 -0.19207574785E+03  0.19207574785E+03  0.00000000000E+00 0. -1.
         23    2    1    2    0    0 -0.92452179639E+02 -0.36160320872E+02 -0.47236280633E+02  0.14197689815E+03  0.89839852377E+02 0.  0.
          5    1    1    2  502    0  0.99299370462E+02  0.53469637773E+02  0.13179695078E+02  0.11364489210E+03  0.47000000000E+01 0.  1.
         -5    1    1    2    0  502 -0.68471908233E+01 -0.17309316901E+02 -0.45285812079E+02  0.49187307808E+02  0.47000000000E+01 0.  1.
        -11    1    3    3    0    0 -0.74644327516E+02 -0.14061538803E+02 -0.71740874765E+02  0.10448088637E+03  0.00000000000E+00 0.  1.
         11    1    3    3    0    0 -0.17807852123E+02 -0.22098782069E+02  0.24504594133E+02  0.37496011785E+02  0.00000000000E+00 0. -1.
<mgrwt>
<rscale>  0 0.15276830E+03</rscale>
<asrwt>0</asrwt>
<pdfrwt beam="2">  1        1 0.29550115E-01 0.15963559E+03</pdfrwt>
<pdfrwt beam="1">  1       -1 0.17343592E-01 0.15963559E+03</pdfrwt>
<totfact> 0.38116913E+03</totfact>
</mgrwt>
</event>
<event>
 7    1  0.1330601E-005  0.1323869E+03  0.7546771E-02  0.1231757E+00
         -2   -1    0    0    0  501 -0.00000000000E+00  0.00000000000E+00  0.41066721917E+02  0.41066721917E+02  0.00000000000E+00 0. -1.
          2   -1    0    0  501    0  0.00000000000E+00 -0.00000000000E+00 -0.40036793034E+03  0.40036793034E+03  0.00000000000E+00 0.  1.
         23    2    1    2    0    0  0.39787791847E+02  0.17741966126E+02 -0.23141031281E+03  0.25736301700E+03  0.10386117610E+03 0.  0.
          5    1    1    2  502    0 -0.41088291842E+02 -0.65173466734E+02 -0.47584007624E+02  0.90676106413E+02  0.47000000000E+01 0. -1.
         -5    1    1    2    0  502  0.13004999951E+01  0.47431500608E+02 -0.80306887985E+02  0.93395528844E+02  0.47000000000E+01 0. -1.
        -11    1    3    3    0    0  0.72298307219E+02  0.81746848127E+01 -0.19234695100E+03  0.20564829262E+03  0.00000000000E+00 0.  1.
         11    1    3    3    0    0 -0.32510515372E+02  0.95672813133E+01 -0.39063361812E+02  0.51714724378E+02  0.00000000000E+00 0. -1.
<mgrwt>
<rscale>  0 0.12714374E+03</rscale>
<asrwt>0</asrwt>
<pdfrwt beam="2">  1        2 0.61595066E-01 0.13238688E+03</pdfrwt>
<pdfrwt beam="1">  1       -2 0.63179572E-02 0.13238688E+03</pdfrwt>
<totfact> 0.10321107E+04</totfact>
</mgrwt>
</event>
<event>
 7    1  0.1330601E-005  0.1512501E+03  0.7546771E-02  0.1216633E+00
          2   -1    0    0  501    0  0.00000000000E+00  0.00000000000E+00  0.10001979833E+04  0.10001979833E+04  0.00000000000E+00 0. -1.
         -2   -1    0    0    0  501 -0.00000000000E+00 -0.00000000000E+00 -0.16430110812E+02  0.16430110812E+02  0.00000000000E+00 0.  1.
         23    2    1    2    0    0 -0.38047190144E+02  0.15140960935E+02  0.34499956804E+03  0.36019718739E+03  0.95081409746E+02 0.  0.
          5    1    1    2  502    0  0.28607541759E+02 -0.80213445755E+02  0.35307710998E+03  0.36323287835E+03  0.47000000000E+01 0. -1.
         -5    1    1    2    0  502  0.94396483849E+01  0.65072484819E+02  0.28569119444E+03  0.29319802834E+03  0.47000000000E+01 0.  1.
        -11    1    3    3    0    0 -0.21602433386E+02  0.49573570433E+02  0.11531615022E+03  0.12736568814E+03  0.00000000000E+00 0.  1.
         11    1    3    3    0    0 -0.16444756758E+02 -0.34432609497E+02  0.22968341781E+03  0.23283149924E+03  0.00000000000E+00 0. -1.
<mgrwt>
<rscale>  0 0.13757276E+03</rscale>
<asrwt>0</asrwt>
<pdfrwt beam="1">  1        2 0.15387657E+00 0.15125009E+03</pdfrwt>
<pdfrwt beam="2">  1       -2 0.25277101E-02 0.15125009E+03</pdfrwt>
<totfact> 0.13858606E+04</totfact>
</mgrwt>
</event>
<event>
 7    1  0.1812879E-005  0.2520469E+03  0.7546771E-02  0.1114251E+00
         -2   -1    0    0    0  501 -0.00000000000E+00  0.00000000000E+00  0.12444726540E+03  0.12444726540E+03  0.00000000000E+00 0.  1.
          2   -1    0    0  501    0  0.00000000000E+00 -0.00000000000E+00 -0.52054398207E+03  0.52054398207E+03  0.00000000000E+00 0. -1.
         23    2    1    2    0    0 -0.21525828290E+03 -0.39581886911E+02 -0.27966661942E+03  0.36735185704E+03  0.93974010911E+02 0.  0.
          5    1    1    2  502    0  0.22545946852E+03  0.17668901195E+02 -0.96345313962E+02  0.24586311545E+03  0.47000000000E+01 0.  1.
         -5    1    1    2    0  502 -0.10201185624E+02  0.21912985716E+02 -0.20084783293E+02  0.31776274971E+02  0.47000000000E+01 0.  1.
        -11    1    3    3    0    0 -0.14339507450E+03  0.11737065474E+02 -0.13176972522E+03  0.19509783848E+03  0.00000000000E+00 0.  1.
         11    1    3    3    0    0 -0.71863208401E+02 -0.51318952386E+02 -0.14789689420E+03  0.17225401856E+03  0.00000000000E+00 0. -1.
<mgrwt>
<rscale>  0 0.24850863E+03</rscale>
<asrwt>0</asrwt>
<pdfrwt beam="2">  1        2 0.80083687E-01 0.25204695E+03</pdfrwt>
<pdfrwt beam="1">  1       -2 0.19145734E-01 0.25204695E+03</pdfrwt>
<totfact> 0.13467895E+03</totfact>
</mgrwt>
</event>
<event>
 7    1  0.1330601E-005  0.1959658E+03  0.7546771E-02  0.1157534E+00
          2   -1    0    0  501    0  0.00000000000E+00  0.00000000000E+00  0.15409600857E+04  0.15409600857E+04  0.00000000000E+00 0. -1.
         -2   -1    0    0    0  501 -0.00000000000E+00 -0.00000000000E+00 -0.23129205809E+02  0.23129205809E+02  0.00000000000E+00 0.  1.
         23    2    1    2    0    0  0.25743176142E+02  0.14870229315E+03  0.59900483175E+03  0.62459800041E+03  0.92416397653E+02 0.  0.
          5    1    1    2  502    0 -0.92209720477E+01 -0.64876541351E+02  0.12635229993E+03  0.14241132554E+03  0.47000000000E+01 0.  1.
         -5    1    1    2    0  502 -0.16522204094E+02 -0.83825751798E+02  0.79247374820E+03  0.79707996555E+03  0.47000000000E+01 0.  1.
        -11    1    3    3    0    0  0.30502981228E+02  0.12666025678E+03  0.58186925158E+03  0.59627600862E+03  0.00000000000E+00 0. -1.
         11    1    3    3    0    0 -0.47598050865E+01  0.22042036370E+02  0.17135580165E+02  0.28321991798E+02  0.00000000000E+00 0.  1.
<mgrwt>
<rscale>  0 0.19103182E+03</rscale>
<asrwt>0</asrwt>
<pdfrwt beam="1">  1        2 0.23707070E+00 0.19596576E+03</pdfrwt>
<pdfrwt beam="2">  1       -2 0.35583406E-02 0.19596576E+03</pdfrwt>
<totfact> 0.42356366E+03</totfact>
</mgrwt>
</event>
<event>
 7    1  0.1330601E-005  0.2164573E+03  0.7546771E-02  0.1140006E+00
         -2   -1    0    0    0  501 -0.00000000000E+00  0.00000000000E+00  0.63766715156E+02  0.63766715156E+02  0.00000000000E+00 0.  1.
          2   -1    0    0  501    0  0.00000000000E+00 -0.00000000000E+00 -0.71374151309E+03  0.71374151309E+03  0.00000000000E+00 0. -1.
         23    2    1    2    0    0 -0.17479394768E+03 -0.25985494201E+02 -0.40019795210E+03  0.44699008150E+03  0.91725471060E+02 0.  0.
          5    1    1    2  502    0  0.11139579669E+03 -0.31241317322E+02 -0.20123267959E+03  0.23216744984E+03  0.47000000000E+01 0.  1.
         -5    1    1    2    0  502  0.63398150992E+02  0.57226811523E+02 -0.48544166245E+02  0.98350696910E+02  0.47000000000E+01 0.  1.
        -11    1    3    3    0    0 -0.16042187061E+03 -0.46780407730E+02 -0.37823398411E+03  0.41350275677E+03  0.00000000000E+00 0.  1.
         11    1    3    3    0    0 -0.14372077072E+02  0.20794913529E+02 -0.21963967987E+02  0.33487324733E+02  0.00000000000E+00 0. -1.
<mgrwt>
<rscale>  0 0.21198166E+03</rscale>
<asrwt>0</asrwt>
<pdfrwt beam="2">  1        2 0.10980639E+00 0.21645732E+03</pdfrwt>
<pdfrwt beam="1">  1       -2 0.98102635E-02 0.21645732E+03</pdfrwt>
<totfact> 0.27819439E+03</totfact>
</mgrwt>
</event>
<event>
 7    1  0.1330601E-005  0.2331844E+03  0.7546771E-02  0.1127310E+00
         -1   -1    0    0    0  501 -0.00000000000E+00  0.00000000000E+00  0.10304793953E+04  0.10304793953E+04  0.00000000000E+00 0.  1.
          1   -1    0    0  501    0  0.00000000000E+00 -0.00000000000E+00 -0.49896619559E+02  0.49896619559E+02  0.00000000000E+00 0. -1.
         23    2    1    2    0    0  0.11252024505E+03  0.16152784828E+03  0.53741485627E+03  0.57960383504E+03  0.91508614567E+02 0.  0.
          5    1    1    2  502    0  0.86847066380E+01 -0.88116047754E+01  0.13783923728E+03  0.13847315206E+03  0.47000000000E+01 0. -1.
         -5    1    1    2    0  502 -0.12120495168E+03 -0.15271624350E+03  0.30532868218E+03  0.36229902775E+03  0.47000000000E+01 0. -1.
        -11    1    3    3    0    0  0.72405616429E+02  0.15787625452E+03  0.47006842968E+03  0.50113053551E+03  0.00000000000E+00 0.  1.
         11    1    3    3    0    0  0.40114628618E+02  0.36515937619E+01  0.67346426590E+02  0.78473299539E+02  0.00000000000E+00 0. -1.
<mgrwt>
<rscale>  0 0.22905094E+03</rscale>
<asrwt>0</asrwt>
<pdfrwt beam="2">  1        1 0.76764038E-02 0.23318441E+03</pdfrwt>
<pdfrwt beam="1">  1       -1 0.15853528E+00 0.23318441E+03</pdfrwt>
<totfact> 0.30074294E+02</totfact>
</mgrwt>
</event>
<event>
 7    1  0.1330601E-005  0.1942931E+03  0.7546771E-02  0.1158858E+00
          2   -1    0    0  501    0  0.00000000000E+00  0.00000000000E+00  0.10621216400E+04  0.10621216400E+04  0.00000000000E+00 0. -1.
         -2   -1    0    0    0  501 -0.00000000000E+00 -0.00000000000E+00 -0.32612830629E+02  0.32612830629E+02  0.00000000000E+00 0.  1.
         23    2    1    2    0    0  0.95748502687E+02 -0.11382982556E+03  0.43456915704E+03  0.46887267322E+03  0.94160641948E+02 0.  0.
          5    1    1    2  502    0 -0.10376520324E+03  0.10033983814E+03  0.32760493212E+03  0.35802567236E+03  0.47000000000E+01 0.  1.
         -5    1    1    2    0  502  0.80167005486E+01  0.13489987416E+02  0.26733472025E+03  0.26783612509E+03  0.47000000000E+01 0.  1.
        -11    1    3    3    0    0  0.69619341145E+02 -0.44501626840E+02  0.11999539127E+03  0.14569193999E+03  0.00000000000E+00 0.  1.
         11    1    3    3    0    0  0.26129161542E+02 -0.69328198716E+02  0.31457376577E+03  0.32318073323E+03  0.00000000000E+00 0. -1.
<mgrwt>
<rscale>  0 0.18956050E+03</rscale>
<asrwt>0</asrwt>
<pdfrwt beam="1">  1        2 0.16340330E+00 0.19429308E+03</pdfrwt>
<pdfrwt beam="2">  1       -2 0.50173593E-02 0.19429308E+03</pdfrwt>
<totfact> 0.46394609E+03</totfact>
</mgrwt>
</event>
<event>
 7    1  0.1330601E-005  0.2131114E+03  0.7546771E-02  0.1143229E+00
          1   -1    0    0  501    0  0.00000000000E+00  0.00000000000E+00  0.30393146854E+03  0.30393146854E+03  0.00000000000E+00 0. -1.
         -1   -1    0    0    0  501 -0.00000000000E+00 -0.00000000000E+00 -0.13577234828E+03  0.13577234828E+03  0.00000000000E+00 0.  1.
         23    2    1    2    0    0  0.76383935282E+02 -0.15478626739E+03  0.75105881478E+02  0.20716269280E+03  0.86499674652E+02 0.  0.
          5    1    1    2  502    0 -0.33473725332E+02  0.16526842949E+03  0.73826770279E+02  0.18413751949E+03  0.47000000000E+01 0.  1.
         -5    1    1    2    0  502 -0.42910209950E+02 -0.10482162102E+02  0.19226468505E+02  0.48403604530E+02  0.47000000000E+01 0.  1.
        -11    1    3    3    0    0  0.41723334601E+02 -0.86873456355E+01  0.11903948687E+02  0.44249413767E+02  0.00000000000E+00 0.  1.
         11    1    3    3    0    0  0.34660600681E+02 -0.14609892176E+03  0.63201932791E+02  0.16291327904E+03  0.00000000000E+00 0. -1.
<mgrwt>
<rscale>  0 0.20791362E+03</rscale>
<asrwt>0</asrwt>
<pdfrwt beam="1">  1        1 0.46758687E-01 0.21311140E+03</pdfrwt>
<pdfrwt beam="2">  1       -1 0.20888054E-01 0.21311140E+03</pdfrwt>
<totfact> 0.16083076E+03</totfact>
</mgrwt>
</event>
<event>
 7    1  0.1330601E-005  0.1632527E+03  0.7546771E-02  0.1191600E+00
          2   -1    0    0  501    0  0.00000000000E+00  0.00000000000E+00  0.11997304948E+03  0.11997304948E+03  0.00000000000E+00 0. -1.
         -2   -1    0    0    0  501 -0.00000000000E+00 -0.00000000000E+00 -0.19643549729E+03  0.19643549729E+03  0.00000000000E+00 0.  1.
         23    2    1    2    0    0 -0.34798308347E+02 -0.99071909012E+02 -0.55649513271E+02  0.15183446050E+03  0.94502220334E+02 0.  0.
          5    1    1    2  502    0  0.34053052233E+01 -0.10010262913E+02 -0.46652152683E+02  0.48065734335E+02  0.47000000000E+01 0. -1.
         -5    1    1    2    0  502  0.31393003124E+02  0.10908217192E+03  0.25839218146E+02  0.11650835194E+03  0.47000000000E+01 0. -1.
        -11    1    3    3    0    0 -0.71653556644E+01 -0.50690889526E+02 -0.76749041565E+02  0.92256837058E+02  0.00000000000E+00 0.  1.
         11    1    3    3    0    0 -0.27632952683E+02 -0.48381019486E+02  0.21099528294E+02  0.59577623440E+02  0.00000000000E+00 0. -1.
<mgrwt>
<rscale>  0 0.15745512E+03</rscale>
<asrwt>0</asrwt>
<pdfrwt beam="1">  1        2 0.18457392E-01 0.16325272E+03</pdfrwt>
<pdfrwt beam="2">  1       -2 0.30220846E-01 0.16325272E+03</pdfrwt>
<totfact> 0.29918253E+03</totfact>
</mgrwt>
</event>
<event>
 7    1  0.1330601E-005  0.1202571E+03  0.7546771E-02  0.1253889E+00
          1   -1    0    0  501    0  0.00000000000E+00  0.00000000000E+00  0.11297767974E+03  0.11297767974E+03  0.00000000000E+00 0. -1.
         -1   -1    0    0    0  501 -0.00000000000E+00 -0.00000000000E+00 -0.11164587876E+03  0.11164587876E+03  0.00000000000E+00 0.  1.
         23    2    1    2    0    0  0.33478842481E+02 -0.10399320510E+02 -0.29486917250E+02  0.10048021890E+03  0.89430516833E+02 0.  0.
          5    1    1    2  502    0 -0.17112071691E+02 -0.37727658069E+02  0.53878476424E+02  0.68126202027E+02  0.47000000000E+01 0. -1.
         -5    1    1    2    0  502 -0.16366770791E+02  0.48126978579E+02 -0.23059758200E+02  0.56017137570E+02  0.47000000000E+01 0.  1.
        -11    1    3    3    0    0  0.59727368106E+02 -0.98013504611E+01  0.62488313196E+00  0.60529459363E+02  0.00000000000E+00 0.  1.
         11    1    3    3    0    0 -0.26248525625E+02 -0.59797004912E+00 -0.30111800382E+02  0.39950759541E+02  0.00000000000E+00 0. -1.
<mgrwt>
<rscale>  0 0.11368796E+03</rscale>
<asrwt>0</asrwt>
<pdfrwt beam="1">  1        1 0.17381182E-01 0.12025712E+03</pdfrwt>
<pdfrwt beam="2">  1       -1 0.17176289E-01 0.12025712E+03</pdfrwt>
<totfact> 0.74321316E+03</totfact>
</mgrwt>
</event>
<event>
 7    1  0.1625640E-005  0.2811704E+03  0.7546771E-02  0.1095495E+00
         -2   -1    0    0    0  501 -0.00000000000E+00  0.00000000000E+00  0.62815132737E+02  0.62815132737E+02  0.00000000000E+00 0.  1.
          2   -1    0    0  501    0  0.00000000000E+00 -0.00000000000E+00 -0.13891231481E+04  0.13891231481E+04  0.00000000000E+00 0. -1.
         23    2    1    2    0    0  0.25185669753E+03 -0.36583089225E+00 -0.89428176310E+03  0.93647393910E+03  0.11752292063E+03 0.  0.
          5    1    1    2  502    0 -0.12131724281E+03 -0.48772077197E+02 -0.28018858764E+03  0.30923182818E+03  0.47000000000E+01 0. -1.
         -5    1    1    2    0  502 -0.13053945472E+03  0.49137908090E+02 -0.15183766464E+03  0.20623251357E+03  0.47000000000E+01 0. -1.
        -11    1    3    3    0    0  0.37897963750E+02 -0.44717632839E+02 -0.21974338668E+03  0.22742708355E+03  0.00000000000E+00 0. -1.
         11    1    3    3    0    0  0.21395873378E+03  0.44351801946E+02 -0.67453837642E+03  0.70904685555E+03  0.00000000000E+00 0.  1.
<mgrwt>
<rscale>  0 0.28035610E+03</rscale>
<asrwt>0</asrwt>
<pdfrwt beam="2">  1        2 0.21371123E+00 0.28117042E+03</pdfrwt>
<pdfrwt beam="1">  1       -2 0.96638675E-02 0.28117042E+03</pdfrwt>
<totfact> 0.10991061E+03</totfact>
</mgrwt>
</event>
<event>
 7    1  0.1330601E-005  0.2008107E+03  0.7546771E-02  0.1153408E+00
          2   -1    0    0  501    0  0.00000000000E+00  0.00000000000E+00  0.37984875015E+03  0.37984875015E+03  0.00000000000E+00 0. -1.
         -2   -1    0    0    0  501 -0.00000000000E+00 -0.00000000000E+00 -0.96298102759E+02  0.96298102759E+02  0.00000000000E+00 0.  1.
         23    2    1    2    0    0  0.15097714635E+03  0.43675745227E+02  0.12210628031E+03  0.21848578154E+03  0.90135584552E+02 0.  0.
          5    1    1    2  502    0 -0.94998845744E+02  0.36933094607E+02  0.91545076158E+02  0.13708181914E+03  0.47000000000E+01 0. -1.
         -5    1    1    2    0  502 -0.55978300601E+02 -0.80608839834E+02  0.69899290919E+02  0.12057925223E+03  0.47000000000E+01 0. -1.
        -11    1    3    3    0    0  0.66121965563E+02  0.48079107017E+02  0.17302353945E+02  0.83564862912E+02  0.00000000000E+00 0.  1.
         11    1    3    3    0    0  0.84855180782E+02 -0.44033617902E+01  0.10480392637E+03  0.13492091863E+03  0.00000000000E+00 0. -1.
<mgrwt>
<rscale>  0 0.19571205E+03</rscale>
<asrwt>0</asrwt>
<pdfrwt beam="1">  1        2 0.58438268E-01 0.20081072E+03</pdfrwt>
<pdfrwt beam="2">  1       -2 0.14815093E-01 0.20081072E+03</pdfrwt>
<totfact> 0.29125410E+03</totfact>
</mgrwt>
</event>
<event>
 7    1  0.1330601E-005  0.1686037E+03  0.7546771E-02  0.1185761E+00
         -2   -1    0    0    0  501 -0.00000000000E+00  0.00000000000E+00  0.48483393014E+02  0.48483393014E+02  0.00000000000E+00 0.  1.
          2   -1    0    0  501    0  0.00000000000E+00 -0.00000000000E+00 -0.54415679116E+03  0.54415679116E+03  0.00000000000E+00 0. -1.
         23    2    1    2    0    0 -0.11285202827E+03 -0.81898633084E+01 -0.30497165404E+03  0.33809284652E+03  0.92175967354E+02 0.  0.
          5    1    1    2  502    0  0.64021562278E+02  0.38415995651E+02 -0.18134777488E+03  0.19617251238E+03  0.47000000000E+01 0. -1.
         -5    1    1    2    0  502  0.48830465989E+02 -0.30226132342E+02 -0.93539692235E+01  0.58374825270E+02  0.47000000000E+01 0. -1.
        -11    1    3    3    0    0 -0.60313859055E+02  0.19405578512E+02 -0.24749874620E+03  0.25547987679E+03  0.00000000000E+00 0. -1.
         11    1    3    3    0    0 -0.52538169212E+02 -0.27595441820E+02 -0.57472907838E+02  0.82612969738E+02  0.00000000000E+00 0.  1.
<mgrwt>
<rscale>  0 0.16262799E+03</rscale>
<asrwt>0</asrwt>
<pdfrwt beam="2">  1        2 0.83716432E-01 0.16860365E+03</pdfrwt>
<pdfrwt beam="1">  1       -2 0.74589833E-02 0.16860365E+03</pdfrwt>
<totfact> 0.58082993E+03</totfact>
</mgrwt>
</event>
<event>
 7    1  0.1330601E-005  0.1615760E+03  0.7546771E-02  0.1194418E+00
         -1   -1    0    0    0  501 -0.00000000000E+00  0.00000000000E+00  0.28346027857E+03  0.28346027857E+03  0.00000000000E+00 0.  1.
          1   -1    0    0  501    0  0.00000000000E+00 -0.00000000000E+00 -0.13960114866E+03  0.13960114866E+03  0.00000000000E+00 0. -1.
         23    2    1    2    0    0  0.40284434214E+02 -0.94125202412E+02 -0.70967414948E+02  0.15425434361E+03  0.90970540119E+02 0.  0.
          5    1    1    2  502    0 -0.72564379828E+02  0.12654573553E+02  0.96791318452E+02  0.12172254014E+03  0.47000000000E+01 0. -1.
         -5    1    1    2    0  502  0.32279945613E+02  0.81470628859E+02  0.11803522640E+03  0.14708454347E+03  0.47000000000E+01 0. -1.
        -11    1    3    3    0    0  0.15791818955E+02 -0.31397060861E+02  0.20488617098E+02  0.40680958779E+02  0.00000000000E+00 0.  1.
         11    1    3    3    0    0  0.24492615259E+02 -0.62728141551E+02 -0.91456032046E+02  0.11357338483E+03  0.00000000000E+00 0. -1.
<mgrwt>
<rscale>  0 0.15503546E+03</rscale>
<asrwt>0</asrwt>
<pdfrwt beam="2">  1        1 0.21477100E-01 0.16157600E+03</pdfrwt>
<pdfrwt beam="1">  1       -1 0.43609273E-01 0.16157600E+03</pdfrwt>
<totfact> 0.12168143E+03</totfact>
</mgrwt>
</event>
<event>
 7    1  0.1330601E-005  0.2192722E+03  0.7546771E-02  0.1137790E+00
         -1   -1    0    0    0  501 -0.00000000000E+00  0.00000000000E+00  0.54338510944E+02  0.54338510944E+02  0.00000000000E+00 0.  1.
          1   -1    0    0  501    0  0.00000000000E+00 -0.00000000000E+00 -0.81677776968E+03  0.81677776968E+03  0.00000000000E+00 0. -1.
         23    2    1    2    0    0 -0.87011713649E+02  0.15774756224E+03 -0.36677478493E+03  0.41875506507E+03  0.91524477358E+02 0.  0.
          5    1    1    2  502    0  0.86216148654E+00 -0.10902858944E+03 -0.13560237932E+03  0.17406341349E+03  0.47000000000E+01 0.  1.
         -5    1    1    2    0  502  0.86149552162E+02 -0.48718972803E+02 -0.26006209448E+03  0.27829780207E+03  0.47000000000E+01 0.  1.
        -11    1    3    3    0    0 -0.10208369607E+02  0.27174834834E+02 -0.92592426289E+01  0.30469920123E+02  0.00000000000E+00 0.  1.
         11    1    3    3    0    0 -0.76803344042E+02  0.13057272741E+03 -0.35751554231E+03  0.38828514495E+03  0.00000000000E+00 0. -1.
<mgrwt>
<rscale>  0 0.21483886E+03</rscale>
<asrwt>0</asrwt>
<pdfrwt beam="2">  1        1 0.12565811E+00 0.21927219E+03</pdfrwt>
<pdfrwt beam="1">  1       -1 0.83597712E-02 0.21927219E+03</pdfrwt>
<totfact> 0.17904614E+03</totfact>
</mgrwt>
</event>
<event>
 7    1  0.1330601E-005  0.2562610E+03  0.7546771E-02  0.1111364E+00
          2   -1    0    0  501    0  0.00000000000E+00  0.00000000000E+00  0.17127602600E+04  0.17127602600E+04  0.00000000000E+00 0.  1.
         -2   -1    0    0    0  501 -0.00000000000E+00 -0.00000000000E+00 -0.37722643669E+02  0.37722643669E+02  0.00000000000E+00 0. -1.
         23    2    1    2    0    0  0.11902111774E+03  0.18941125866E+03  0.97461428459E+03  0.10046527867E+04  0.97013229594E+02 0.  0.
          5    1    1    2  502    0 -0.15859685397E+02 -0.39151178436E+02  0.32598542460E+02  0.53563974501E+02  0.47000000000E+01 0.  1.
         -5    1    1    2    0  502 -0.10316143235E+03 -0.15026008023E+03  0.66782478932E+03  0.69226614250E+03  0.47000000000E+01 0.  1.
        -11    1    3    3    0    0  0.59856261993E+02  0.19194967187E+02  0.21860301798E+03  0.22746098201E+03  0.00000000000E+00 0.  1.
         11    1    3    3    0    0  0.59164855752E+02  0.17021629148E+03  0.75601126661E+03  0.77719180469E+03  0.00000000000E+00 0. -1.
<mgrwt>
<rscale>  0 0.25309570E+03</rscale>
<asrwt>0</asrwt>
<pdfrwt beam="1">  1        2 0.26350152E+00 0.25626104E+03</pdfrwt>
<pdfrwt beam="2">  1       -2 0.58034850E-02 0.25626104E+03</pdfrwt>
<totfact> 0.16404856E+03</totfact>
</mgrwt>
</event>
<event>
 7    1  0.1330601E-005  0.2503332E+03  0.7546771E-02  0.1115601E+00
          1   -1    0    0  501    0  0.00000000000E+00  0.00000000000E+00  0.96528422767E+03  0.96528422767E+03  0.00000000000E+00 0. -1.
         -1   -1    0    0    0  501 -0.00000000000E+00 -0.00000000000E+00 -0.61369075758E+02  0.61369075758E+02  0.00000000000E+00 0.  1.
         23    2    1    2    0    0  0.68886391647E+02  0.20565835484E+03  0.39778946994E+03  0.46200306188E+03  0.90386242976E+02 0.  0.
          5    1    1    2  502    0 -0.13714201327E+02  0.26564020130E+01  0.22063256726E+00  0.14740232984E+02  0.47000000000E+01 0. -1.
         -5    1    1    2    0  502 -0.55172190320E+02 -0.20831475686E+03  0.50590504940E+03  0.54991000856E+03  0.47000000000E+01 0. -1.
        -11    1    3    3    0    0  0.24824076111E+02  0.52831998205E+01  0.20847119968E+02  0.32844320149E+02  0.00000000000E+00 0.  1.
         11    1    3    3    0    0  0.44062315537E+02  0.20037515502E+03  0.37694234997E+03  0.42915874173E+03  0.00000000000E+00 0. -1.
<mgrwt>
<rscale>  0 0.24640037E+03</rscale>
<asrwt>0</asrwt>
<pdfrwt beam="1">  1        1 0.14850525E+00 0.25033316E+03</pdfrwt>
<pdfrwt beam="2">  1       -1 0.94413970E-02 0.25033316E+03</pdfrwt>
<totfact> 0.11342221E+03</totfact>
</mgrwt>
</event>
<event>
 7    1  0.1330601E-005  0.1268279E+03  0.7546771E-02  0.1244244E+00
          2   -1    0    0  501    0  0.00000000000E+00  0.00000000000E+00  0.39402447712E+03  0.39402447712E+03  0.00000000000E+00 0. -1.
         -2   -1    0    0    0  501 -0.00000000000E+00 -0.00000000000E+00 -0.38976371960E+02  0.38976371960E+02  0.00000000000E+00 0.  1.
         23    2    1    2    0    0 -0.13974230983E+02  0.16319044155E+02  0.24760026737E+03  0.26677707704E+03  0.96966623630E+02 0.  0.
          5    1    1    2  502    0  0.40324307256E+02  0.28949954201E+02  0.38115371833E+01  0.50007673607E+02  0.47000000000E+01 0. -1.
         -5    1    1    2    0  502 -0.26350076273E+02 -0.45268998356E+02  0.10363630061E+03  0.11621609843E+03  0.47000000000E+01 0. -1.
        -11    1    3    3    0    0  0.21294032455E+02  0.47241672620E+02  0.14444333806E+03  0.15345712548E+03  0.00000000000E+00 0. -1.
         11    1    3    3    0    0 -0.35268263438E+02 -0.30922628465E+02  0.10315692931E+03  0.11331995156E+03  0.00000000000E+00 0.  1.
<mgrwt>
<rscale>  0 0.11930764E+03</rscale>
<asrwt>0</asrwt>
<pdfrwt beam="1">  1        2 0.60619148E-01 0.12682785E+03</pdfrwt>
<pdfrwt beam="2">  1       -2 0.59963652E-02 0.12682785E+03</pdfrwt>
<totfact> 0.11326980E+04</totfact>
</mgrwt>
</event>
<event>
 7    1  0.1330601E-005  0.1812850E+03  0.7546771E-02  0.1172143E+00
         -1   -1    0    0    0  501 -0.00000000000E+00  0.00000000000E+00  0.11224620601E+03  0.11224620601E+03  0.00000000000E+00 0.  1.
          1   -1    0    0  501    0  0.00000000000E+00 -0.00000000000E+00 -0.28387344388E+03  0.28387344388E+03  0.00000000000E+00 0. -1.
         23    2    1    2    0    0 -0.54459999837E+02 -0.11947091101E+03 -0.13966097792E+03  0.21203788355E+03  0.90640416739E+02 0.  0.
          5    1    1    2  502    0  0.74914227652E+02  0.10015335267E+03 -0.64510206568E+02  0.14080657764E+03  0.47000000000E+01 0.  1.
         -5    1    1    2    0  502 -0.20454227815E+02  0.19317558348E+02  0.32543946619E+02  0.43275188707E+02  0.47000000000E+01 0.  1.
        -11    1    3    3    0    0  0.75788199974E+01 -0.24729130935E+02 -0.79917008779E+02  0.83998194752E+02  0.00000000000E+00 0.  1.
         11    1    3    3    0    0 -0.62038819834E+02 -0.94741780079E+02 -0.59743969137E+02  0.12803968880E+03  0.00000000000E+00 0. -1.
<mgrwt>
<rscale>  0 0.17558718E+03</rscale>
<asrwt>0</asrwt>
<pdfrwt beam="2">  1        1 0.43672838E-01 0.18128501E+03</pdfrwt>
<pdfrwt beam="1">  1       -1 0.17268647E-01 0.18128501E+03</pdfrwt>
<totfact> 0.23704957E+03</totfact>
</mgrwt>
</event>
<event>
 7    1  0.1330601E-005  0.2200589E+03  0.7546771E-02  0.1137751E+00
          1   -1    0    0  501    0  0.00000000000E+00  0.00000000000E+00  0.15732445480E+03  0.15732445480E+03  0.00000000000E+00 0. -1.
         -1   -1    0    0    0  501 -0.00000000000E+00 -0.00000000000E+00 -0.33413796552E+03  0.33413796552E+03  0.00000000000E+00 0.  1.
         23    2    1    2    0    0  0.15657129897E+03 -0.91033436896E+02  0.13453659884E+02  0.20055430668E+03  0.85084491361E+02 0.  0.
          5    1    1    2  502    0 -0.78974507128E+02 -0.18246844034E+02 -0.43551700389E+02  0.92134470748E+02  0.47000000000E+01 0. -1.
         -5    1    1    2    0  502 -0.77596791842E+02  0.10928028093E+03 -0.14671547022E+03  0.19877364288E+03  0.47000000000E+01 0. -1.
        -11    1    3    3    0    0  0.28789430552E+02 -0.51365628252E+02 -0.20787375027E+02  0.62444968074E+02  0.00000000000E+00 0. -1.
         11    1    3    3    0    0  0.12778186842E+03 -0.39667808644E+02  0.34241034912E+02  0.13810933861E+03  0.00000000000E+00 0.  1.
<mgrwt>
<rscale>  0 0.21489059E+03</rscale>
<asrwt>0</asrwt>
<pdfrwt beam="1">  1        1 0.24203762E-01 0.22005893E+03</pdfrwt>
<pdfrwt beam="2">  1       -1 0.51405840E-01 0.22005893E+03</pdfrwt>
<totfact> 0.77821670E+02</totfact>
</mgrwt>
</event>
<event>
 7    1  0.1330601E-005  0.1448313E+03  0.7546771E-02  0.1216739E+00
          2   -1    0    0  501    0  0.00000000000E+00  0.00000000000E+00  0.21020486147E+03  0.21020486147E+03  0.00000000000E+00 0. -1.
         -2   -1    0    0    0  501 -0.00000000000E+00 -0.00000000000E+00 -0.86471805268E+02  0.86471805268E+02  0.00000000000E+00 0.  1.
         23    2    1    2    0    0 -0.72669465546E+02  0.84287466160E+01  0.89598389872E+02  0.14787719612E+03  0.92129792540E+02 0.  0.
          5    1    1    2  502    0 -0.20447766242E+02 -0.32776130697E+02 -0.13648817952E+02  0.41240345770E+02  0.47000000000E+01 0. -1.
         -5    1    1    2    0  502  0.93117231788E+02  0.24347384081E+02  0.47783484287E+02  0.10755912485E+03  0.47000000000E+01 0. -1.
        -11    1    3    3    0    0 -0.69211410320E+02 -0.22429872697E+02  0.91342376446E+02  0.11677648840E+03  0.00000000000E+00 0. -1.
         11    1    3    3    0    0 -0.34580552266E+01  0.30858619313E+02 -0.17439865748E+01  0.31100707725E+02  0.00000000000E+00 0.  1.
<mgrwt>
<rscale>  0 0.13749536E+03</rscale>
<asrwt>0</asrwt>
<pdfrwt beam="1">  1        2 0.32339209E-01 0.14483131E+03</pdfrwt>
<pdfrwt beam="2">  1       -2 0.13303355E-01 0.14483131E+03</pdfrwt>
<totfact> 0.64404257E+03</totfact>
</mgrwt>
</event>
<event>
 6    1  0.1330601E-005  0.2851024E+03  0.7546771E-02  0.1118854E+00
          1   -1    0    0  501    0  0.00000000000E+00  0.00000000000E+00  0.78672697992E+03  0.78672697992E+03  0.00000000000E+00 0. -1.
         -1   -1    0    0    0  501 -0.00000000000E+00 -0.00000000000E+00 -0.59888885287E+02  0.59888885287E+02  0.00000000000E+00 0.  1.
          5    1    1    2  502    0 -0.13928739542E+02 -0.12791650910E+03  0.29912375892E+03  0.32565895694E+03  0.47000000000E+01 0. -1.
         -5    1    1    2    0  502  0.11628039247E+02  0.13874740769E+03  0.13703100794E+03  0.19541146736E+03  0.47000000000E+01 0.  1.
        -11    1    1    2    0    0 -0.26334291618E+02  0.61301678504E+02  0.10641499752E+03  0.12560072612E+03  0.00000000000E+00 0.  1.
         11    1    1    2    0    0  0.28634991913E+02 -0.72132577095E+02  0.18426833025E+03  0.19994471479E+03  0.00000000000E+00 0. -1.
<mgrwt>
<rscale>  0 0.24141412E+03</rscale>
<asrwt>0</asrwt>
<pdfrwt beam="1">  1        1 0.12103491E+00 0.28510245E+03</pdfrwt>
<pdfrwt beam="2">  1       -1 0.92136752E-02 0.28510245E+03</pdfrwt>
<totfact> 0.16369508E+03</totfact>
</mgrwt>
</event>
<event>
 7    1  0.1330601E-005  0.1787558E+03  0.7546771E-02  0.1193069E+00
         -2   -1    0    0    0  501 -0.00000000000E+00  0.00000000000E+00  0.22822025556E+03  0.22822025556E+03  0.00000000000E+00 0.  1.
          2   -1    0    0  501    0  0.00000000000E+00 -0.00000000000E+00 -0.13297013604E+03  0.13297013604E+03  0.00000000000E+00 0. -1.
         23    2    1    2    0    0 -0.34886887170E+02  0.37216943296E+02 -0.63589934925E+02  0.12205907133E+03  0.90843498973E+02 0.  0.
          5    1    1    2  502    0  0.91955474016E+02 -0.67093260750E+02  0.95341832652E+02  0.14855796812E+03  0.47000000000E+01 0. -1.
         -5    1    1    2    0  502 -0.57068586846E+02  0.29876317454E+02  0.63498221791E+02  0.90573352151E+02  0.47000000000E+01 0.  1.
        -11    1    3    3    0    0 -0.64421038619E+02  0.17519825482E+02 -0.30018429028E+02  0.73199184305E+02  0.00000000000E+00 0.  1.
         11    1    3    3    0    0  0.29534151448E+02  0.19697117815E+02 -0.33571505897E+02  0.48859887026E+02  0.00000000000E+00 0. -1.
<mgrwt>
<rscale>  0 0.15618793E+03</rscale>
<asrwt>0</asrwt>
<pdfrwt beam="2">  1        2 0.20456944E-01 0.17875577E+03</pdfrwt>
<pdfrwt beam="1">  1       -2 0.35110809E-01 0.17875577E+03</pdfrwt>
<totfact> 0.20291508E+03</totfact>
</mgrwt>
</event>
<event>
 7    1  0.1330601E-005  0.1293493E+03  0.7546771E-02  0.1242849E+00
          3   -1    0    0  501    0  0.00000000000E+00  0.00000000000E+00  0.40661564250E+02  0.40661564250E+02  0.00000000000E+00 0. -1.
         -3   -1    0    0    0  501 -0.00000000000E+00 -0.00000000000E+00 -0.32398099172E+03  0.32398099172E+03  0.00000000000E+00 0.  1.
         23    2    1    2    0    0 -0.31039105661E+02  0.12865562606E+02 -0.88462886614E+02  0.13076159794E+03  0.90243916175E+02 0.  0.
          5    1    1    2  502    0  0.36531302149E+02 -0.36045268695E+02 -0.20208053541E+03  0.20854838821E+03  0.47000000000E+01 0. -1.
         -5    1    1    2    0  502 -0.54921964883E+01  0.23179706088E+02  0.72239945516E+01  0.25332569824E+02  0.47000000000E+01 0. -1.
        -11    1    3    3    0    0 -0.22465720085E+02  0.47043560155E+02 -0.24207788354E+02  0.57478884366E+02  0.00000000000E+00 0. -1.
         11    1    3    3    0    0 -0.85733855760E+01 -0.34177997548E+02 -0.64255098259E+02  0.73282713575E+02  0.00000000000E+00 0.  1.
<mgrwt>
<rscale>  0 0.12015033E+03</rscale>
<asrwt>0</asrwt>
<pdfrwt beam="1">  1        3 0.62556254E-02 0.12934926E+03</pdfrwt>
<pdfrwt beam="2">  1       -3 0.49843228E-01 0.12934926E+03</pdfrwt>
<totfact> 0.14594420E+03</totfact>
</mgrwt>
</event>
<event>
 7    1  0.1330601E-005  0.1715891E+03  0.7546771E-02  0.1180139E+00
         -1   -1    0    0    0  501 -0.00000000000E+00  0.00000000000E+00  0.58867683715E+02  0.58867683715E+02  0.00000000000E+00 0.  1.
          1   -1    0    0  501    0  0.00000000000E+00 -0.00000000000E+00 -0.49118100395E+03  0.49118100395E+03  0.00000000000E+00 0. -1.
         23    2    1    2    0    0  0.90881406277E+02  0.74555241311E+02 -0.27802362796E+03  0.31929311948E+03  0.10408191214E+03 0.  0.
          5    1    1    2  502    0 -0.12158487933E+03 -0.59105052428E+02 -0.13477477997E+03  0.19095188247E+03  0.47000000000E+01 0.  1.
         -5    1    1    2    0  502  0.30703473050E+02 -0.15450188883E+02 -0.19514912310E+02  0.39803685713E+02  0.47000000000E+01 0. -1.
        -11    1    3    3    0    0  0.85553084545E+02  0.95766496967E+02 -0.26324803238E+03  0.29289943456E+03  0.00000000000E+00 0.  1.
         11    1    3    3    0    0  0.53283217320E+01 -0.21211255656E+02 -0.14775595578E+02  0.26393684921E+02  0.00000000000E+00 0. -1.
<mgrwt>
<rscale>  0 0.16782108E+03</rscale>
<asrwt>0</asrwt>
<pdfrwt beam="2">  1        1 0.75566305E-01 0.17158911E+03</pdfrwt>
<pdfrwt beam="1">  1       -1 0.90565671E-02 0.17158911E+03</pdfrwt>
<totfact> 0.32267225E+03</totfact>
</mgrwt>
</event>
<event>
 7    1  0.1330601E-005  0.2310656E+03  0.7546771E-02  0.1129042E+00
         -2   -1    0    0    0  501 -0.00000000000E+00  0.00000000000E+00  0.65051309366E+02  0.65051309366E+02  0.00000000000E+00 0.  1.
          2   -1    0    0  501    0  0.00000000000E+00 -0.00000000000E+00 -0.88330214223E+03  0.88330214223E+03  0.00000000000E+00 0. -1.
         23    2    1    2    0    0 -0.11479008369E+03  0.15680865248E+03 -0.57211156400E+03  0.61075033018E+03  0.89098862818E+02 0.  0.
          5    1    1    2  502    0  0.44512284626E+02  0.11294712830E+02 -0.30847298791E+02  0.55520805679E+02  0.47000000000E+01 0.  1.
         -5    1    1    2    0  502  0.70277799066E+02 -0.16810336531E+03 -0.21529197008E+03  0.28208231574E+03  0.47000000000E+01 0.  1.
        -11    1    3    3    0    0 -0.12303338193E+02  0.77520790808E+02 -0.15140633566E+03  0.17054243934E+03  0.00000000000E+00 0. -1.
         11    1    3    3    0    0 -0.10248674550E+03  0.79287861671E+02 -0.42070522834E+03  0.44020789085E+03  0.00000000000E+00 0.  1.
<mgrwt>
<rscale>  0 0.22661893E+03</rscale>
<asrwt>0</asrwt>
<pdfrwt beam="2">  1        2 0.13589264E+00 0.23106564E+03</pdfrwt>
<pdfrwt beam="1">  1       -2 0.10007894E-01 0.23106564E+03</pdfrwt>
<totfact> 0.20594986E+03</totfact>
</mgrwt>
</event>
<event>
 7    1  0.1330601E-005  0.1706591E+03  0.7546771E-02  0.1183602E+00
          3   -1    0    0  501    0  0.00000000000E+00  0.00000000000E+00  0.70420248695E+03  0.70420248695E+03  0.00000000000E+00 0. -1.
         -3   -1    0    0    0  501 -0.00000000000E+00 -0.00000000000E+00 -0.38951747656E+02  0.38951747656E+02  0.00000000000E+00 0.  1.
         23    2    1    2    0    0 -0.33638308870E+02 -0.11120751902E+03  0.41291015195E+03  0.43852279172E+03  0.91152603713E+02 0.  0.
          5    1    1    2  502    0 -0.22937823596E+02  0.47344308992E+01  0.13225930713E+03  0.13439930397E+03  0.47000000000E+01 0.  1.
         -5    1    1    2    0  502  0.56576132466E+02  0.10647308812E+03  0.12008128021E+03  0.17023213891E+03  0.47000000000E+01 0.  1.
        -11    1    3    3    0    0 -0.31191418448E+02 -0.56781351909E+02  0.34706950658E+03  0.35306411444E+03  0.00000000000E+00 0. -1.
         11    1    3    3    0    0 -0.24468904228E+01 -0.54426167114E+02  0.65840645375E+02  0.85458677282E+02  0.00000000000E+00 0.  1.
<mgrwt>
<rscale>  0 0.16459733E+03</rscale>
<asrwt>0</asrwt>
<pdfrwt beam="1">  1        3 0.10833883E+00 0.17065915E+03</pdfrwt>
<pdfrwt beam="2">  1       -3 0.59925771E-02 0.17065915E+03</pdfrwt>
<totfact> 0.30833134E+02</totfact>
</mgrwt>
</event>
<event>
 7    1  0.1330601E-005  0.1272484E+03  0.7546771E-02  0.1246730E+00
         -2   -1    0    0    0  501 -0.00000000000E+00  0.00000000000E+00  0.39469639988E+03  0.39469639988E+03  0.00000000000E+00 0.  1.
          2   -1    0    0  501    0  0.00000000000E+00 -0.00000000000E+00 -0.31964680508E+02  0.31964680508E+02  0.00000000000E+00 0. -1.
         23    2    1    2    0    0 -0.22565069295E+02  0.74666705028E+01  0.11568498193E+03  0.14876855900E+03  0.90466212390E+02 0.  0.
          5    1    1    2  502    0  0.70243360358E+01  0.33526233740E+02  0.89049414862E+01  0.35703468016E+02  0.47000000000E+01 0.  1.
         -5    1    1    2    0  502  0.15540733260E+02 -0.40992904243E+02  0.23814179596E+03  0.24218905337E+03  0.47000000000E+01 0.  1.
        -11    1    3    3    0    0 -0.46633778824E+02  0.86808889981E+01  0.11528894700E+03  0.12466598759E+03  0.00000000000E+00 0.  1.
         11    1    3    3    0    0  0.24068709529E+02 -0.12142184952E+01  0.39603492124E+00  0.24102571410E+02  0.00000000000E+00 0. -1.
<mgrwt>
<rscale>  0 0.11782422E+03</rscale>
<asrwt>0</asrwt>
<pdfrwt beam="2">  1        2 0.49176434E-02 0.12724843E+03</pdfrwt>
<pdfrwt beam="1">  1       -2 0.60722520E-01 0.12724843E+03</pdfrwt>
<totfact> 0.39259699E+03</totfact>
</mgrwt>
</event>
<event>
 7    1  0.1330601E-005  0.1931615E+03  0.7546771E-02  0.1160414E+00
         -2   -1    0    0    0  501 -0.00000000000E+00  0.00000000000E+00  0.43114015729E+02  0.43114015729E+02  0.00000000000E+00 0.  1.
          2   -1    0    0  501    0  0.00000000000E+00 -0.00000000000E+00 -0.77704996846E+03  0.77704996846E+03  0.00000000000E+00 0. -1.
         23    2    1    2    0    0 -0.10433089915E+03 -0.10392044236E+03 -0.33569392636E+03  0.37754894065E+03  0.90379176458E+02 0.  0.
          5    1    1    2  502    0  0.13085298959E+03  0.99796605282E+02 -0.35768162287E+03  0.39375131828E+03  0.47000000000E+01 0. -1.
         -5    1    1    2    0  502 -0.26522090437E+02  0.41238370825E+01 -0.40560403511E+02  0.48863725261E+02  0.47000000000E+01 0. -1.
        -11    1    3    3    0    0 -0.14672734759E+02 -0.75571783228E+02 -0.12468210353E+03  0.14653330852E+03  0.00000000000E+00 0.  1.
         11    1    3    3    0    0 -0.89658164389E+02 -0.28348659137E+02 -0.21101182283E+03  0.23101563214E+03  0.00000000000E+00 0. -1.
<mgrwt>
<rscale>  0 0.18785101E+03</rscale>
<asrwt>0</asrwt>
<pdfrwt beam="2">  1        2 0.11954614E+00 0.19316150E+03</pdfrwt>
<pdfrwt beam="1">  1       -2 0.66329260E-02 0.19316150E+03</pdfrwt>
<totfact> 0.46004771E+03</totfact>
</mgrwt>
</event>
<event>
 7    1  0.1330601E-005  0.1608605E+03  0.7546771E-02  0.1195402E+00
         -1   -1    0    0    0  501 -0.00000000000E+00  0.00000000000E+00  0.44791850793E+02  0.44791850793E+02  0.00000000000E+00 0.  1.
          1   -1    0    0  501    0  0.00000000000E+00 -0.00000000000E+00 -0.49147045936E+03  0.49147045936E+03  0.00000000000E+00 0. -1.
         23    2    1    2    0    0 -0.18926592602E+02 -0.99507893854E+02 -0.20916437861E+03  0.24940153690E+03  0.90506090855E+02 0.  0.
          5    1    1    2  502    0  0.19206048762E+02  0.72362203223E+02 -0.24667318680E+03  0.25782729074E+03  0.47000000000E+01 0. -1.
         -5    1    1    2    0  502 -0.27945615997E+00  0.27145690631E+02  0.91589568545E+01  0.29033482502E+02  0.47000000000E+01 0. -1.
        -11    1    3    3    0    0 -0.20826703690E+02 -0.12373418147E+02 -0.12811296631E+03  0.13038322439E+03  0.00000000000E+00 0. -1.
         11    1    3    3    0    0  0.19001110886E+01 -0.87134475706E+02 -0.81051412300E+02  0.11901831252E+03  0.00000000000E+00 0.  1.
<mgrwt>
<rscale>  0 0.15420223E+03</rscale>
<asrwt>0</asrwt>
<pdfrwt beam="2">  1        1 0.75610839E-01 0.16086048E+03</pdfrwt>
<pdfrwt beam="1">  1       -1 0.68910540E-02 0.16086048E+03</pdfrwt>
<totfact> 0.48654095E+03</totfact>
</mgrwt>
</event>
<event>
 7    1  0.1330601E-005  0.1323631E+03  0.7546771E-02  0.1237166E+00
          1   -1    0    0  501    0  0.00000000000E+00  0.00000000000E+00  0.47029882466E+03  0.47029882466E+03  0.00000000000E+00 0. -1.
         -1   -1    0    0    0  501 -0.00000000000E+00 -0.00000000000E+00 -0.30383323607E+02  0.30383323607E+02  0.00000000000E+00 0.  1.
         23    2    1    2    0    0  0.42735665541E+02 -0.81680706631E+01  0.24624801089E+03  0.26610360607E+03  0.90994460327E+02 0.  0.
          5    1    1    2  502    0 -0.39974793970E+02  0.37445843370E+02  0.19707888979E+03  0.20460291821E+03  0.47000000000E+01 0. -1.
         -5    1    1    2    0  502 -0.27608715713E+01 -0.29277772707E+02 -0.34113996181E+01  0.29975623995E+02  0.47000000000E+01 0. -1.
        -11    1    3    3    0    0 -0.16968659212E+02 -0.29808473073E+02  0.57439124774E+02  0.66900923142E+02  0.00000000000E+00 0.  1.
         11    1    3    3    0    0  0.59704324754E+02  0.21640402409E+02  0.18880888611E+03  0.19920268293E+03  0.00000000000E+00 0. -1.
<mgrwt>
<rscale>  0 0.12366780E+03</rscale>
<asrwt>0</asrwt>
<pdfrwt beam="1">  1        1 0.72353660E-01 0.13236312E+03</pdfrwt>
<pdfrwt beam="2">  1       -1 0.46743578E-02 0.13236312E+03</pdfrwt>
<totfact> 0.90792586E+03</totfact>
</mgrwt>
</event>
<event>
 7    1  0.1330601E-005  0.1303422E+03  0.7546771E-02  0.1241283E+00
          1   -1    0    0  501    0  0.00000000000E+00  0.00000000000E+00  0.22792237187E+02  0.22792237187E+02  0.00000000000E+00 0. -1.
         -1   -1    0    0    0  501 -0.00000000000E+00 -0.00000000000E+00 -0.97211933304E+03  0.97211933304E+03  0.00000000000E+00 0.  1.
         23    2    1    2    0    0  0.14388460937E+02 -0.34010671727E+02 -0.11532968190E+03  0.15079026697E+03  0.89849960969E+02 0.  0.
          5    1    1    2  502    0 -0.10536521286E+02 -0.46994418026E+02 -0.26964701987E+03  0.27395455632E+03  0.47000000000E+01 0.  1.
         -5    1    1    2    0  502 -0.38519396507E+01  0.81005089753E+02 -0.56435039408E+03  0.57016674693E+03  0.47000000000E+01 0.  1.
        -11    1    3    3    0    0 -0.14067645101E+02  0.15023381511E+02  0.18015721806E+01  0.20660258784E+02  0.00000000000E+00 0. -1.
         11    1    3    3    0    0  0.28456106038E+02 -0.49034053239E+02 -0.11713125408E+03  0.13013000818E+03  0.00000000000E+00 0.  1.
<mgrwt>
<rscale>  0 0.12110629E+03</rscale>
<asrwt>0</asrwt>
<pdfrwt beam="1">  1        1 0.35064989E-02 0.13034220E+03</pdfrwt>
<pdfrwt beam="2">  1       -1 0.14955678E+00 0.13034220E+03</pdfrwt>
<totfact> 0.10217927E+03</totfact>
</mgrwt>
</event>
<event>
 7    1  0.1330601E-005  0.1390597E+03  0.7546771E-02  0.1225591E+00
          2   -1    0    0  501    0  0.00000000000E+00  0.00000000000E+00  0.36274076511E+03  0.36274076511E+03  0.00000000000E+00 0. -1.
         -2   -1    0    0    0  501 -0.00000000000E+00 -0.00000000000E+00 -0.44447453736E+02  0.44447453736E+02  0.00000000000E+00 0.  1.
         23    2    1    2    0    0  0.40407338323E+02  0.45634778110E+02  0.10364293937E+03  0.15142975270E+03  0.92053382107E+02 0.  0.
          5    1    1    2  502    0  0.89106324589E+00 -0.58721227582E+02  0.20195088055E+03  0.21036925802E+03  0.47000000000E+01 0. -1.
         -5    1    1    2    0  502 -0.41298401569E+02  0.13086449472E+02  0.12699491456E+02  0.45389208135E+02  0.47000000000E+01 0. -1.
        -11    1    3    3    0    0  0.64882870702E+01  0.37848600021E+02  0.10959080363E+03  0.11612389346E+03  0.00000000000E+00 0. -1.
         11    1    3    3    0    0  0.33919051252E+02  0.77861780894E+01 -0.59478642602E+01  0.35305859236E+02  0.00000000000E+00 0.  1.
<mgrwt>
<rscale>  0 0.13126458E+03</rscale>
<asrwt>0</asrwt>
<pdfrwt beam="1">  1        2 0.55806270E-01 0.13905974E+03</pdfrwt>
<pdfrwt beam="2">  1       -2 0.68380700E-02 0.13905974E+03</pdfrwt>
<totfact> 0.10198930E+04</totfact>
</mgrwt>
</event>
<event>
 7    1  0.1330601E-005  0.2521784E+03  0.7546771E-02  0.1114559E+00
          1   -1    0    0  501    0  0.00000000000E+00  0.00000000000E+00  0.83188623057E+02  0.83188623057E+02  0.00000000000E+00 0. -1.
         -1   -1    0    0    0  501 -0.00000000000E+00 -0.00000000000E+00 -0.80910630438E+03  0.80910630438E+03  0.00000000000E+00 0.  1.
         23    2    1    2    0    0 -0.21745435509E+03  0.26128581339E+02 -0.20112178681E+03  0.31005386498E+03  0.87831240189E+02 0.  0.
          5    1    1    2  502    0  0.16417956530E+03  0.23663596468E+02 -0.26768477815E+03  0.31494781459E+03  0.47000000000E+01 0. -1.
         -5    1    1    2    0  502  0.53274789787E+02 -0.49792177807E+02 -0.25711111636E+03  0.26729324786E+03  0.47000000000E+01 0. -1.
        -11    1    3    3    0    0 -0.13127928396E+03 -0.22578256990E+02 -0.87567791088E+02  0.15941187573E+03  0.00000000000E+00 0. -1.
         11    1    3    3    0    0 -0.86175071123E+02  0.48706838329E+02 -0.11355399572E+03  0.15064198926E+03  0.00000000000E+00 0.  1.
<mgrwt>
<rscale>  0 0.24802565E+03</rscale>
<asrwt>0</asrwt>
<pdfrwt beam="1">  1        1 0.12798250E-01 0.25217836E+03</pdfrwt>
<pdfrwt beam="2">  1       -1 0.12447789E+00 0.25217836E+03</pdfrwt>
<totfact> 0.27955502E+02</totfact>
</mgrwt>
</event>
<event>
 7    1  0.1330601E-005  0.1290341E+03  0.7546771E-02  0.1243617E+00
          1   -1    0    0  501    0  0.00000000000E+00  0.00000000000E+00  0.99208723340E+02  0.99208723340E+02  0.00000000000E+00 0. -1.
         -1   -1    0    0    0  501 -0.00000000000E+00 -0.00000000000E+00 -0.12723312813E+03  0.12723312813E+03  0.00000000000E+00 0.  1.
         23    2    1    2    0    0 -0.26904397607E+02 -0.17513651423E+02 -0.77525321000E+01  0.95825035349E+02  0.89954216405E+02 0.  0.
          5    1    1    2  502    0 -0.34246875748E+00  0.69661070163E+02 -0.14511435190E+02  0.71312367317E+02  0.47000000000E+01 0. -1.
         -5    1    1    2    0  502  0.27246866364E+02 -0.52147418740E+02 -0.57604375021E+01  0.59304448806E+02  0.47000000000E+01 0. -1.
        -11    1    3    3    0    0 -0.31644503513E+02  0.11058879494E+02  0.32198239470E+02  0.46480103735E+02  0.00000000000E+00 0. -1.
         11    1    3    3    0    0  0.47401059059E+01 -0.28572530917E+02 -0.39950771570E+02  0.49344931614E+02  0.00000000000E+00 0.  1.
<mgrwt>
<rscale>  0 0.11968554E+03</rscale>
<asrwt>0</asrwt>
<pdfrwt beam="1">  1        1 0.15262881E-01 0.12903412E+03</pdfrwt>
<pdfrwt beam="2">  1       -1 0.19574327E-01 0.12903412E+03</pdfrwt>
<totfact> 0.71736231E+03</totfact>
</mgrwt>
</event>
<event>
 7    1  0.1330601E-005  0.1457321E+03  0.7546771E-02  0.1215659E+00
          1   -1    0    0  501    0  0.00000000000E+00  0.00000000000E+00  0.51629152654E+03  0.51629152654E+03  0.00000000000E+00 0. -1.
         -1   -1    0    0    0  501 -0.00000000000E+00 -0.00000000000E+00 -0.34926371273E+02  0.34926371273E+02  0.00000000000E+00 0.  1.
         23    2    1    2    0    0  0.15141396762E+02 -0.73373278508E+02  0.26742294922E+03  0.29235669098E+03  0.91348240798E+02 0.  0.
          5    1    1    2  502    0 -0.68424278615E+02  0.50538054484E+02  0.10361033950E+03  0.13413861974E+03  0.47000000000E+01 0.  1.
         -5    1    1    2    0  502  0.53282881853E+02  0.22835224024E+02  0.11033186655E+03  0.12472258709E+03  0.47000000000E+01 0.  1.
        -11    1    3    3    0    0 -0.34854980293E+02 -0.20415523770E+02  0.58395990204E+02  0.71005316237E+02  0.00000000000E+00 0.  1.
         11    1    3    3    0    0  0.49996377055E+02 -0.52957754738E+02  0.20902695902E+03  0.22135137475E+03  0.00000000000E+00 0. -1.
<mgrwt>
<rscale>  0 0.13828245E+03</rscale>
<asrwt>0</asrwt>
<pdfrwt beam="1">  1        1 0.79429460E-01 0.14573214E+03</pdfrwt>
<pdfrwt beam="2">  1       -1 0.53732882E-02 0.14573214E+03</pdfrwt>
<totfact> 0.65814240E+03</totfact>
</mgrwt>
</event>
<event>
 7    1  0.1330601E-005  0.1397750E+03  0.7546771E-02  0.1223401E+00
         -3   -1    0    0    0  501 -0.00000000000E+00  0.00000000000E+00  0.20700006505E+03  0.20700006505E+03  0.00000000000E+00 0.  1.
          3   -1    0    0  501    0  0.00000000000E+00 -0.00000000000E+00 -0.78113008651E+02  0.78113008651E+02  0.00000000000E+00 0. -1.
         23    2    1    2    0    0  0.35381598212E+01 -0.62413323052E+02  0.47014146265E+02  0.12312472406E+03  0.95086414680E+02 0.  0.
          5    1    1    2  502    0 -0.43112143246E+02 -0.36179258381E+01 -0.72601737451E+01  0.44119682744E+02  0.47000000000E+01 0.  1.
         -5    1    1    2    0  502  0.39573983425E+02  0.66031248890E+02  0.89133083881E+02  0.11786866690E+03  0.47000000000E+01 0.  1.
        -11    1    3    3    0    0  0.16102256244E+02 -0.63566877007E+02  0.70612839193E+02  0.96364949891E+02  0.00000000000E+00 0.  1.
         11    1    3    3    0    0 -0.12564096422E+02  0.11535539558E+01 -0.23598692929E+02  0.26759774169E+02  0.00000000000E+00 0. -1.
<mgrwt>
<rscale>  0 0.13277099E+03</rscale>
<asrwt>0</asrwt>
<pdfrwt beam="2">  1        3 0.12017386E-01 0.13977500E+03</pdfrwt>
<pdfrwt beam="1">  1       -3 0.31846164E-01 0.13977500E+03</pdfrwt>
<totfact> 0.12035793E+03</totfact>
</mgrwt>
</event>
<event>
 7    1  0.1330601E-005  0.1816626E+03  0.7546771E-02  0.1171649E+00
          1   -1    0    0  501    0  0.00000000000E+00  0.00000000000E+00  0.48434557966E+03  0.48434557966E+03  0.00000000000E+00 0. -1.
         -1   -1    0    0    0  501 -0.00000000000E+00 -0.00000000000E+00 -0.62817152850E+02  0.62817152850E+02  0.00000000000E+00 0.  1.
         23    2    1    2    0    0 -0.12025965064E+03 -0.53971868407E+02  0.25195875578E+03  0.29865688533E+03  0.91309224018E+02 0.  0.
          5    1    1    2  502    0  0.21296447076E+02  0.67822533179E+02  0.31234518319E+02  0.77788943941E+02  0.47000000000E+01 0.  1.
         -5    1    1    2    0  502  0.98963203566E+02 -0.13850664771E+02  0.13833515271E+03  0.17071690324E+03  0.47000000000E+01 0.  1.
        -11    1    3    3    0    0 -0.21419952820E+02  0.23134291727E+02  0.28814919757E+02  0.42711935488E+02  0.00000000000E+00 0.  1.
         11    1    3    3    0    0 -0.98839697823E+02 -0.77106160134E+02  0.22314383602E+03  0.25594494984E+03  0.00000000000E+00 0. -1.
<mgrwt>
<rscale>  0 0.17608305E+03</rscale>
<asrwt>0</asrwt>
<pdfrwt beam="1">  1        1 0.74514702E-01 0.18166255E+03</pdfrwt>
<pdfrwt beam="2">  1       -1 0.96641777E-02 0.18166255E+03</pdfrwt>
<totfact> 0.29815075E+03</totfact>
</mgrwt>
</event>
<event>
 7    1  0.1330601E-005  0.1352771E+03  0.7546771E-02  0.1232313E+00
          1   -1    0    0  501    0  0.00000000000E+00  0.00000000000E+00  0.36743964102E+03  0.36743964102E+03  0.00000000000E+00 0. -1.
         -1   -1    0    0    0  501 -0.00000000000E+00 -0.00000000000E+00 -0.40654554420E+02  0.40654554420E+02  0.00000000000E+00 0.  1.
         23    2    1    2    0    0 -0.22134799240E+02 -0.46742477700E+02  0.10319279655E+03  0.14676411131E+03  0.90642939885E+02 0.  0.
          5    1    1    2  502    0  0.23013314104E+02  0.15132869671E+02 -0.67785382631E+01  0.28751607808E+02  0.47000000000E+01 0.  1.
         -5    1    1    2    0  502 -0.87851486435E+00  0.31609608028E+02  0.23037082831E+03  0.23257847632E+03  0.47000000000E+01 0.  1.
        -11    1    3    3    0    0 -0.18520227160E+02 -0.26679769448E+02  0.11746935988E+03  0.12187641045E+03  0.00000000000E+00 0. -1.
         11    1    3    3    0    0 -0.36145720801E+01 -0.20062708252E+02 -0.14276563336E+02  0.24887700866E+02  0.00000000000E+00 0.  1.
<mgrwt>
<rscale>  0 0.12678022E+03</rscale>
<asrwt>0</asrwt>
<pdfrwt beam="1">  1        1 0.56529173E-01 0.13527713E+03</pdfrwt>
<pdfrwt beam="2">  1       -1 0.62545471E-02 0.13527713E+03</pdfrwt>
<totfact> 0.80709520E+03</totfact>
</mgrwt>
</event>
<event>
 7    1  0.1330601E-005  0.1272945E+03  0.7546771E-02  0.1241100E+00
          1   -1    0    0  501    0  0.00000000000E+00  0.00000000000E+00  0.52947115681E+03  0.52947115681E+03  0.00000000000E+00 0. -1.
         -1   -1    0    0    0  501 -0.00000000000E+00 -0.00000000000E+00 -0.25461745545E+02  0.25461745545E+02  0.00000000000E+00 0.  1.
         23    2    1    2    0    0  0.99742997714E+01 -0.21883806927E+02  0.21478517872E+03  0.23893522151E+03  0.10187727625E+03 0.  0.
          5    1    1    2  502    0  0.28329511030E+02 -0.30366612405E+02  0.20717401018E+03  0.21134770602E+03  0.47000000000E+01 0.  1.
         -5    1    1    2    0  502 -0.38303810802E+02  0.52250419333E+02  0.82050222360E+02  0.10464997483E+03  0.47000000000E+01 0.  1.
        -11    1    3    3    0    0 -0.23571197769E+02 -0.34540353582E+02  0.31970568222E+02  0.52637957999E+02  0.00000000000E+00 0.  1.
         11    1    3    3    0    0  0.33545497540E+02  0.12656546655E+02  0.18281461050E+03  0.18629726351E+03  0.00000000000E+00 0. -1.
<mgrwt>
<rscale>  0 0.12121891E+03</rscale>
<asrwt>0</asrwt>
<pdfrwt beam="1">  1        1 0.81457093E-01 0.12729445E+03</pdfrwt>
<pdfrwt beam="2">  1       -1 0.39171920E-02 0.12729445E+03</pdfrwt>
<totfact> 0.10061033E+04</totfact>
</mgrwt>
</event>
<event>
 7    1  0.1330601E-005  0.1469762E+03  0.7546771E-02  0.1213772E+00
         -1   -1    0    0    0  501 -0.00000000000E+00  0.00000000000E+00  0.70072090978E+02  0.70072090978E+02  0.00000000000E+00 0.  1.
          1   -1    0    0  501    0  0.00000000000E+00 -0.00000000000E+00 -0.32556351983E+03  0.32556351983E+03  0.00000000000E+00 0. -1.
         23    2    1    2    0    0 -0.31715321205E+02 -0.70510550453E+02 -0.20996530995E+03  0.24176999829E+03  0.91595313001E+02 0.  0.
          5    1    1    2  502    0  0.64970171046E+00  0.24541341928E+02 -0.83044198069E+02  0.86724439513E+02  0.47000000000E+01 0. -1.
         -5    1    1    2    0  502  0.31065619495E+02  0.45969208525E+02  0.37518079176E+02  0.67141173002E+02  0.47000000000E+01 0. -1.
        -11    1    3    3    0    0 -0.43579448718E+02 -0.37435411750E+02 -0.44649353005E+02  0.72760862607E+02  0.00000000000E+00 0. -1.
         11    1    3    3    0    0  0.11864127513E+02 -0.33075138702E+02 -0.16531595695E+03  0.16900913568E+03  0.00000000000E+00 0.  1.
<mgrwt>
<rscale>  0 0.13967128E+03</rscale>
<asrwt>0</asrwt>
<pdfrwt beam="2">  1        1 0.50086695E-01 0.14697619E+03</pdfrwt>
<pdfrwt beam="1">  1       -1 0.10780322E-01 0.14697619E+03</pdfrwt>
<totfact> 0.41398789E+03</totfact>
</mgrwt>
</event>
<event>
 7    1  0.1330601E-005  0.1671137E+03  0.7546771E-02  0.1187269E+00
         -2   -1    0    0    0  501 -0.00000000000E+00  0.00000000000E+00  0.18864824999E+03  0.18864824999E+03  0.00000000000E+00 0. -1.
          2   -1    0    0  501    0  0.00000000000E+00 -0.00000000000E+00 -0.16485878506E+03  0.16485878506E+03  0.00000000000E+00 0.  1.
         23    2    1    2    0    0  0.10465752893E+03  0.36732419164E+02 -0.70984719744E+02  0.16138954566E+03  0.93302122332E+02 0.  0.
          5    1    1    2  502    0 -0.21961363195E+02 -0.41503242726E+02 -0.19366065531E+02  0.51009363104E+02  0.47000000000E+01 0. -1.
         -5    1    1    2    0  502 -0.82696165736E+02  0.47708235625E+01  0.11414025021E+03  0.14110812628E+03  0.47000000000E+01 0. -1.
        -11    1    3    3    0    0  0.49659464740E+02  0.62025059185E+01  0.17331646122E+02  0.52961490493E+02  0.00000000000E+00 0. -1.
         11    1    3    3    0    0  0.54998064191E+02  0.30529913246E+02 -0.88316365866E+02  0.10842805517E+03  0.00000000000E+00 0.  1.
<mgrwt>
<rscale>  0 0.16127107E+03</rscale>
<asrwt>0</asrwt>
<pdfrwt beam="2">  1        2 0.25362890E-01 0.16711368E+03</pdfrwt>
<pdfrwt beam="1">  1       -2 0.29022808E-01 0.16711368E+03</pdfrwt>
<totfact> 0.22514077E+03</totfact>
</mgrwt>
</event>
<event>
 7    1  0.1330601E-005  0.1782035E+03  0.7546771E-02  0.1175225E+00
         -2   -1    0    0    0  501 -0.00000000000E+00  0.00000000000E+00  0.41067040032E+03  0.41067040032E+03  0.00000000000E+00 0.  1.
          2   -1    0    0  501    0  0.00000000000E+00 -0.00000000000E+00 -0.73127332845E+02  0.73127332845E+02  0.00000000000E+00 0. -1.
         23    2    1    2    0    0 -0.66882766795E+02 -0.10798768018E+03  0.96194985534E+02  0.18378877725E+03  0.91598012180E+02 0.  0.
          5    1    1    2  502    0 -0.20464131277E+02  0.84582211355E+02  0.10711034974E+03  0.13808565519E+03  0.47000000000E+01 0.  1.
         -5    1    1    2    0  502  0.87346898072E+02  0.23405468826E+02  0.13423773220E+03  0.16192330073E+03  0.47000000000E+01 0.  1.
        -11    1    3    3    0    0 -0.18835278211E+02  0.11688333649E+02  0.34063489931E+02  0.40641188406E+02  0.00000000000E+00 0.  1.
         11    1    3    3    0    0 -0.48047488583E+02 -0.11967601383E+03  0.62131495603E+02  0.14314758884E+03  0.00000000000E+00 0. -1.
<mgrwt>
<rscale>  0 0.17253924E+03</rscale>
<asrwt>0</asrwt>
<pdfrwt beam="2">  1        2 0.11250359E-01 0.17820347E+03</pdfrwt>
<pdfrwt beam="1">  1       -2 0.63180060E-01 0.17820347E+03</pdfrwt>
<totfact> 0.12925410E+03</totfact>
</mgrwt>
</event>
<event>
 7    1  0.1330601E-005  0.1655428E+03  0.7546771E-02  0.1189399E+00
          1   -1    0    0  501    0  0.00000000000E+00  0.00000000000E+00  0.69094940100E+02  0.69094940100E+02  0.00000000000E+00 0. -1.
         -1   -1    0    0    0  501 -0.00000000000E+00 -0.00000000000E+00 -0.34299575239E+03  0.34299575239E+03  0.00000000000E+00 0.  1.
         23    2    1    2    0    0  0.31151968016E+02  0.10397451963E+03 -0.13224311158E+03  0.19421157408E+03  0.91917077329E+02 0.  0.
          5    1    1    2  502    0  0.10357821739E+02  0.15440856251E+02  0.89695396241E+01  0.21171848148E+02  0.47000000000E+01 0. -1.
         -5    1    1    2    0  502 -0.41509789756E+02 -0.11941537588E+03 -0.15062724033E+03  0.19670727026E+03  0.47000000000E+01 0. -1.
        -11    1    3    3    0    0  0.62239041283E+02  0.49792708055E+02 -0.76919351519E+02  0.11076822050E+03  0.00000000000E+00 0.  1.
         11    1    3    3    0    0 -0.31087073267E+02  0.54181811571E+02 -0.55323760060E+02  0.83443353580E+02  0.00000000000E+00 0. -1.
<mgrwt>
<rscale>  0 0.15937928E+03</rscale>
<asrwt>0</asrwt>
<pdfrwt beam="1">  1        1 0.10629991E-01 0.16554276E+03</pdfrwt>
<pdfrwt beam="2">  1       -1 0.52768578E-01 0.16554276E+03</pdfrwt>
<totfact> 0.21485200E+03</totfact>
</mgrwt>
</event>
<event>
 7    1  0.1330601E-005  0.1438004E+03  0.7546771E-02  0.1218363E+00
          3   -1    0    0  501    0  0.00000000000E+00  0.00000000000E+00  0.76056612014E+02  0.76056612014E+02  0.00000000000E+00 0. -1.
         -3   -1    0    0    0  501 -0.00000000000E+00 -0.00000000000E+00 -0.24110547998E+03  0.24110547998E+03  0.00000000000E+00 0.  1.
         23    2    1    2    0    0  0.70379798452E+02  0.99603704487E+01 -0.30159580497E+02  0.11999799929E+03  0.91855291233E+02 0.  0.
          5    1    1    2  502    0 -0.63552599625E+02  0.51313050884E+02 -0.81292040780E+02  0.11533623890E+03  0.47000000000E+01 0. -1.
         -5    1    1    2    0  502 -0.68271988270E+01 -0.61273421332E+02 -0.53597246693E+02  0.81827853807E+02  0.47000000000E+01 0. -1.
        -11    1    3    3    0    0  0.38875933450E+02 -0.40778304953E+02 -0.16899702763E+02  0.58820135242E+02  0.00000000000E+00 0. -1.
         11    1    3    3    0    0  0.31503865002E+02  0.50738675402E+02 -0.13259877734E+02  0.61177864045E+02  0.00000000000E+00 0.  1.
<mgrwt>
<rscale>  0 0.13632367E+03</rscale>
<asrwt>0</asrwt>
<pdfrwt beam="1">  1        3 0.11701017E-01 0.14380042E+03</pdfrwt>
<pdfrwt beam="2">  1       -3 0.37093150E-01 0.14380042E+03</pdfrwt>
<totfact> 0.94819323E+02</totfact>
</mgrwt>
</event>
<event>
 7    1  0.1330601E-005  0.1407673E+03  0.7546771E-02  0.1224155E+00
         -3   -1    0    0    0  501 -0.00000000000E+00  0.00000000000E+00  0.59461319867E+02  0.59461319867E+02  0.00000000000E+00 0.  1.
          3   -1    0    0  501    0  0.00000000000E+00 -0.00000000000E+00 -0.29739286111E+03  0.29739286111E+03  0.00000000000E+00 0. -1.
         23    2    1    2    0    0 -0.53282477910E+02  0.36704337906E+02 -0.16552032193E+03  0.19855437324E+03  0.88547339248E+02 0.  0.
          5    1    1    2  502    0 -0.27703691391E+01 -0.24132548256E+01 -0.89933770741E+02  0.90131414411E+02  0.47000000000E+01 0. -1.
         -5    1    1    2    0  502  0.56052847049E+02 -0.34291083080E+02  0.17522551421E+02  0.68168393331E+02  0.47000000000E+01 0. -1.
        -11    1    3    3    0    0 -0.56783597087E+02  0.58548109140E+02 -0.97987704908E+02  0.12749058120E+03  0.00000000000E+00 0.  1.
         11    1    3    3    0    0  0.35011191773E+01 -0.21843771234E+02 -0.67532617019E+02  0.71063792037E+02  0.00000000000E+00 0. -1.
<mgrwt>
<rscale>  0 0.13224994E+03</rscale>
<asrwt>0</asrwt>
<pdfrwt beam="2">  1        3 0.45752749E-01 0.14076734E+03</pdfrwt>
<pdfrwt beam="1">  1       -3 0.91478951E-02 0.14076734E+03</pdfrwt>
<totfact> 0.94725595E+02</totfact>
</mgrwt>
</event>
<event>
 7    1  0.1330601E-005  0.1319372E+03  0.7546771E-02  0.1231433E+00
         -2   -1    0    0    0  501 -0.00000000000E+00  0.00000000000E+00  0.64953122368E+02  0.64953122368E+02  0.00000000000E+00 0.  1.
          2   -1    0    0  501    0  0.00000000000E+00 -0.00000000000E+00 -0.25464025368E+03  0.25464025368E+03  0.00000000000E+00 0. -1.
         23    2    1    2    0    0 -0.70759196536E+02 -0.52943564046E+01 -0.13426963818E+03  0.17649014516E+03  0.89919639119E+02 0.  0.
          5    1    1    2  502    0  0.66756789866E+02  0.38739610446E+02 -0.71649497864E+02  0.10541805801E+03  0.47000000000E+01 0. -1.
         -5    1    1    2    0  502  0.40024066698E+01 -0.33445254041E+02  0.16232004729E+02  0.37685172874E+02  0.47000000000E+01 0.  1.
        -11    1    3    3    0    0 -0.82836916711E+02 -0.16799793101E+02 -0.68964919830E+02  0.10908871612E+03  0.00000000000E+00 0. -1.
         11    1    3    3    0    0  0.12077720175E+02  0.11505436696E+02 -0.65304718347E+02  0.67401429040E+02  0.00000000000E+00 0.  1.
<mgrwt>
<rscale>  0 0.12735590E+03</rscale>
<asrwt>0</asrwt>
<pdfrwt beam="2">  1        2 0.39175423E-01 0.13193724E+03</pdfrwt>
<pdfrwt beam="1">  1       -2 0.99927881E-02 0.13193724E+03</pdfrwt>
<totfact> 0.82190023E+03</totfact>
</mgrwt>
</event>
<event>
 7    1  0.1330601E-005  0.1727256E+03  0.7546771E-02  0.1193066E+00
         -1   -1    0    0    0  501 -0.00000000000E+00  0.00000000000E+00  0.13043762774E+03  0.13043762774E+03  0.00000000000E+00 0.  1.
          1   -1    0    0  501    0  0.00000000000E+00 -0.00000000000E+00 -0.25011846358E+03  0.25011846358E+03  0.00000000000E+00 0. -1.
         23    2    1    2    0    0  0.65929992443E+02 -0.28071540630E+02 -0.16554087880E+03  0.20184607829E+03  0.90571968465E+02 0.  0.
          5    1    1    2  502    0  0.41600017428E+02 -0.10432926464E+02 -0.19150559277E+02  0.47204251135E+02  0.47000000000E+01 0. -1.
         -5    1    1    2    0  502 -0.10753000987E+03  0.38504467094E+02  0.65010602231E+02  0.13150576190E+03  0.47000000000E+01 0.  1.
        -11    1    3    3    0    0  0.13236868264E+02  0.32089211922E+02 -0.61495201694E+02  0.70615805841E+02  0.00000000000E+00 0. -1.
         11    1    3    3    0    0  0.52693124179E+02 -0.60160752552E+02 -0.10404567710E+03  0.13123027245E+03  0.00000000000E+00 0.  1.
<mgrwt>
<rscale>  0 0.15619030E+03</rscale>
<asrwt>0</asrwt>
<pdfrwt beam="2">  1        1 0.38479763E-01 0.17272558E+03</pdfrwt>
<pdfrwt beam="1">  1       -1 0.20067327E-01 0.17272558E+03</pdfrwt>
<totfact> 0.21771824E+03</totfact>
</mgrwt>
</event>
<event>
 7    1  0.1330601E-005  0.1415581E+03  0.7546771E-02  0.1222154E+00
         -1   -1    0    0    0  501 -0.00000000000E+00  0.00000000000E+00  0.84897488267E+02  0.84897488267E+02  0.00000000000E+00 0.  1.
          1   -1    0    0  501    0  0.00000000000E+00 -0.00000000000E+00 -0.22218621881E+03  0.22218621881E+03  0.00000000000E+00 0. -1.
         23    2    1    2    0    0  0.64685830235E+02 -0.15163285501E+02 -0.12004163518E+03  0.16447884465E+03  0.90714465779E+02 0.  0.
          5    1    1    2  502    0  0.19370070535E+01  0.22411181720E+02  0.45312383176E+02  0.50806644561E+02  0.47000000000E+01 0.  1.
         -5    1    1    2    0  502 -0.66622837289E+02 -0.72478962190E+01 -0.62559478544E+02  0.91798217867E+02  0.47000000000E+01 0.  1.
        -11    1    3    3    0    0 -0.12261340971E+02  0.22900645270E+02 -0.20945432554E+02  0.33369015284E+02  0.00000000000E+00 0.  1.
         11    1    3    3    0    0  0.76947171206E+02 -0.38063930771E+02 -0.99096202626E+02  0.13110982937E+03  0.00000000000E+00 0. -1.
<mgrwt>
<rscale>  0 0.13363908E+03</rscale>
<asrwt>0</asrwt>
<pdfrwt beam="2">  1        1 0.34182496E-01 0.14155806E+03</pdfrwt>
<pdfrwt beam="1">  1       -1 0.13061152E-01 0.14155806E+03</pdfrwt>
<totfact> 0.49327251E+03</totfact>
</mgrwt>
</event>
<event>
 7    1  0.1330601E-005  0.1722356E+03  0.7546771E-02  0.1181729E+00
         -2   -1    0    0    0  501 -0.00000000000E+00  0.00000000000E+00  0.28278835734E+03  0.28278835734E+03  0.00000000000E+00 0.  1.
          2   -1    0    0  501    0  0.00000000000E+00 -0.00000000000E+00 -0.11064308569E+03  0.11064308569E+03  0.00000000000E+00 0. -1.
         23    2    1    2    0    0 -0.80816731565E+02 -0.86619708229E+02 -0.15935695273E+00  0.14980468326E+03  0.91690238186E+02 0.  0.
          5    1    1    2  502    0 -0.40534405556E+00 -0.20349707216E+02  0.74603739973E+02  0.77473110855E+02  0.47000000000E+01 0. -1.
         -5    1    1    2    0  502  0.81222075620E+02  0.10696941545E+03  0.97700888626E+02  0.16615364891E+03  0.47000000000E+01 0. -1.
        -11    1    3    3    0    0 -0.82466235819E+02 -0.53233283950E+02  0.32178626054E+02  0.10329533651E+03  0.00000000000E+00 0.  1.
         11    1    3    3    0    0  0.16495042543E+01 -0.33386424280E+02 -0.32337983006E+02  0.46509346753E+02  0.00000000000E+00 0. -1.
<mgrwt>
<rscale>  0 0.16633113E+03</rscale>
<asrwt>0</asrwt>
<pdfrwt beam="2">  1        2 0.17022013E-01 0.17223563E+03</pdfrwt>
<pdfrwt beam="1">  1       -2 0.43505901E-01 0.17223563E+03</pdfrwt>
<totfact> 0.16673713E+03</totfact>
</mgrwt>
</event>
<event>
 7    1  0.1330601E-005  0.1295721E+03  0.7546771E-02  0.1243297E+00
          2   -1    0    0  501    0  0.00000000000E+00  0.00000000000E+00  0.10264849305E+04  0.10264849305E+04  0.00000000000E+00 0.  1.
         -2   -1    0    0    0  501 -0.00000000000E+00 -0.00000000000E+00 -0.12384634009E+02  0.12384634009E+02  0.00000000000E+00 0. -1.
         23    2    1    2    0    0  0.25326125018E+02 -0.22537499749E+02  0.38145596259E+03  0.39309268177E+03  0.88678371441E+02 0.  0.
          5    1    1    2  502    0 -0.21819370630E+02  0.39834931592E+02  0.62382631430E+03  0.62549521751E+03  0.47000000000E+01 0. -1.
         -5    1    1    2    0  502 -0.35067543882E+01 -0.17297431843E+02  0.88180195876E+01  0.20281665222E+02  0.47000000000E+01 0. -1.
        -11    1    3    3    0    0 -0.27186154358E+02  0.11894430959E+02  0.16766103623E+03  0.17026681282E+03  0.00000000000E+00 0.  1.
         11    1    3    3    0    0  0.52512279376E+02 -0.34431930708E+02  0.21379492636E+03  0.22282586895E+03  0.00000000000E+00 0. -1.
<mgrwt>
<rscale>  0 0.11987912E+03</rscale>
<asrwt>0</asrwt>
<pdfrwt beam="1">  1        2 0.15792069E+00 0.12957210E+03</pdfrwt>
<pdfrwt beam="2">  1       -2 0.19053291E-02 0.12957210E+03</pdfrwt>
<totfact> 0.19971990E+04</totfact>
</mgrwt>
</event>
<event>
 7    1  0.1330601E-005  0.2416246E+03  0.7546771E-02  0.1121368E+00
          2   -1    0    0  501    0  0.00000000000E+00  0.00000000000E+00  0.16256501086E+04  0.16256501086E+04  0.00000000000E+00 0. -1.
         -2   -1    0    0    0  501 -0.00000000000E+00 -0.00000000000E+00 -0.40450860778E+02  0.40450860778E+02  0.00000000000E+00 0.  1.
         23    2    1    2    0    0  0.11917546389E+03 -0.16897915783E+03  0.11122877091E+04  0.11350381019E+04  0.91492065874E+02 0.  0.
          5    1    1    2  502    0 -0.36187503148E+02  0.10824730254E+03  0.13012419468E+03  0.17315140754E+03  0.47000000000E+01 0. -1.
         -5    1    1    2    0  502 -0.82987960742E+02  0.60731855287E+02  0.34278734404E+03  0.35791145987E+03  0.47000000000E+01 0. -1.
        -11    1    3    3    0    0  0.71822668828E+02 -0.40742314633E+02  0.29253934256E+03  0.30396989802E+03  0.00000000000E+00 0.  1.
         11    1    3    3    0    0  0.47352795062E+02 -0.12823684320E+03  0.81974836651E+03  0.83106820391E+03  0.00000000000E+00 0. -1.
<mgrwt>
<rscale>  0 0.23764995E+03</rscale>
<asrwt>0</asrwt>
<pdfrwt beam="1">  1        2 0.25009997E+00 0.24162460E+03</pdfrwt>
<pdfrwt beam="2">  1       -2 0.62232106E-02 0.24162460E+03</pdfrwt>
<totfact> 0.16388906E+03</totfact>
</mgrwt>
</event>
<event>
 7    1  0.1330601E-005  0.2384610E+03  0.7546771E-02  0.1123360E+00
          2   -1    0    0  501    0  0.00000000000E+00  0.00000000000E+00  0.61581474006E+02  0.61581474006E+02  0.00000000000E+00 0. -1.
         -2   -1    0    0    0  501 -0.00000000000E+00 -0.00000000000E+00 -0.88772659688E+03  0.88772659688E+03  0.00000000000E+00 0.  1.
         23    2    1    2    0    0 -0.19037110583E+03  0.70609716945E+02 -0.32904410067E+03  0.39797053930E+03  0.94253063102E+02 0.  0.
          5    1    1    2  502    0  0.11500927733E+01  0.25648667312E+02 -0.52830365206E+02  0.58926346706E+02  0.47000000000E+01 0. -1.
         -5    1    1    2    0  502  0.18922101306E+03 -0.96258384257E+02 -0.44427065699E+03  0.49241118487E+03  0.47000000000E+01 0. -1.
        -11    1    3    3    0    0 -0.13492824797E+03  0.45798461147E+01 -0.22962721737E+03  0.26637429690E+03  0.00000000000E+00 0.  1.
         11    1    3    3    0    0 -0.55442857860E+02  0.66029870830E+02 -0.99416883297E+02  0.13159624240E+03  0.00000000000E+00 0. -1.
<mgrwt>
<rscale>  0 0.23472219E+03</rscale>
<asrwt>0</asrwt>
<pdfrwt beam="1">  1        2 0.94740739E-02 0.23846100E+03</pdfrwt>
<pdfrwt beam="2">  1       -2 0.13657331E+00 0.23846100E+03</pdfrwt>
<totfact> 0.27638174E+02</totfact>
</mgrwt>
</event>
<event>
 7    1  0.1330601E-005  0.1268561E+03  0.7546771E-02  0.1247491E+00
          2   -1    0    0  501    0  0.00000000000E+00  0.00000000000E+00  0.24204400432E+03  0.24204400432E+03  0.00000000000E+00 0.  1.
         -2   -1    0    0    0  501 -0.00000000000E+00 -0.00000000000E+00 -0.55188098875E+02  0.55188098875E+02  0.00000000000E+00 0. -1.
         23    2    1    2    0    0  0.15949667323E+02 -0.14624207380E+02  0.12584742617E+03  0.15646806061E+03  0.90423558814E+02 0.  0.
          5    1    1    2  502    0 -0.36486428662E+02 -0.27752516374E+01  0.92194123063E+02  0.99301600317E+02  0.47000000000E+01 0.  1.
         -5    1    1    2    0  502  0.20536761340E+02  0.17399459017E+02 -0.31185643787E+02  0.41462442268E+02  0.47000000000E+01 0.  1.
        -11    1    3    3    0    0 -0.13374922909E+02  0.87780116276E+01 -0.76970701339E+01  0.17753504995E+02  0.00000000000E+00 0. -1.
         11    1    3    3    0    0  0.29324590232E+02 -0.23402219007E+02  0.13354449631E+03  0.13871455562E+03  0.00000000000E+00 0.  1.
<mgrwt>
<rscale>  0 0.11737544E+03</rscale>
<asrwt>0</asrwt>
<pdfrwt beam="1">  1        2 0.37237538E-01 0.12685614E+03</pdfrwt>
<pdfrwt beam="2">  1       -2 0.84904769E-02 0.12685614E+03</pdfrwt>
<totfact> 0.11149530E+04</totfact>
</mgrwt>
</event>
<event>
 7    1  0.1330601E-005  0.1463172E+03  0.7546771E-02  0.1214567E+00
         -2   -1    0    0    0  501 -0.00000000000E+00  0.00000000000E+00  0.86173970883E+02  0.86173970883E+02  0.00000000000E+00 0.  1.
          2   -1    0    0  501    0  0.00000000000E+00 -0.00000000000E+00 -0.21809990158E+03  0.21809990158E+03  0.00000000000E+00 0. -1.
         23    2    1    2    0    0 -0.73036242377E+02  0.21143321852E+02 -0.96911997429E+02  0.15382556216E+03  0.92135962402E+02 0.  0.
          5    1    1    2  502    0 -0.41545672085E+01 -0.33551586972E+02 -0.59321236505E+02  0.68440255096E+02  0.47000000000E+01 0. -1.
         -5    1    1    2    0  502  0.77190809585E+02  0.12408265120E+02  0.24307303242E+02  0.82008055206E+02  0.47000000000E+01 0. -1.
        -11    1    3    3    0    0 -0.47416875909E+01  0.34922838462E+02 -0.71411287743E+02  0.79634541906E+02  0.00000000000E+00 0. -1.
         11    1    3    3    0    0 -0.68294554786E+02 -0.13779516610E+02 -0.25500709687E+02  0.74191020251E+02  0.00000000000E+00 0.  1.
<mgrwt>
<rscale>  0 0.13908359E+03</rscale>
<asrwt>0</asrwt>
<pdfrwt beam="2">  1        2 0.33553831E-01 0.14631718E+03</pdfrwt>
<pdfrwt beam="1">  1       -2 0.13257534E-01 0.14631718E+03</pdfrwt>
<totfact> 0.62282370E+03</totfact>
</mgrwt>
</event>
<event>
 7    1  0.1330601E-005  0.1398241E+03  0.7546771E-02  0.1224089E+00
         -3   -1    0    0    0  501 -0.00000000000E+00  0.00000000000E+00  0.47394395868E+02  0.47394395868E+02  0.00000000000E+00 0.  1.
          3   -1    0    0  501    0  0.00000000000E+00 -0.00000000000E+00 -0.33496014339E+03  0.33496014339E+03  0.00000000000E+00 0. -1.
         23    2    1    2    0    0 -0.77971326195E+01  0.62101501219E+02 -0.13364645796E+03  0.17440758730E+03  0.92947506980E+02 0.  0.
          5    1    1    2  502    0  0.21309364130E+02  0.31478678927E+02 -0.76882729303E+02  0.85895519625E+02  0.47000000000E+01 0. -1.
         -5    1    1    2    0  502 -0.13512231511E+02 -0.93580180145E+02 -0.77036560261E+02  0.12205143233E+03  0.47000000000E+01 0. -1.
        -11    1    3    3    0    0 -0.26910182971E+02 -0.13405376853E+02 -0.18201622068E+02  0.35144859112E+02  0.00000000000E+00 0.  1.
         11    1    3    3    0    0  0.19113050352E+02  0.75506878072E+02 -0.11544483589E+03  0.13926272819E+03  0.00000000000E+00 0. -1.
<mgrwt>
<rscale>  0 0.13229570E+03</rscale>
<asrwt>0</asrwt>
<pdfrwt beam="2">  1        3 0.51532329E-01 0.13982413E+03</pdfrwt>
<pdfrwt beam="1">  1       -3 0.72914456E-02 0.13982413E+03</pdfrwt>
<totfact> 0.10813151E+03</totfact>
</mgrwt>
</event>
<event>
 7    1  0.1330601E-005  0.1805277E+03  0.7546771E-02  0.1172928E+00
          4   -1    0    0  501    0  0.00000000000E+00  0.00000000000E+00  0.42628369192E+03  0.42628369192E+03  0.00000000000E+00 0. -1.
         -4   -1    0    0    0  501 -0.00000000000E+00 -0.00000000000E+00 -0.72174011309E+02  0.72174011309E+02  0.00000000000E+00 0.  1.
         23    2    1    2    0    0 -0.11484131935E+03  0.61591758669E+02  0.22978728220E+03  0.27926304088E+03  0.90573603064E+02 0.  0.
          5    1    1    2  502    0  0.12102242158E+03 -0.55614869887E+02  0.47096016938E+02  0.14134908946E+03  0.47000000000E+01 0.  1.
         -5    1    1    2    0  502 -0.61811022296E+01 -0.59768887817E+01  0.77226381468E+02  0.77845572892E+02  0.47000000000E+01 0.  1.
        -11    1    3    3    0    0 -0.97908988528E+02  0.51367731755E+01  0.12304674669E+03  0.15733104698E+03  0.00000000000E+00 0.  1.
         11    1    3    3    0    0 -0.16932330826E+02  0.56454985493E+02  0.10674053552E+03  0.12193199390E+03  0.00000000000E+00 0. -1.
<mgrwt>
<rscale>  0 0.17480425E+03</rscale>
<asrwt>0</asrwt>
<pdfrwt beam="1">  1        4 0.65582105E-01 0.18052767E+03</pdfrwt>
<pdfrwt beam="2">  1       -4 0.11103694E-01 0.18052767E+03</pdfrwt>
<totfact> 0.24393129E+02</totfact>
</mgrwt>
</event>
<event>
 7    1  0.1330601E-005  0.4825246E+03  0.7546771E-02  0.1018905E+00
         -1   -1    0    0    0  501 -0.00000000000E+00  0.00000000000E+00  0.22693480400E+03  0.22693480400E+03  0.00000000000E+00 0.  1.
          1   -1    0    0  501    0  0.00000000000E+00 -0.00000000000E+00 -0.14091718051E+04  0.14091718051E+04  0.00000000000E+00 0. -1.
         23    2    1    2    0    0 -0.31308637139E+03 -0.34522791002E+03 -0.10225705963E+04  0.11278514365E+04  0.95879365099E+02 0.  0.
          5    1    1    2  502    0 -0.27272346403E+01  0.56341262476E+01 -0.23706009162E+02  0.24964896509E+02  0.47000000000E+01 0. -1.
         -5    1    1    2    0  502  0.31581360603E+03  0.33959378377E+03 -0.13596039560E+03  0.48329027603E+03  0.47000000000E+01 0. -1.
        -11    1    3    3    0    0 -0.21318855925E+03 -0.20252208043E+03 -0.54107589252E+03  0.61581464446E+03  0.00000000000E+00 0. -1.
         11    1    3    3    0    0 -0.99897812141E+02 -0.14270582959E+03 -0.48149470378E+03  0.51203679208E+03  0.00000000000E+00 0.  1.
<mgrwt>
<rscale>  0 0.48083791E+03</rscale>
<asrwt>0</asrwt>
<pdfrwt beam="2">  1        1 0.21679566E+00 0.48252457E+03</pdfrwt>
<pdfrwt beam="1">  1       -1 0.34913047E-01 0.48252457E+03</pdfrwt>
<totfact> 0.62607927E+01</totfact>
</mgrwt>
</event>
<event>
 7    1  0.1330601E-005  0.1866289E+03  0.7546771E-02  0.1166887E+00
         -2   -1    0    0    0  501 -0.00000000000E+00  0.00000000000E+00  0.19737306331E+02  0.19737306331E+02  0.00000000000E+00 0.  1.
          2   -1    0    0  501    0  0.00000000000E+00 -0.00000000000E+00 -0.15749455970E+04  0.15749455970E+04  0.00000000000E+00 0. -1.
         23    2    1    2    0    0  0.12201967393E+03 -0.65723249912E+02 -0.79167598835E+03  0.80867276340E+03  0.89400343012E+02 0.  0.
          5    1    1    2  502    0 -0.10230462258E+03  0.48304627210E+02 -0.74483922526E+03  0.75339706284E+03  0.47000000000E+01 0. -1.
         -5    1    1    2    0  502 -0.19715051353E+02  0.17418622702E+02 -0.18693077033E+02  0.32613077065E+02  0.47000000000E+01 0. -1.
        -11    1    3    3    0    0  0.84396658276E+01 -0.48197144618E+02 -0.19629950958E+03  0.20230593212E+03  0.00000000000E+00 0.  1.
         11    1    3    3    0    0  0.11358000810E+03 -0.17526105294E+02 -0.59537647878E+03  0.60636683129E+03  0.00000000000E+00 0. -1.
<mgrwt>
<rscale>  0 0.18094930E+03</rscale>
<asrwt>0</asrwt>
<pdfrwt beam="2">  1        2 0.24229947E+00 0.18662895E+03</pdfrwt>
<pdfrwt beam="1">  1       -2 0.30365068E-02 0.18662895E+03</pdfrwt>
<totfact> 0.51421822E+03</totfact>
</mgrwt>
</event>
<event>
 7    1  0.1330601E-005  0.1460338E+03  0.7546771E-02  0.1208374E+00
          2   -1    0    0  501    0  0.00000000000E+00  0.00000000000E+00  0.86501003417E+02  0.86501003417E+02  0.00000000000E+00 0. -1.
         -2   -1    0    0    0  501 -0.00000000000E+00 -0.00000000000E+00 -0.23185513310E+03  0.23185513310E+03  0.00000000000E+00 0.  1.
         23    2    1    2    0    0 -0.74457837435E+02 -0.12509148937E+02 -0.74646901825E+02  0.15610511281E+03  0.11443862080E+03 0.  0.
          5    1    1    2  502    0  0.52618186372E+02 -0.44037316764E+02 -0.74426736215E+02  0.10133798828E+03  0.47000000000E+01 0.  1.
         -5    1    1    2    0  502  0.21839651063E+02  0.56546465701E+02  0.37195083608E+01  0.60913035422E+02  0.47000000000E+01 0.  1.
        -11    1    3    3    0    0 -0.16175044164E+02 -0.59217483772E+02 -0.43207408058E+02  0.75068119392E+02  0.00000000000E+00 0. -1.
         11    1    3    3    0    0 -0.58282793271E+02  0.46708334834E+02 -0.31439493768E+02  0.81036993421E+02  0.00000000000E+00 0.  1.
<mgrwt>
<rscale>  0 0.14374746E+03</rscale>
<asrwt>0</asrwt>
<pdfrwt beam="1">  1        2 0.13307847E-01 0.14603384E+03</pdfrwt>
<pdfrwt beam="2">  1       -2 0.35670020E-01 0.14603384E+03</pdfrwt>
<totfact> 0.32179458E+03</totfact>
</mgrwt>
</event>
<event>
 7    1  0.1330601E-005  0.1366008E+03  0.7546771E-02  0.1229865E+00
          1   -1    0    0  501    0  0.00000000000E+00  0.00000000000E+00  0.23392018487E+03  0.23392018487E+03  0.00000000000E+00 0. -1.
         -1   -1    0    0    0  501 -0.00000000000E+00 -0.00000000000E+00 -0.68282502474E+02  0.68282502474E+02  0.00000000000E+00 0.  1.
         23    2    1    2    0    0  0.20335814702E+02  0.51173029716E+02  0.11424118685E+03  0.15625280987E+03  0.91277968256E+02 0.  0.
          5    1    1    2  502    0 -0.70822342275E+02 -0.28202759558E+02  0.10983644622E+02  0.77161714996E+02  0.47000000000E+01 0.  1.
         -5    1    1    2    0  502  0.50486527573E+02 -0.22970270158E+02  0.40412850926E+02  0.68788162481E+02  0.47000000000E+01 0.  1.
        -11    1    3    3    0    0 -0.11290425339E+02  0.93068682996E+01 -0.12395632616E+02  0.19176631868E+02  0.00000000000E+00 0.  1.
         11    1    3    3    0    0  0.31626240041E+02  0.41866161416E+02  0.12663681946E+03  0.13707617800E+03  0.00000000000E+00 0. -1.
<mgrwt>
<rscale>  0 0.12838986E+03</rscale>
<asrwt>0</asrwt>
<pdfrwt beam="1">  1        1 0.35987720E-01 0.13660076E+03</pdfrwt>
<pdfrwt beam="2">  1       -1 0.10505000E-01 0.13660076E+03</pdfrwt>
<totfact> 0.64603624E+03</totfact>
</mgrwt>
</event>
<event>
 7    1  0.1330601E-005  0.1222366E+03  0.7546771E-02  0.1251369E+00
          1   -1    0    0  501    0  0.00000000000E+00  0.00000000000E+00  0.40754771984E+02  0.40754771984E+02  0.00000000000E+00 0. -1.
         -1   -1    0    0    0  501 -0.00000000000E+00 -0.00000000000E+00 -0.35585906494E+03  0.35585906494E+03  0.00000000000E+00 0.  1.
         23    2    1    2    0    0 -0.22626575148E+02 -0.25579827367E+02 -0.58970647837E+02  0.11280716376E+03  0.89897883278E+02 0.  0.
          5    1    1    2  502    0  0.28889690972E+02 -0.40404477096E+02 -0.15470130500E+03  0.16254759237E+03  0.47000000000E+01 0. -1.
         -5    1    1    2    0  502 -0.62631158235E+01  0.65984304463E+02 -0.10143234011E+03  0.12125908080E+03  0.47000000000E+01 0.  1.
        -11    1    3    3    0    0 -0.14566771136E+02  0.27072339616E+02  0.32351556965E+01  0.30912273064E+02  0.00000000000E+00 0.  1.
         11    1    3    3    0    0 -0.80598040118E+01 -0.52652166982E+02 -0.62205803533E+02  0.81894890694E+02  0.00000000000E+00 0. -1.
<mgrwt>
<rscale>  0 0.11512149E+03</rscale>
<asrwt>0</asrwt>
<pdfrwt beam="1">  1        1 0.62699653E-02 0.12223659E+03</pdfrwt>
<pdfrwt beam="2">  1       -1 0.54747545E-01 0.12223659E+03</pdfrwt>
<totfact> 0.40089329E+03</totfact>
</mgrwt>
</event>
<event>
 7    1  0.1330601E-005  0.1452769E+03  0.7546771E-02  0.1216539E+00
         -2   -1    0    0    0  501 -0.00000000000E+00  0.00000000000E+00  0.21033714494E+02  0.21033714494E+02  0.00000000000E+00 0.  1.
          2   -1    0    0  501    0  0.00000000000E+00 -0.00000000000E+00 -0.90189326671E+03  0.90189326671E+03  0.00000000000E+00 0. -1.
         23    2    1    2    0    0  0.28164184420E+02  0.68480741575E+02 -0.53749165789E+03  0.55009072201E+03  0.90662488856E+02 0.  0.
          5    1    1    2  502    0 -0.61548406386E+02 -0.60919716673E+02 -0.12737288715E+03  0.15409529711E+03  0.47000000000E+01 0. -1.
         -5    1    1    2    0  502  0.33384221967E+02 -0.75610249026E+01 -0.21599500717E+03  0.21874096209E+03  0.47000000000E+01 0. -1.
        -11    1    3    3    0    0 -0.28728779262E+02  0.43174946147E+02 -0.30637183852E+03  0.31072998273E+03  0.00000000000E+00 0. -1.
         11    1    3    3    0    0  0.56892963682E+02  0.25305795428E+02 -0.23111981937E+03  0.23936073928E+03  0.00000000000E+00 0.  1.
<mgrwt>
<rscale>  0 0.13764086E+03</rscale>
<asrwt>0</asrwt>
<pdfrwt beam="2">  1        2 0.13875279E+00 0.14527686E+03</pdfrwt>
<pdfrwt beam="1">  1       -2 0.32359565E-02 0.14527686E+03</pdfrwt>
<totfact> 0.11050347E+04</totfact>
</mgrwt>
</event>
<event>
 7    1  0.1330601E-005  0.1282771E+03  0.7546771E-02  0.1243565E+00
          1   -1    0    0  501    0  0.00000000000E+00  0.00000000000E+00  0.31189191874E+03  0.31189191874E+03  0.00000000000E+00 0. -1.
         -1   -1    0    0    0  501 -0.00000000000E+00 -0.00000000000E+00 -0.41876228776E+02  0.41876228776E+02  0.00000000000E+00 0.  1.
         23    2    1    2    0    0  0.21036365204E+02 -0.19719087889E+02  0.14515421417E+03  0.17475583755E+03  0.92943454742E+02 0.  0.
          5    1    1    2  502    0 -0.53688759970E+01  0.40303008202E+01  0.14705952691E+03  0.14728768655E+03  0.47000000000E+01 0.  1.
         -5    1    1    2    0  502 -0.15667489207E+02  0.15688787069E+02 -0.22198051113E+02  0.31724623417E+02  0.47000000000E+01 0.  1.
        -11    1    3    3    0    0  0.22082562462E+02  0.11406521682E+02 -0.14340172246E+01  0.24895877312E+02  0.00000000000E+00 0.  1.
         11    1    3    3    0    0 -0.10461972575E+01 -0.31125609571E+02  0.14658823139E+03  0.14985996024E+03  0.00000000000E+00 0. -1.
<mgrwt>
<rscale>  0 0.11971672E+03</rscale>
<asrwt>0</asrwt>
<pdfrwt beam="1">  1        1 0.47983371E-01 0.12827712E+03</pdfrwt>
<pdfrwt beam="2">  1       -1 0.64424969E-02 0.12827712E+03</pdfrwt>
<totfact> 0.94323924E+03</totfact>
</mgrwt>
</event>
<event>
 7    1  0.1330601E-005  0.1482023E+03  0.7546771E-02  0.1211975E+00
         -3   -1    0    0    0  501 -0.00000000000E+00  0.00000000000E+00  0.26645733062E+03  0.26645733062E+03  0.00000000000E+00 0.  1.
          3   -1    0    0  501    0  0.00000000000E+00 -0.00000000000E+00 -0.68237254580E+02  0.68237254580E+02  0.00000000000E+00 0. -1.
         23    2    1    2    0    0 -0.79609512513E+02 -0.11146523930E+01  0.87439793418E+02  0.14966431414E+03  0.91732069214E+02 0.  0.
          5    1    1    2  502    0  0.77991543560E+02 -0.50041305688E+02  0.90992211848E+02  0.12995570691E+03  0.47000000000E+01 0.  1.
         -5    1    1    2    0  502  0.16179689532E+01  0.51155958081E+02  0.19788070771E+02  0.55074564144E+02  0.47000000000E+01 0.  1.
        -11    1    3    3    0    0 -0.66067219027E+02 -0.38061273385E+02  0.34466589871E+02  0.83674869460E+02  0.00000000000E+00 0. -1.
         11    1    3    3    0    0 -0.13542293486E+02  0.36946620992E+02  0.52973203547E+02  0.65989444683E+02  0.00000000000E+00 0.  1.
<mgrwt>
<rscale>  0 0.14101128E+03</rscale>
<asrwt>0</asrwt>
<pdfrwt beam="2">  1        3 0.10498039E-01 0.14820233E+03</pdfrwt>
<pdfrwt beam="1">  1       -3 0.40993435E-01 0.14820233E+03</pdfrwt>
<totfact> 0.94199687E+02</totfact>
</mgrwt>
</event>
<event>
 7    1  0.1330601E-005  0.1449757E+03  0.7546771E-02  0.1217090E+00
          1   -1    0    0  501    0  0.00000000000E+00  0.00000000000E+00  0.34619168188E+03  0.34619168188E+03  0.00000000000E+00 0. -1.
         -1   -1    0    0    0  501 -0.00000000000E+00 -0.00000000000E+00 -0.63462973189E+02  0.63462973189E+02  0.00000000000E+00 0.  1.
         23    2    1    2    0    0  0.69490908505E+02 -0.23747725062E+02  0.22552001755E+03  0.25379964401E+03  0.90344010167E+02 0.  0.
          5    1    1    2  502    0  0.25505674196E+02  0.27075328737E+02 -0.10641968813E+02  0.38973764799E+02  0.47000000000E+01 0. -1.
         -5    1    1    2    0  502 -0.94996582701E+02 -0.33276036748E+01  0.67850659953E+02  0.11688124626E+03  0.47000000000E+01 0. -1.
        -11    1    3    3    0    0  0.32585062274E+02  0.23674313470E+02  0.32845141417E+02  0.51971749214E+02  0.00000000000E+00 0.  1.
         11    1    3    3    0    0  0.36905846231E+02 -0.47422038532E+02  0.19267487614E+03  0.20182789480E+03  0.00000000000E+00 0. -1.
<mgrwt>
<rscale>  0 0.13724096E+03</rscale>
<asrwt>0</asrwt>
<pdfrwt beam="1">  1        1 0.53260258E-01 0.14497569E+03</pdfrwt>
<pdfrwt beam="2">  1       -1 0.97635345E-02 0.14497569E+03</pdfrwt>
<totfact> 0.44595748E+03</totfact>
</mgrwt>
</event>
<event>
 7    1  0.1330601E-005  0.1561333E+03  0.7546771E-02  0.1200886E+00
         -1   -1    0    0    0  501 -0.00000000000E+00  0.00000000000E+00  0.25281028346E+02  0.25281028346E+02  0.00000000000E+00 0.  1.
          1   -1    0    0  501    0  0.00000000000E+00 -0.00000000000E+00 -0.82159406993E+03  0.82159406993E+03  0.00000000000E+00 0. -1.
         23    2    1    2    0    0  0.67768576749E+02  0.64505857201E+02 -0.38337567219E+03  0.40540610451E+03  0.92863437042E+02 0.  0.
          5    1    1    2  502    0 -0.87337787947E+02 -0.83726097244E+02 -0.37730870661E+03  0.39625988776E+03  0.47000000000E+01 0.  1.
         -5    1    1    2    0  502  0.19569211198E+02  0.19220240043E+02 -0.35628662787E+02  0.45209106010E+02  0.47000000000E+01 0.  1.
        -11    1    3    3    0    0  0.18659008815E+02  0.53721809069E+02 -0.81550767447E+02  0.99421924397E+02  0.00000000000E+00 0.  1.
         11    1    3    3    0    0  0.49109567934E+02  0.10784048133E+02 -0.30182490474E+03  0.30598418011E+03  0.00000000000E+00 0. -1.
<mgrwt>
<rscale>  0 0.14966460E+03</rscale>
<asrwt>0</asrwt>
<pdfrwt beam="2">  1        1 0.12639908E+00 0.15613328E+03</pdfrwt>
<pdfrwt beam="1">  1       -1 0.38893891E-02 0.15613328E+03</pdfrwt>
<totfact> 0.55369305E+03</totfact>
</mgrwt>
</event>
<event>
 7    1  0.1330601E-005  0.1655728E+03  0.7546771E-02  0.1186395E+00
          1   -1    0    0  501    0  0.00000000000E+00  0.00000000000E+00  0.12656554188E+03  0.12656554188E+03  0.00000000000E+00 0. -1.
         -1   -1    0    0    0  501 -0.00000000000E+00 -0.00000000000E+00 -0.20343504584E+03  0.20343504584E+03  0.00000000000E+00 0.  1.
         23    2    1    2    0    0 -0.18181305292E+02  0.10703925745E+03 -0.12873563172E+02  0.15249049124E+03  0.10629985320E+03 0.  0.
          5    1    1    2  502    0  0.22301633067E+02 -0.61571484676E+01 -0.72335918692E+02  0.76091053664E+02  0.47000000000E+01 0.  1.
         -5    1    1    2    0  502 -0.41203277757E+01 -0.10088210899E+03  0.83399778983E+01  0.10141904282E+03  0.47000000000E+01 0.  1.
        -11    1    3    3    0    0 -0.44195075363E+02  0.99842571104E+02 -0.38004046075E+02  0.11561163959E+03  0.00000000000E+00 0.  1.
         11    1    3    3    0    0  0.26013770072E+02  0.71966863495E+01  0.25130482903E+02  0.36878851645E+02  0.00000000000E+00 0. -1.
<mgrwt>
<rscale>  0 0.16205564E+03</rscale>
<asrwt>0</asrwt>
<pdfrwt beam="1">  1        1 0.19471622E-01 0.16557281E+03</pdfrwt>
<pdfrwt beam="2">  1       -1 0.31297699E-01 0.16557281E+03</pdfrwt>
<totfact> 0.24575547E+03</totfact>
</mgrwt>
</event>
<event>
 7    1  0.1330601E-005  0.1612790E+03  0.7546771E-02  0.1194947E+00
         -2   -1    0    0    0  501 -0.00000000000E+00  0.00000000000E+00  0.41063552354E+02  0.41063552354E+02  0.00000000000E+00 0.  1.
          2   -1    0    0  501    0  0.00000000000E+00 -0.00000000000E+00 -0.74619874561E+03  0.74619874561E+03  0.00000000000E+00 0. -1.
         23    2    1    2    0    0  0.20005157491E+02 -0.99930045453E+02 -0.53818404828E+03  0.55513389184E+03  0.90251580222E+02 0.  0.
          5    1    1    2  502    0 -0.25455309959E+02  0.75545125538E+02 -0.19102878988E+02  0.82109979803E+02  0.47000000000E+01 0. -1.
         -5    1    1    2    0  502  0.54501524677E+01  0.24384919915E+02 -0.14784826598E+03  0.15001842632E+03  0.47000000000E+01 0. -1.
        -11    1    3    3    0    0  0.26023236059E+02  0.80951133711E+01 -0.87545358881E+02  0.91689309830E+02  0.00000000000E+00 0. -1.
         11    1    3    3    0    0 -0.60180785677E+01 -0.10802515882E+03 -0.45063868940E+03  0.46344458201E+03  0.00000000000E+00 0.  1.
<mgrwt>
<rscale>  0 0.15458678E+03</rscale>
<asrwt>0</asrwt>
<pdfrwt beam="2">  1        2 0.11479980E+00 0.16127899E+03</pdfrwt>
<pdfrwt beam="1">  1       -2 0.63174702E-02 0.16127899E+03</pdfrwt>
<totfact> 0.51756385E+03</totfact>
</mgrwt>
</event>
<event>
 7    1  0.1330601E-005  0.1528305E+03  0.7546771E-02  0.1205925E+00
          1   -1    0    0  501    0  0.00000000000E+00  0.00000000000E+00  0.58094023242E+03  0.58094023242E+03  0.00000000000E+00 0. -1.
         -1   -1    0    0    0  501 -0.00000000000E+00 -0.00000000000E+00 -0.79064843450E+02  0.79064843450E+02  0.00000000000E+00 0.  1.
         23    2    1    2    0    0  0.27219987228E+02 -0.83613945744E+02  0.49084742480E+03  0.50677725272E+03  0.90331444262E+02 0.  0.
          5    1    1    2  502    0  0.18229711130E+02  0.23675305617E+02  0.57296339382E+02  0.64790454317E+02  0.47000000000E+01 0. -1.
         -5    1    1    2    0  502 -0.45449698359E+02  0.59938640127E+02 -0.46268375207E+02  0.88437368829E+02  0.47000000000E+01 0. -1.
        -11    1    3    3    0    0  0.19109566341E+02  0.95450799814E+01  0.31840950319E+02  0.38342276860E+02  0.00000000000E+00 0.  1.
         11    1    3    3    0    0  0.81104208869E+01 -0.93159025726E+02  0.45900647448E+03  0.46843497586E+03  0.00000000000E+00 0. -1.
<mgrwt>
<rscale>  0 0.14564807E+03</rscale>
<asrwt>0</asrwt>
<pdfrwt beam="1">  1        1 0.89375418E-01 0.15283046E+03</pdfrwt>
<pdfrwt beam="2">  1       -1 0.12163822E-01 0.15283046E+03</pdfrwt>
<totfact> 0.16343836E+03</totfact>
</mgrwt>
</event>
<event>
 7    1  0.1330601E-005  0.1309561E+03  0.7546771E-02  0.1226310E+00
         -2   -1    0    0    0  501 -0.00000000000E+00  0.00000000000E+00  0.43847476558E+02  0.43847476558E+02  0.00000000000E+00 0.  1.
          2   -1    0    0  501    0  0.00000000000E+00 -0.00000000000E+00 -0.39783718778E+03  0.39783718778E+03  0.00000000000E+00 0. -1.
         23    2    1    2    0    0 -0.34699676301E+02  0.17906962829E+02 -0.14353196381E+03  0.19380974611E+03  0.12424196634E+03 0.  0.
          5    1    1    2  502    0 -0.45479922159E+02 -0.55583967651E+01 -0.49791542720E+02  0.67827773225E+02  0.47000000000E+01 0.  1.
         -5    1    1    2    0  502  0.80179598461E+02 -0.12348566063E+02 -0.16066620470E+03  0.18004714501E+03  0.47000000000E+01 0.  1.
        -11    1    3    3    0    0 -0.38153309587E+02  0.48348889036E+02 -0.15030373979E+03  0.16243307637E+03  0.00000000000E+00 0. -1.
         11    1    3    3    0    0  0.34536332856E+01 -0.30441926208E+02  0.67717759827E+01  0.31376669742E+02  0.00000000000E+00 0.  1.
<mgrwt>
<rscale>  0 0.13077514E+03</rscale>
<asrwt>0</asrwt>
<pdfrwt beam="2">  1        2 0.61205719E-01 0.13095614E+03</pdfrwt>
<pdfrwt beam="1">  1       -2 0.67457658E-02 0.13095614E+03</pdfrwt>
<totfact> 0.93969629E+03</totfact>
</mgrwt>
</event>
<event>
 7    1  0.1330601E-005  0.1567931E+03  0.7546771E-02  0.1200428E+00
          1   -1    0    0  501    0  0.00000000000E+00  0.00000000000E+00  0.11725265978E+03  0.11725265978E+03  0.00000000000E+00 0. -1.
         -1   -1    0    0    0  501 -0.00000000000E+00 -0.00000000000E+00 -0.22326300773E+03  0.22326300773E+03  0.00000000000E+00 0.  1.
         23    2    1    2    0    0  0.29952221338E+02  0.89798315107E+02  0.27818363932E+02  0.13437448817E+03  0.91223729040E+02 0.  0.
          5    1    1    2  502    0 -0.67229315874E+02 -0.26764420527E+02 -0.10432319912E+03  0.12704934078E+03  0.47000000000E+01 0. -1.
         -5    1    1    2    0  502  0.37277094537E+02 -0.63033894580E+02 -0.29505512771E+02  0.79091838561E+02  0.47000000000E+01 0. -1.
        -11    1    3    3    0    0  0.52401102182E+02  0.20122974197E+02  0.19194869609E+00  0.56132401024E+02  0.00000000000E+00 0.  1.
         11    1    3    3    0    0 -0.22448880845E+02  0.69675340910E+02  0.27626415236E+02  0.78242087146E+02  0.00000000000E+00 0. -1.
<mgrwt>
<rscale>  0 0.15003631E+03</rscale>
<asrwt>0</asrwt>
<pdfrwt beam="1">  1        1 0.18038871E-01 0.15679305E+03</pdfrwt>
<pdfrwt beam="2">  1       -1 0.34348155E-01 0.15679305E+03</pdfrwt>
<totfact> 0.23076120E+03</totfact>
</mgrwt>
</event>
<event>
 7    1  0.1330601E-005  0.1302870E+03  0.7546771E-02  0.1240845E+00
          2   -1    0    0  501    0  0.00000000000E+00  0.00000000000E+00  0.92708127296E+03  0.92708127296E+03  0.00000000000E+00 0.  1.
         -2   -1    0    0    0  501 -0.00000000000E+00 -0.00000000000E+00 -0.14233657420E+02  0.14233657420E+02  0.00000000000E+00 0. -1.
         23    2    1    2    0    0  0.92213463777E+01 -0.35560316403E+02  0.34293692684E+03  0.35670147522E+03  0.90998007139E+02 0.  0.
          5    1    1    2  502    0 -0.44176841960E+02  0.48449267975E+02  0.15986702726E+03  0.17285393064E+03  0.47000000000E+01 0.  1.
         -5    1    1    2    0  502  0.34955495582E+02 -0.12888951572E+02  0.41004366144E+03  0.41175952452E+03  0.47000000000E+01 0.  1.
        -11    1    3    3    0    0  0.37872825021E+02 -0.52160597975E+02  0.24396730080E+03  0.25233930078E+03  0.00000000000E+00 0.  1.
         11    1    3    3    0    0 -0.28651478643E+02  0.16600281572E+02  0.98969626038E+02  0.10436217444E+03  0.00000000000E+00 0. -1.
<mgrwt>
<rscale>  0 0.12137528E+03</rscale>
<asrwt>0</asrwt>
<pdfrwt beam="1">  1        2 0.14262784E+00 0.13028699E+03</pdfrwt>
<pdfrwt beam="2">  1       -2 0.21897942E-02 0.13028699E+03</pdfrwt>
<totfact> 0.18745114E+04</totfact>
</mgrwt>
</event>
<event>
 7    1  0.1330601E-005  0.1251616E+03  0.7546771E-02  0.1242507E+00
          2   -1    0    0  501    0  0.00000000000E+00  0.00000000000E+00  0.26706976398E+03  0.26706976398E+03  0.00000000000E+00 0. -1.
         -2   -1    0    0    0  501 -0.00000000000E+00 -0.00000000000E+00 -0.52191920598E+02  0.52191920598E+02  0.00000000000E+00 0.  1.
         23    2    1    2    0    0  0.46563426519E+00  0.40241342421E+02  0.12827384754E+03  0.16705890046E+03  0.99171133937E+02 0.  0.
          5    1    1    2  502    0 -0.39772901710E+02 -0.46605604854E+02  0.93133385762E+02  0.11157904668E+03  0.47000000000E+01 0. -1.
         -5    1    1    2    0  502  0.39307267445E+02  0.63642624323E+01 -0.65293899222E+01  0.40623737433E+02  0.47000000000E+01 0.  1.
        -11    1    3    3    0    0 -0.37947983427E+02  0.15579904094E+02  0.11085198602E+03  0.11819875491E+03  0.00000000000E+00 0. -1.
         11    1    3    3    0    0  0.38413617692E+02  0.24661438327E+02  0.17421861518E+02  0.48860145552E+02  0.00000000000E+00 0.  1.
<mgrwt>
<rscale>  0 0.12035813E+03</rscale>
<asrwt>0</asrwt>
<pdfrwt beam="1">  1        2 0.41087655E-01 0.12516164E+03</pdfrwt>
<pdfrwt beam="2">  1       -2 0.80295264E-02 0.12516164E+03</pdfrwt>
<totfact> 0.10936045E+04</totfact>
</mgrwt>
</event>
<event>
 7    1  0.1330601E-005  0.1295495E+03  0.7546771E-02  0.1242376E+00
         -1   -1    0    0    0  501 -0.00000000000E+00  0.00000000000E+00  0.14610457830E+04  0.14610457830E+04  0.00000000000E+00 0.  1.
          1   -1    0    0  501    0  0.00000000000E+00 -0.00000000000E+00 -0.11131453578E+02  0.11131453578E+02  0.00000000000E+00 0. -1.
         23    2    1    2    0    0 -0.34018042378E+02 -0.11509347042E+01  0.30567192922E+03  0.32062448881E+03  0.90587982960E+02 0.  0.
          5    1    1    2  502    0 -0.28353644027E+02 -0.18950010985E+02  0.81994238153E+03  0.82066474950E+03  0.47000000000E+01 0.  1.
         -5    1    1    2    0  502  0.62371686405E+02  0.20100945689E+02  0.32430001864E+03  0.33088799823E+03  0.47000000000E+01 0.  1.
        -11    1    3    3    0    0  0.17825834126E+02  0.30185549290E+02  0.13663472432E+03  0.14106018445E+03  0.00000000000E+00 0.  1.
         11    1    3    3    0    0 -0.51843876504E+02 -0.31336483994E+02  0.16903720490E+03  0.17956430436E+03  0.00000000000E+00 0. -1.
<mgrwt>
<rscale>  0 0.12043802E+03</rscale>
<asrwt>0</asrwt>
<pdfrwt beam="2">  1        1 0.17125325E-02 0.12954945E+03</pdfrwt>
<pdfrwt beam="1">  1       -1 0.22477612E+00 0.12954945E+03</pdfrwt>
<totfact> 0.85058634E+02</totfact>
</mgrwt>
</event>
<event>
 7    1  0.1330601E-005  0.1417352E+03  0.7546771E-02  0.1221691E+00
          2   -1    0    0  501    0  0.00000000000E+00  0.00000000000E+00  0.39047359370E+03  0.39047359370E+03  0.00000000000E+00 0. -1.
         -2   -1    0    0    0  501 -0.00000000000E+00 -0.00000000000E+00 -0.43519152335E+02  0.43519152335E+02  0.00000000000E+00 0.  1.
         23    2    1    2    0    0  0.65687934365E+02 -0.12240238188E+02  0.20036427508E+03  0.23008700739E+03  0.91265875833E+02 0.  0.
          5    1    1    2  502    0 -0.64341593053E+02  0.62488931829E+02  0.10732502950E+03  0.13994805877E+03  0.47000000000E+01 0. -1.
         -5    1    1    2    0  502 -0.13463413119E+01 -0.50248693640E+02  0.39265136797E+02  0.63957679876E+02  0.47000000000E+01 0. -1.
        -11    1    3    3    0    0  0.57358062799E+02  0.17948575146E+02  0.55268047851E+02  0.81649591739E+02  0.00000000000E+00 0.  1.
         11    1    3    3    0    0  0.83298715662E+01 -0.30188813335E+02  0.14509622722E+03  0.14843741565E+03  0.00000000000E+00 0. -1.
<mgrwt>
<rscale>  0 0.13396302E+03</rscale>
<asrwt>0</asrwt>
<pdfrwt beam="1">  1        2 0.60072858E-01 0.14173522E+03</pdfrwt>
<pdfrwt beam="2">  1       -2 0.66952545E-02 0.14173522E+03</pdfrwt>
<totfact> 0.97507351E+03</totfact>
</mgrwt>
</event>
<event>
 7    1  0.1330601E-005  0.1250678E+03  0.7546771E-02  0.1250934E+00
         -1   -1    0    0    0  501 -0.00000000000E+00  0.00000000000E+00  0.88961613328E+02  0.88961613328E+02  0.00000000000E+00 0.  1.
          1   -1    0    0  501    0  0.00000000000E+00 -0.00000000000E+00 -0.15201445644E+03  0.15201445644E+03  0.00000000000E+00 0. -1.
         23    2    1    2    0    0  0.31637915377E+01  0.27545105309E+01 -0.71842947726E+02  0.11559977155E+03  0.90467127401E+02 0.  0.
          5    1    1    2  502    0 -0.10909183183E+02 -0.38857099786E+02  0.53512595648E+02  0.67190567600E+02  0.47000000000E+01 0.  1.
         -5    1    1    2    0  502  0.77453916452E+01  0.36102589255E+02 -0.44722491029E+02  0.58185730609E+02  0.47000000000E+01 0.  1.
        -11    1    3    3    0    0 -0.39362981166E+02 -0.17896636611E+02 -0.36204689099E+02  0.56396040650E+02  0.00000000000E+00 0.  1.
         11    1    3    3    0    0  0.42526772704E+02  0.20651147142E+02 -0.35638258627E+02  0.59203730904E+02  0.00000000000E+00 0. -1.
<mgrwt>
<rscale>  0 0.11537146E+03</rscale>
<asrwt>0</asrwt>
<pdfrwt beam="2">  1        1 0.23386839E-01 0.12506778E+03</pdfrwt>
<pdfrwt beam="1">  1       -1 0.13686402E-01 0.12506778E+03</pdfrwt>
<totfact> 0.73039342E+03</totfact>
</mgrwt>
</event>
<event>
 7    1  0.1330601E-005  0.1393299E+03  0.7546771E-02  0.1225469E+00
          1   -1    0    0  501    0  0.00000000000E+00  0.00000000000E+00  0.37419888590E+02  0.37419888590E+02  0.00000000000E+00 0. -1.
         -1   -1    0    0    0  501 -0.00000000000E+00 -0.00000000000E+00 -0.41673941549E+03  0.41673941549E+03  0.00000000000E+00 0.  1.
         23    2    1    2    0    0 -0.16342545622E+02  0.59318941678E+02 -0.15498240950E+03  0.19007603930E+03  0.91233424931E+02 0.  0.
          5    1    1    2  502    0  0.44181095893E+02 -0.49618769456E+02 -0.22456091468E+03  0.23422998510E+03  0.47000000000E+01 0. -1.
         -5    1    1    2    0  502 -0.27838550271E+02 -0.97001722219E+01  0.22379727807E+00  0.29853279679E+02  0.47000000000E+01 0. -1.
        -11    1    3    3    0    0  0.25685539595E+02  0.54237502415E+02 -0.54605363763E+02  0.81136917395E+02  0.00000000000E+00 0. -1.
         11    1    3    3    0    0 -0.42028085217E+02  0.50814392626E+01 -0.10037704574E+03  0.10893912191E+03  0.00000000000E+00 0.  1.
<mgrwt>
<rscale>  0 0.13134799E+03</rscale>
<asrwt>0</asrwt>
<pdfrwt beam="1">  1        1 0.57569060E-02 0.13932993E+03</pdfrwt>
<pdfrwt beam="2">  1       -1 0.64113756E-01 0.13932993E+03</pdfrwt>
<totfact> 0.33653141E+03</totfact>
</mgrwt>
</event>
<event>
 7    1  0.1330601E-005  0.1367041E+03  0.7546771E-02  0.1229923E+00
         -1   -1    0    0    0  501 -0.00000000000E+00  0.00000000000E+00  0.97851624756E+02  0.97851624756E+02  0.00000000000E+00 0.  1.
          1   -1    0    0  501    0  0.00000000000E+00 -0.00000000000E+00 -0.15261567826E+03  0.15261567826E+03  0.00000000000E+00 0. -1.
         23    2    1    2    0    0  0.56670659150E+01  0.55050794825E+02 -0.37602581213E+02  0.11269018964E+03  0.90677555553E+02 0.  0.
          5    1    1    2  502    0  0.19389339910E+02  0.35262970056E+02 -0.16990822321E+02  0.43934059709E+02  0.47000000000E+01 0.  1.
         -5    1    1    2    0  502 -0.25056405825E+02 -0.90313764881E+02 -0.17064997038E+00  0.93843053665E+02  0.47000000000E+01 0.  1.
        -11    1    3    3    0    0  0.28323881860E+02 -0.28952216778E+01  0.14120475403E+02  0.31780692531E+02  0.00000000000E+00 0.  1.
         11    1    3    3    0    0 -0.22656815945E+02  0.57946016503E+02 -0.51723056616E+02  0.80909497113E+02  0.00000000000E+00 0. -1.
<mgrwt>
<rscale>  0 0.12835107E+03</rscale>
<asrwt>0</asrwt>
<pdfrwt beam="2">  1        1 0.23479335E-01 0.13670412E+03</pdfrwt>
<pdfrwt beam="1">  1       -1 0.15054096E-01 0.13670412E+03</pdfrwt>
<totfact> 0.63035981E+03</totfact>
</mgrwt>
</event>
<event>
 6    1  0.1330601E-005  0.1369241E+03  0.7546771E-02  0.1252784E+00
          2   -1    0    0  501    0  0.00000000000E+00  0.00000000000E+00  0.29832152626E+03  0.29832152626E+03  0.00000000000E+00 0. -1.
         -2   -1    0    0    0  501 -0.00000000000E+00 -0.00000000000E+00 -0.35958500845E+02  0.35958500845E+02  0.00000000000E+00 0.  1.
          5    1    1    2  502    0  0.35693713474E+02 -0.20839499592E+02  0.15001138723E+02  0.44220471365E+02  0.47000000000E+01 0. -1.
         -5    1    1    2    0  502 -0.84326395724E+02 -0.66742407510E+01  0.13038936399E+03  0.15549586087E+03  0.47000000000E+01 0. -1.
        -11    1    1    2    0    0  0.18583178154E+02  0.10163697788E+02  0.12762870660E+02  0.24729054380E+02  0.00000000000E+00 0.  1.
         11    1    1    2    0    0  0.30049504096E+02  0.17350042554E+02  0.10420965204E+03  0.10983464049E+03  0.00000000000E+00 0. -1.
<mgrwt>
<rscale>  0 0.11431333E+03</rscale>
<asrwt>0</asrwt>
<pdfrwt beam="1">  1        2 0.45895618E-01 0.13692412E+03</pdfrwt>
<pdfrwt beam="2">  1       -2 0.55320773E-02 0.13692412E+03</pdfrwt>
<totfact> 0.17297481E+04</totfact>
</mgrwt>
</event>
<event>
 7    1  0.1330601E-005  0.1471686E+03  0.7546771E-02  0.1213986E+00
         -1   -1    0    0    0  501 -0.00000000000E+00  0.00000000000E+00  0.44575956409E+02  0.44575956409E+02  0.00000000000E+00 0.  1.
          1   -1    0    0  501    0  0.00000000000E+00 -0.00000000000E+00 -0.40121852840E+03  0.40121852840E+03  0.00000000000E+00 0. -1.
         23    2    1    2    0    0  0.42298639543E+02  0.65160668210E+02 -0.13654184455E+03  0.18102492152E+03  0.89951427495E+02 0.  0.
          5    1    1    2  502    0 -0.30827946401E+02 -0.84684374983E+02 -0.22383617694E+03  0.24134317838E+03  0.47000000000E+01 0. -1.
         -5    1    1    2    0  502 -0.11470693142E+02  0.19523706773E+02  0.37354494896E+01  0.23426384916E+02  0.47000000000E+01 0. -1.
        -11    1    3    3    0    0  0.22814437967E+02 -0.20702150176E+02 -0.35782880240E+02  0.47217498027E+02  0.00000000000E+00 0. -1.
         11    1    3    3    0    0  0.19484201576E+02  0.85862818386E+02 -0.10075896431E+03  0.13380742349E+03  0.00000000000E+00 0.  1.
<mgrwt>
<rscale>  0 0.13951312E+03</rscale>
<asrwt>0</asrwt>
<pdfrwt beam="2">  1        1 0.61725931E-01 0.14716858E+03</pdfrwt>
<pdfrwt beam="1">  1       -1 0.68578390E-02 0.14716858E+03</pdfrwt>
<totfact> 0.63292289E+03</totfact>
</mgrwt>
</event>
<event>
 7    1  0.1330601E-005  0.1300327E+03  0.7546771E-02  0.1241950E+00
         -2   -1    0    0    0  501 -0.00000000000E+00  0.00000000000E+00  0.54091157758E+02  0.54091157758E+02  0.00000000000E+00 0.  1.
          2   -1    0    0  501    0  0.00000000000E+00 -0.00000000000E+00 -0.25175069296E+03  0.25175069296E+03  0.00000000000E+00 0. -1.
         23    2    1    2    0    0 -0.29790085657E+02 -0.19907227711E+02 -0.12139685607E+03  0.15509540115E+03  0.89630574449E+02 0.  0.
          5    1    1    2  502    0 -0.26095838967E+02 -0.20649016500E+02 -0.74255312373E+02  0.81506540286E+02  0.47000000000E+01 0. -1.
         -5    1    1    2    0  502  0.55885924625E+02  0.40556244211E+02 -0.20073667576E+01  0.69239909279E+02  0.47000000000E+01 0. -1.
        -11    1    3    3    0    0 -0.52712639221E+02  0.14557649729E+02 -0.61619229134E+02  0.82386145063E+02  0.00000000000E+00 0.  1.
         11    1    3    3    0    0  0.22922553563E+02 -0.34464877440E+02 -0.59777626933E+02  0.72709256086E+02  0.00000000000E+00 0. -1.
<mgrwt>
<rscale>  0 0.12069829E+03</rscale>
<asrwt>0</asrwt>
<pdfrwt beam="2">  1        2 0.38730876E-01 0.13003267E+03</pdfrwt>
<pdfrwt beam="1">  1       -2 0.83217165E-02 0.13003267E+03</pdfrwt>
<totfact> 0.11052155E+04</totfact>
</mgrwt>
</event>
<event>
 7    1  0.1330601E-005  0.1502510E+03  0.7546771E-02  0.1209696E+00
         -2   -1    0    0    0  501 -0.00000000000E+00  0.00000000000E+00  0.15705216598E+02  0.15705216598E+02  0.00000000000E+00 0.  1.
          2   -1    0    0  501    0  0.00000000000E+00 -0.00000000000E+00 -0.11884687691E+04  0.11884687691E+04  0.00000000000E+00 0. -1.
         23    2    1    2    0    0 -0.74600699709E+02 -0.37210836752E+02 -0.56712701392E+03  0.58017801203E+03  0.89574354336E+02 0.  0.
          5    1    1    2  502    0  0.58662390539E+02 -0.23903987489E+02 -0.47033716718E+03  0.47460701377E+03  0.47000000000E+01 0.  1.
         -5    1    1    2    0  502  0.15938309170E+02  0.61114824242E+02 -0.13529937144E+03  0.14938895995E+03  0.47000000000E+01 0.  1.
        -11    1    3    3    0    0 -0.26784166405E+01  0.19611073254E+02 -0.34953601052E+02  0.40168673570E+02  0.00000000000E+00 0.  1.
         11    1    3    3    0    0 -0.71922283068E+02 -0.56821910007E+02 -0.53217341287E+03  0.54000933846E+03  0.00000000000E+00 0. -1.
<mgrwt>
<rscale>  0 0.14273429E+03</rscale>
<asrwt>0</asrwt>
<pdfrwt beam="2">  1        2 0.18284137E+00 0.15025098E+03</pdfrwt>
<pdfrwt beam="1">  1       -2 0.24161870E-02 0.15025098E+03</pdfrwt>
<totfact> 0.11523602E+04</totfact>
</mgrwt>
</event>
<event>
 7    1  0.1330601E-005  0.1441436E+03  0.7546771E-02  0.1225988E+00
         -1   -1    0    0    0  501 -0.00000000000E+00  0.00000000000E+00  0.47234429314E+02  0.47234429314E+02  0.00000000000E+00 0.  1.
          1   -1    0    0  501    0  0.00000000000E+00 -0.00000000000E+00 -0.31215843885E+03  0.31215843885E+03  0.00000000000E+00 0. -1.
         23    2    1    2    0    0  0.19502744301E+02 -0.33466442042E+02 -0.11756657113E+03  0.15325799904E+03  0.90364571842E+02 0.  0.
          5    1    1    2  502    0 -0.70138190719E+02 -0.50039584552E+01 -0.11437803226E+03  0.13434593280E+03  0.47000000000E+01 0. -1.
         -5    1    1    2    0  502  0.50635446418E+02  0.38470400498E+02 -0.32979406153E+02  0.71788936324E+02  0.47000000000E+01 0.  1.
        -11    1    3    3    0    0  0.56515719206E+00 -0.43382046911E+02 -0.12364357482E+03  0.13103455648E+03  0.00000000000E+00 0. -1.
         11    1    3    3    0    0  0.18937587109E+02  0.99156048685E+01  0.60770036922E+01  0.22223442561E+02  0.00000000000E+00 0.  1.
<mgrwt>
<rscale>  0 0.13099447E+03</rscale>
<asrwt>0</asrwt>
<pdfrwt beam="2">  1        1 0.48024376E-01 0.14414357E+03</pdfrwt>
<pdfrwt beam="1">  1       -1 0.72668351E-02 0.14414357E+03</pdfrwt>
<totfact> 0.79327892E+03</totfact>
</mgrwt>
</event>
<event>
 7    1  0.1330601E-005  0.1572005E+03  0.7546771E-02  0.1200489E+00
         -1   -1    0    0    0  501 -0.00000000000E+00  0.00000000000E+00  0.42548176317E+02  0.42548176317E+02  0.00000000000E+00 0.  1.
          1   -1    0    0  501    0  0.00000000000E+00 -0.00000000000E+00 -0.59585499321E+03  0.59585499321E+03  0.00000000000E+00 0. -1.
         23    2    1    2    0    0  0.49130248702E+02  0.81700562601E+02 -0.39236905013E+03  0.41342992759E+03  0.88781024249E+02 0.  0.
          5    1    1    2  502    0 -0.30143813636E+02 -0.11465728238E+03 -0.11629691542E+03  0.16613850980E+03  0.47000000000E+01 0.  1.
         -5    1    1    2    0  502 -0.18986435066E+02  0.32956719783E+02 -0.44640851345E+02  0.58834732125E+02  0.47000000000E+01 0.  1.
        -11    1    3    3    0    0  0.70585668331E+02  0.39405826541E+02 -0.28066133276E+03  0.29207180529E+03  0.00000000000E+00 0.  1.
         11    1    3    3    0    0 -0.21455419629E+02  0.42294736060E+02 -0.11170771736E+03  0.12135812230E+03  0.00000000000E+00 0. -1.
<mgrwt>
<rscale>  0 0.14998690E+03</rscale>
<asrwt>0</asrwt>
<pdfrwt beam="2">  1        1 0.91670010E-01 0.15720049E+03</pdfrwt>
<pdfrwt beam="1">  1       -1 0.65458725E-02 0.15720049E+03</pdfrwt>
<totfact> 0.40603050E+03</totfact>
</mgrwt>
</event>
<event>
 7    1  0.1330601E-005  0.1253735E+03  0.7546771E-02  0.1247754E+00
          2   -1    0    0  501    0  0.00000000000E+00  0.00000000000E+00  0.19897137113E+03  0.19897137113E+03  0.00000000000E+00 0. -1.
         -2   -1    0    0    0  501 -0.00000000000E+00 -0.00000000000E+00 -0.65880220584E+02  0.65880220584E+02  0.00000000000E+00 0.  1.
         23    2    1    2    0    0  0.46951289133E+01 -0.89841516837E+01  0.92233575274E+02  0.13298860197E+03  0.95268969922E+02 0.  0.
          5    1    1    2  502    0 -0.60230712384E+02  0.21208702721E+02  0.44601414562E+01  0.64183569917E+02  0.47000000000E+01 0.  1.
         -5    1    1    2    0  502  0.55535583471E+02 -0.12224551038E+02  0.36397433818E+02  0.67679419827E+02  0.47000000000E+01 0.  1.
        -11    1    3    3    0    0  0.46727251891E+02 -0.19235797519E+02  0.36028814211E+02  0.62060675382E+02  0.00000000000E+00 0.  1.
         11    1    3    3    0    0 -0.42032122978E+02  0.10251645835E+02  0.56204761063E+02  0.70927926591E+02  0.00000000000E+00 0. -1.
<mgrwt>
<rscale>  0 0.11722042E+03</rscale>
<asrwt>0</asrwt>
<pdfrwt beam="1">  1        2 0.30610980E-01 0.12537347E+03</pdfrwt>
<pdfrwt beam="2">  1       -2 0.10135419E-01 0.12537347E+03</pdfrwt>
<totfact> 0.10425962E+04</totfact>
</mgrwt>
</event>
<event>
 7    1  0.1330601E-005  0.1597273E+03  0.7546771E-02  0.1196700E+00
          2   -1    0    0  501    0  0.00000000000E+00  0.00000000000E+00  0.21101702471E+03  0.21101702471E+03  0.00000000000E+00 0. -1.
         -2   -1    0    0    0  501 -0.00000000000E+00 -0.00000000000E+00 -0.11017114813E+03  0.11017114813E+03  0.00000000000E+00 0.  1.
         23    2    1    2    0    0  0.57440583353E+02 -0.81166062294E+02  0.87802283824E+02  0.16092914344E+03  0.91113104876E+02 0.  0.
          5    1    1    2  502    0  0.38525266018E+02  0.28923010686E+02  0.15626706696E+02  0.50862762716E+02  0.47000000000E+01 0.  1.
         -5    1    1    2    0  502 -0.95965849372E+02  0.52243051608E+02 -0.25831139352E+01  0.10939626668E+03  0.47000000000E+01 0.  1.
        -11    1    3    3    0    0 -0.23209349675E+02 -0.10366612459E+02  0.63461571029E+01  0.26199509083E+02  0.00000000000E+00 0. -1.
         11    1    3    3    0    0  0.80649933028E+02 -0.70799449835E+02  0.81456126721E+02  0.13472963436E+03  0.00000000000E+00 0.  1.
<mgrwt>
<rscale>  0 0.15311241E+03</rscale>
<asrwt>0</asrwt>
<pdfrwt beam="1">  1        2 0.32464158E-01 0.15972733E+03</pdfrwt>
<pdfrwt beam="2">  1       -2 0.16949407E-01 0.15972733E+03</pdfrwt>
<totfact> 0.43378576E+03</totfact>
</mgrwt>
</event>
<event>
 7    1  0.1330601E-005  0.2049618E+03  0.7546771E-02  0.1149531E+00
         -1   -1    0    0    0  501 -0.00000000000E+00  0.00000000000E+00  0.28330563334E+02  0.28330563334E+02  0.00000000000E+00 0.  1.
          1   -1    0    0  501    0  0.00000000000E+00 -0.00000000000E+00 -0.13714018276E+04  0.13714018276E+04  0.00000000000E+00 0. -1.
         23    2    1    2    0    0 -0.55008027160E+02 -0.15281998503E+03 -0.71959902124E+03  0.74343444202E+03  0.92153064686E+02 0.  0.
          5    1    1    2  502    0  0.21996552332E+02  0.10978725180E+02 -0.12097127170E+02  0.27799482133E+02  0.47000000000E+01 0.  1.
         -5    1    1    2    0  502  0.33011474828E+02  0.14184125985E+03 -0.61137511586E+03  0.62849846679E+03  0.47000000000E+01 0.  1.
        -11    1    3    3    0    0 -0.73343242113E+02 -0.91014306751E+02 -0.54294218114E+03  0.55538189317E+03  0.00000000000E+00 0.  1.
         11    1    3    3    0    0  0.18335214953E+02 -0.61805678276E+02 -0.17665684010E+03  0.18805254885E+03  0.00000000000E+00 0. -1.
<mgrwt>
<rscale>  0 0.20024626E+03</rscale>
<asrwt>0</asrwt>
<pdfrwt beam="2">  1        1 0.21098492E+00 0.20496185E+03</pdfrwt>
<pdfrwt beam="1">  1       -1 0.43585477E-02 0.20496185E+03</pdfrwt>
<totfact> 0.18875254E+03</totfact>
</mgrwt>
</event>
<event>
 7    1  0.1330601E-005  0.1722241E+03  0.7546771E-02  0.1181581E+00
         -1   -1    0    0    0  501 -0.00000000000E+00  0.00000000000E+00  0.11499335031E+03  0.11499335031E+03  0.00000000000E+00 0.  1.
          1   -1    0    0  501    0  0.00000000000E+00 -0.00000000000E+00 -0.23907809302E+03  0.23907809302E+03  0.00000000000E+00 0. -1.
         23    2    1    2    0    0 -0.10718500573E+03  0.50454406026E+02 -0.99068305489E+02  0.18003993801E+03  0.92550405640E+02 0.  0.
          5    1    1    2  502    0  0.56934640902E+02 -0.43354913728E+02 -0.74206917806E+02  0.10319863628E+03  0.47000000000E+01 0. -1.
         -5    1    1    2    0  502  0.50250364828E+02 -0.70994922982E+01  0.49190480587E+02  0.70832869041E+02  0.47000000000E+01 0. -1.
        -11    1    3    3    0    0 -0.28089125396E+02 -0.10559324978E+02  0.10478938285E+02  0.31785318263E+02  0.00000000000E+00 0.  1.
         11    1    3    3    0    0 -0.79095880334E+02  0.61013731004E+02 -0.10954724377E+03  0.14825461974E+03  0.00000000000E+00 0. -1.
<mgrwt>
<rscale>  0 0.16646911E+03</rscale>
<asrwt>0</asrwt>
<pdfrwt beam="2">  1        1 0.36781245E-01 0.17222411E+03</pdfrwt>
<pdfrwt beam="1">  1       -1 0.17691285E-01 0.17222411E+03</pdfrwt>
<totfact> 0.28196661E+03</totfact>
</mgrwt>
</event>
<event>
 7    1  0.1330601E-005  0.1413782E+03  0.7546771E-02  0.1222765E+00
          2   -1    0    0  501    0  0.00000000000E+00  0.00000000000E+00  0.11636720346E+03  0.11636720346E+03  0.00000000000E+00 0. -1.
         -2   -1    0    0    0  501 -0.00000000000E+00 -0.00000000000E+00 -0.14075773447E+03  0.14075773447E+03  0.00000000000E+00 0.  1.
         23    2    1    2    0    0  0.52236176592E+02  0.40432407688E+02  0.91817663841E+01  0.11181527655E+03  0.89749392750E+02 0.  0.
          5    1    1    2  502    0  0.25388641538E+02  0.12989634777E+02  0.21537424453E+02  0.36045310137E+02  0.47000000000E+01 0.  1.
         -5    1    1    2    0  502 -0.77624818129E+02 -0.53422042465E+02 -0.55109721844E+02  0.10926435124E+03  0.47000000000E+01 0.  1.
        -11    1    3    3    0    0  0.41119591051E+02  0.21860592149E+02  0.48308913040E+02  0.67100352730E+02  0.00000000000E+00 0. -1.
         11    1    3    3    0    0  0.11116585540E+02  0.18571815539E+02 -0.39127146656E+02  0.44714923817E+02  0.00000000000E+00 0.  1.
<mgrwt>
<rscale>  0 0.13321246E+03</rscale>
<asrwt>0</asrwt>
<pdfrwt beam="1">  1        2 0.17902647E-01 0.14137821E+03</pdfrwt>
<pdfrwt beam="2">  1       -2 0.21655036E-01 0.14137821E+03</pdfrwt>
<totfact> 0.55200604E+03</totfact>
</mgrwt>
</event>
<event>
 7    1  0.1330601E-005  0.1447418E+03  0.7546771E-02  0.1216128E+00
         -2   -1    0    0    0  501 -0.00000000000E+00  0.00000000000E+00  0.38344002761E+02  0.38344002761E+02  0.00000000000E+00 0.  1.
          2   -1    0    0  501    0  0.00000000000E+00 -0.00000000000E+00 -0.46024284830E+03  0.46024284830E+03  0.00000000000E+00 0. -1.
         23    2    1    2    0    0 -0.57052729348E+02 -0.45570573149E+02 -0.21772600559E+03  0.24831349930E+03  0.94463164045E+02 0.  0.
          5    1    1    2  502    0  0.14740510433E+02 -0.18929187575E+02 -0.15876848572E+03  0.16063971753E+03  0.47000000000E+01 0. -1.
         -5    1    1    2    0  502  0.42312218915E+02  0.64499760724E+02 -0.45404354235E+02  0.89633634237E+02  0.47000000000E+01 0.  1.
        -11    1    3    3    0    0  0.71989679002E+01  0.22783607414E+02 -0.62882584351E+02  0.67269140922E+02  0.00000000000E+00 0.  1.
         11    1    3    3    0    0 -0.64251697248E+02 -0.68354180563E+02 -0.15484342124E+03  0.18104435838E+03  0.00000000000E+00 0. -1.
<mgrwt>
<rscale>  0 0.13794038E+03</rscale>
<asrwt>0</asrwt>
<pdfrwt beam="2">  1        2 0.70806589E-01 0.14474185E+03</pdfrwt>
<pdfrwt beam="1">  1       -2 0.58990776E-02 0.14474185E+03</pdfrwt>
<totfact> 0.99193236E+03</totfact>
</mgrwt>
</event>
<event>
 7    1  0.1330601E-005  0.1307042E+03  0.7546771E-02  0.1237135E+00
          1   -1    0    0  501    0  0.00000000000E+00  0.00000000000E+00  0.12204186541E+03  0.12204186541E+03  0.00000000000E+00 0. -1.
         -1   -1    0    0    0  501 -0.00000000000E+00 -0.00000000000E+00 -0.11518141635E+03  0.11518141635E+03  0.00000000000E+00 0.  1.
         23    2    1    2    0    0 -0.37043672934E+02  0.93391321585E+01 -0.10628295962E+02  0.10535422928E+03  0.97606863782E+02 0.  0.
          5    1    1    2  502    0  0.28021439242E+02 -0.50338739331E+02  0.51668567946E+02  0.77530127358E+02  0.47000000000E+01 0.  1.
         -5    1    1    2    0  502  0.90222336925E+01  0.40999607173E+02 -0.34179822921E+02  0.54338925128E+02  0.47000000000E+01 0.  1.
        -11    1    3    3    0    0 -0.25775464891E+02 -0.17111648036E+02  0.37914733246E+02  0.48935775114E+02  0.00000000000E+00 0. -1.
         11    1    3    3    0    0 -0.11268208044E+02  0.26450780195E+02 -0.48543029208E+02  0.56418454163E+02  0.00000000000E+00 0.  1.
<mgrwt>
<rscale>  0 0.12368723E+03</rscale>
<asrwt>0</asrwt>
<pdfrwt beam="1">  1        1 0.18775672E-01 0.13070421E+03</pdfrwt>
<pdfrwt beam="2">  1       -1 0.17720218E-01 0.13070421E+03</pdfrwt>
<totfact> 0.64504629E+03</totfact>
</mgrwt>
</event>
<event>
 6    1  0.1330601E-005  0.1250635E+03  0.7546771E-02  0.1301049E+00
         -1   -1    0    0    0  501 -0.00000000000E+00  0.00000000000E+00  0.29514881908E+03  0.29514881908E+03  0.00000000000E+00 0.  1.
          1   -1    0    0  501    0  0.00000000000E+00 -0.00000000000E+00 -0.22763358551E+02  0.22763358551E+02  0.00000000000E+00 0. -1.
          5    1    1    2  502    0 -0.39760659328E+02  0.14177390572E+02  0.19263477897E+02  0.46637753101E+02  0.47000000000E+01 0.  1.
         -5    1    1    2    0  502  0.36032600662E+02 -0.12789708253E+02  0.21992451296E+03  0.22327294137E+03  0.47000000000E+01 0.  1.
        -11    1    1    2    0    0 -0.25216026651E+01  0.13166650744E+02  0.28475232044E+02  0.31473131585E+02  0.00000000000E+00 0.  1.
         11    1    1    2    0    0  0.62496613311E+01 -0.14554333062E+02  0.47222376316E+01  0.16528351578E+02  0.00000000000E+00 0. -1.
<mgrwt>
<rscale>  0 0.90748460E+02</rscale>
<asrwt>0</asrwt>
<pdfrwt beam="2">  1        1 0.35020554E-02 0.12506354E+03</pdfrwt>
<pdfrwt beam="1">  1       -1 0.45407508E-01 0.12506354E+03</pdfrwt>
<totfact> 0.12505846E+04</totfact>
</mgrwt>
</event>
<event>
 7    1  0.1330601E-005  0.1345219E+03  0.7546771E-02  0.1229799E+00
          2   -1    0    0  501    0  0.00000000000E+00  0.00000000000E+00  0.15752053593E+03  0.15752053593E+03  0.00000000000E+00 0. -1.
         -2   -1    0    0    0  501 -0.00000000000E+00 -0.00000000000E+00 -0.96728573305E+02  0.96728573305E+02  0.00000000000E+00 0.  1.
         23    2    1    2    0    0 -0.21844862082E+01 -0.49659390327E+02  0.36277985213E+02  0.11751183526E+03  0.10011049989E+03 0.  0.
          5    1    1    2  502    0  0.56256236413E+01 -0.12035151957E+02 -0.42908039788E+02  0.45162843162E+02  0.47000000000E+01 0. -1.
         -5    1    1    2    0  502 -0.34411374331E+01  0.61694542285E+02  0.67422017202E+02  0.91574430809E+02  0.47000000000E+01 0. -1.
        -11    1    3    3    0    0  0.29642942877E+02 -0.67779704636E+02  0.16148332706E+02  0.75720281776E+02  0.00000000000E+00 0.  1.
         11    1    3    3    0    0 -0.31827429086E+02  0.18120314309E+02  0.20129652507E+02  0.41791553488E+02  0.00000000000E+00 0. -1.
<mgrwt>
<rscale>  0 0.12843337E+03</rscale>
<asrwt>0</asrwt>
<pdfrwt beam="1">  1        2 0.24233929E-01 0.13452192E+03</pdfrwt>
<pdfrwt beam="2">  1       -2 0.14881319E-01 0.13452192E+03</pdfrwt>
<totfact> 0.73193742E+03</totfact>
</mgrwt>
</event>
<event>
 7    1  0.1330601E-005  0.4638370E+03  0.7546771E-02  0.1023674E+00
          2   -1    0    0  501    0  0.00000000000E+00  0.00000000000E+00  0.23719826886E+03  0.23719826886E+03  0.00000000000E+00 0. -1.
         -2   -1    0    0    0  501 -0.00000000000E+00 -0.00000000000E+00 -0.22675626408E+03  0.22675626408E+03  0.00000000000E+00 0.  1.
         23    2    1    2    0    0 -0.95708444195E+02 -0.72005853449E+02  0.10719637129E+03  0.18510893495E+03  0.91811255089E+02 0.  0.
          5    1    1    2  502    0  0.94768168488E+02  0.12872920764E+03 -0.13581344263E+03  0.20980847423E+03  0.47000000000E+01 0.  1.
         -5    1    1    2    0  502  0.94027570680E+00 -0.56723354193E+02  0.39059076118E+02  0.69037123756E+02  0.47000000000E+01 0. -1.
        -11    1    3    3    0    0 -0.52065571423E+02  0.13689818507E+02  0.48380203111E+02  0.72380100244E+02  0.00000000000E+00 0.  1.
         11    1    3    3    0    0 -0.43642872772E+02 -0.85695671956E+02  0.58816168180E+02  0.11272883471E+03  0.00000000000E+00 0. -1.
<mgrwt>
<rscale>  0 0.46383701E+03</rscale>
<asrwt>0</asrwt>
<pdfrwt beam="1">  1        2 0.36492041E-01 0.46383701E+03</pdfrwt>
<pdfrwt beam="2">  1       -2 0.34885579E-01 0.46383701E+03</pdfrwt>
<totfact> 0.10997126E+03</totfact>
</mgrwt>
</event>
<event>
 7    1  0.1330601E-005  0.1347353E+03  0.7546771E-02  0.1238566E+00
         -1   -1    0    0    0  501 -0.00000000000E+00  0.00000000000E+00  0.86189734118E+02  0.86189734118E+02  0.00000000000E+00 0.  1.
          1   -1    0    0  501    0  0.00000000000E+00 -0.00000000000E+00 -0.16570815951E+03  0.16570815951E+03  0.00000000000E+00 0. -1.
         23    2    1    2    0    0 -0.88181032181E+01 -0.49529633961E+02 -0.70887462073E+02  0.11688644287E+03  0.78143871557E+02 0.  0.
          5    1    1    2  502    0  0.59529700128E+02  0.18826467041E+02 -0.32961688893E+02  0.70758631935E+02  0.47000000000E+01 0.  1.
         -5    1    1    2    0  502 -0.50711596910E+02  0.30703166920E+02  0.24330725576E+02  0.64252818826E+02  0.47000000000E+01 0.  1.
        -11    1    3    3    0    0 -0.30803489265E+02 -0.14381718210E+00 -0.42755508007E+01  0.31099131322E+02  0.00000000000E+00 0.  1.
         11    1    3    3    0    0  0.21985386047E+02 -0.49385816779E+02 -0.66611911272E+02  0.85787311544E+02  0.00000000000E+00 0. -1.
<mgrwt>
<rscale>  0 0.12278886E+03</rscale>
<asrwt>0</asrwt>
<pdfrwt beam="2">  1        1 0.25493563E-01 0.13473529E+03</pdfrwt>
<pdfrwt beam="1">  1       -1 0.13259959E-01 0.13473529E+03</pdfrwt>
<totfact> 0.69221050E+03</totfact>
</mgrwt>
</event>
<event>
 7    1  0.1330601E-005  0.1338578E+03  0.7546771E-02  0.1233559E+00
         -2   -1    0    0    0  501 -0.00000000000E+00  0.00000000000E+00  0.26030331955E+02  0.26030331955E+02  0.00000000000E+00 0.  1.
          2   -1    0    0  501    0  0.00000000000E+00 -0.00000000000E+00 -0.55078001353E+03  0.55078001353E+03  0.00000000000E+00 0. -1.
         23    2    1    2    0    0  0.13353988373E+02 -0.45999199654E+02 -0.21015487209E+03  0.23492175699E+03  0.93428615916E+02 0.  0.
          5    1    1    2  502    0  0.36710256044E+02 -0.96122944774E+01 -0.20849251452E+03  0.21196994531E+03  0.47000000000E+01 0. -1.
         -5    1    1    2    0  502 -0.50064244417E+02  0.55611494131E+02 -0.10610229496E+03  0.12991864317E+03  0.47000000000E+01 0. -1.
        -11    1    3    3    0    0  0.16485541509E+02 -0.35932892343E+02 -0.21814208313E+03  0.22169554408E+03  0.00000000000E+00 0. -1.
         11    1    3    3    0    0 -0.31315531354E+01 -0.10066307311E+02  0.79872110412E+01  0.13226212917E+02  0.00000000000E+00 0.  1.
<mgrwt>
<rscale>  0 0.12597114E+03</rscale>
<asrwt>0</asrwt>
<pdfrwt beam="2">  1        2 0.84735388E-01 0.13385781E+03</pdfrwt>
<pdfrwt beam="1">  1       -2 0.40046664E-02 0.13385781E+03</pdfrwt>
<totfact> 0.14475095E+04</totfact>
</mgrwt>
</event>
<event>
 7    1  0.1330601E-005  0.1341319E+03  0.7546771E-02  0.1233672E+00
         -2   -1    0    0    0  501 -0.00000000000E+00  0.00000000000E+00  0.40229161641E+02  0.40229161641E+02  0.00000000000E+00 0.  1.
          2   -1    0    0  501    0  0.00000000000E+00 -0.00000000000E+00 -0.57390839224E+03  0.57390839224E+03  0.00000000000E+00 0. -1.
         23    2    1    2    0    0 -0.46346977476E+02 -0.14808230696E+02 -0.43587194648E+03  0.44813266989E+03  0.92039176841E+02 0.  0.
          5    1    1    2  502    0  0.40765053081E+02 -0.51465945792E+02 -0.61514852725E+02  0.90092731309E+02  0.47000000000E+01 0. -1.
         -5    1    1    2    0  502  0.55819243952E+01  0.66274176488E+02 -0.36292431395E+02  0.75912152687E+02  0.47000000000E+01 0. -1.
        -11    1    3    3    0    0 -0.24378429330E+02 -0.53923347678E+02 -0.25591531566E+03  0.26266839176E+03  0.00000000000E+00 0.  1.
         11    1    3    3    0    0 -0.21968548146E+02  0.39115116982E+02 -0.17995663083E+03  0.18546427813E+03  0.00000000000E+00 0. -1.
<mgrwt>
<rscale>  0 0.12589842E+03</rscale>
<asrwt>0</asrwt>
<pdfrwt beam="2">  1        2 0.88293599E-01 0.13413186E+03</pdfrwt>
<pdfrwt beam="1">  1       -2 0.61891018E-02 0.13413186E+03</pdfrwt>
<totfact> 0.71921739E+03</totfact>
</mgrwt>
</event>
<event>
 7    1  0.1330601E-005  0.1744712E+03  0.7546771E-02  0.1178997E+00
          1   -1    0    0  501    0  0.00000000000E+00  0.00000000000E+00  0.20660449554E+03  0.20660449554E+03  0.00000000000E+00 0. -1.
         -1   -1    0    0    0  501 -0.00000000000E+00 -0.00000000000E+00 -0.13822150560E+03  0.13822150560E+03  0.00000000000E+00 0.  1.
         23    2    1    2    0    0 -0.95139198209E+02  0.75938782529E+02  0.74195805683E+02  0.17025803969E+03  0.93083923268E+02 0.  0.
          5    1    1    2  502    0  0.10205255397E+03 -0.15823442027E+02  0.25205520753E+02  0.10640729940E+03  0.47000000000E+01 0.  1.
         -5    1    1    2    0  502 -0.69133557651E+01 -0.60115340503E+02 -0.31018336491E+02  0.68160662044E+02  0.47000000000E+01 0.  1.
        -11    1    3    3    0    0  0.11095326763E+02  0.47033972457E+01  0.34172549721E+02  0.36235222865E+02  0.00000000000E+00 0. -1.
         11    1    3    3    0    0 -0.10623452497E+03  0.71235385284E+02  0.40023255961E+02  0.13402281683E+03  0.00000000000E+00 0.  1.
<mgrwt>
<rscale>  0 0.16890263E+03</rscale>
<asrwt>0</asrwt>
<pdfrwt beam="1">  1        1 0.31785307E-01 0.17447116E+03</pdfrwt>
<pdfrwt beam="2">  1       -1 0.21264847E-01 0.17447116E+03</pdfrwt>
<totfact> 0.25166995E+03</totfact>
</mgrwt>
</event>
<event>
 7    1  0.1330601E-005  0.1376669E+03  0.7546771E-02  0.1231718E+00
         -1   -1    0    0    0  501 -0.00000000000E+00  0.00000000000E+00  0.38124146547E+02  0.38124146547E+02  0.00000000000E+00 0.  1.
          1   -1    0    0  501    0  0.00000000000E+00 -0.00000000000E+00 -0.38161317570E+03  0.38161317570E+03  0.00000000000E+00 0. -1.
         23    2    1    2    0    0 -0.32447387689E+02  0.47689106959E+02 -0.17979603789E+03  0.20585048110E+03  0.81980006325E+02 0.  0.
          5    1    1    2  502    0  0.54290039353E+02  0.11257502761E+02 -0.23942082214E+02  0.60576010451E+02  0.47000000000E+01 0.  1.
         -5    1    1    2    0  502 -0.21842651664E+02 -0.58946609721E+02 -0.13975090904E+03  0.15331083069E+03  0.47000000000E+01 0.  1.
        -11    1    3    3    0    0 -0.55934568084E+02  0.48871482343E+02 -0.15379306870E+03  0.17079053156E+03  0.00000000000E+00 0. -1.
         11    1    3    3    0    0  0.23487180395E+02 -0.11823753835E+01 -0.26002969195E+02  0.35059949535E+02  0.00000000000E+00 0.  1.
<mgrwt>
<rscale>  0 0.12716897E+03</rscale>
<asrwt>0</asrwt>
<pdfrwt beam="2">  1        1 0.58709718E-01 0.13766694E+03</pdfrwt>
<pdfrwt beam="1">  1       -1 0.58652535E-02 0.13766694E+03</pdfrwt>
<totfact> 0.84806321E+03</totfact>
</mgrwt>
</event>
<event>
 7    1  0.1330601E-005  0.1541561E+03  0.7546771E-02  0.1203668E+00
          1   -1    0    0  501    0  0.00000000000E+00  0.00000000000E+00  0.14553404584E+03  0.14553404584E+03  0.00000000000E+00 0. -1.
         -1   -1    0    0    0  501 -0.00000000000E+00 -0.00000000000E+00 -0.13814952695E+03  0.13814952695E+03  0.00000000000E+00 0.  1.
         23    2    1    2    0    0 -0.85822353490E+02  0.27838731559E+02  0.11521038360E+02  0.12947200409E+03  0.92140079149E+02 0.  0.
          5    1    1    2  502    0 -0.32171418756E+02 -0.11933036709E+02  0.35203638662E+01  0.34812074222E+02  0.47000000000E+01 0.  1.
         -5    1    1    2    0  502  0.11799377225E+03 -0.15905694850E+02 -0.76568833382E+01  0.11939949447E+03  0.47000000000E+01 0.  1.
        -11    1    3    3    0    0 -0.47139147107E+02  0.23296639839E+02  0.51539507287E+02  0.73628482458E+02  0.00000000000E+00 0. -1.
         11    1    3    3    0    0 -0.38683206384E+02  0.45420917201E+01 -0.40018468927E+02  0.55843521635E+02  0.00000000000E+00 0.  1.
<mgrwt>
<rscale>  0 0.14742899E+03</rscale>
<asrwt>0</asrwt>
<pdfrwt beam="1">  1        1 0.22389853E-01 0.15415608E+03</pdfrwt>
<pdfrwt beam="2">  1       -1 0.21253773E-01 0.15415608E+03</pdfrwt>
<totfact> 0.38925166E+03</totfact>
</mgrwt>
</event>
<event>
 7    1  0.1330601E-005  0.1537166E+03  0.7546771E-02  0.1220252E+00
          3   -1    0    0  501    0  0.00000000000E+00  0.00000000000E+00  0.17257812047E+03  0.17257812047E+03  0.00000000000E+00 0. -1.
         -3   -1    0    0    0  501 -0.00000000000E+00 -0.00000000000E+00 -0.14566360388E+03  0.14566360388E+03  0.00000000000E+00 0.  1.
         23    2    1    2    0    0 -0.35032852300E+01  0.95437895426E+00  0.11040125083E+03  0.14331655338E+03  0.91312728811E+02 0.  0.
          5    1    1    2  502    0 -0.13984487068E+02 -0.67491989013E+02 -0.32982550556E+01  0.69164318444E+02  0.47000000000E+01 0. -1.
         -5    1    1    2    0  502  0.17487772298E+02  0.66537610058E+02 -0.80188479185E+02  0.10576085252E+03  0.47000000000E+01 0.  1.
        -11    1    3    3    0    0  0.54073514171E+01 -0.19756274653E+02  0.11781534041E+03  0.11958262529E+03  0.00000000000E+00 0. -1.
         11    1    3    3    0    0 -0.89106366472E+01  0.20710653607E+02 -0.74140895771E+01  0.23733928089E+02  0.00000000000E+00 0.  1.
<mgrwt>
<rscale>  0 0.13497679E+03</rscale>
<asrwt>0</asrwt>
<pdfrwt beam="1">  1        3 0.26550480E-01 0.15371656E+03</pdfrwt>
<pdfrwt beam="2">  1       -3 0.22409785E-01 0.15371656E+03</pdfrwt>
<totfact> 0.58119912E+02</totfact>
</mgrwt>
</event>
<event>
 7    1  0.1330601E-005  0.1344822E+03  0.7546771E-02  0.1232981E+00
         -1   -1    0    0    0  501 -0.00000000000E+00  0.00000000000E+00  0.25314030853E+02  0.25314030853E+02  0.00000000000E+00 0.  1.
          1   -1    0    0  501    0  0.00000000000E+00 -0.00000000000E+00 -0.62360037541E+03  0.62360037541E+03  0.00000000000E+00 0. -1.
         23    2    1    2    0    0 -0.27164376077E+02  0.41527163950E+02 -0.36395467878E+03  0.37873520977E+03  0.92276444641E+02 0.  0.
          5    1    1    2  502    0  0.59085807328E+02  0.77340820818E+01 -0.54280872727E+02  0.80743122291E+02  0.47000000000E+01 0. -1.
         -5    1    1    2    0  502 -0.31921431251E+02 -0.49261246031E+02 -0.18005079305E+03  0.18943607420E+03  0.47000000000E+01 0. -1.
        -11    1    3    3    0    0  0.71074480571E+01 -0.19776687352E+02 -0.25372456479E+02  0.32945329385E+02  0.00000000000E+00 0.  1.
         11    1    3    3    0    0 -0.34271824134E+02  0.61303851302E+02 -0.33858222230E+03  0.34578988038E+03  0.00000000000E+00 0. -1.
<mgrwt>
<rscale>  0 0.12634581E+03</rscale>
<asrwt>0</asrwt>
<pdfrwt beam="2">  1        1 0.95938512E-01 0.13448222E+03</pdfrwt>
<pdfrwt beam="1">  1       -1 0.38944666E-02 0.13448222E+03</pdfrwt>
<totfact> 0.81731576E+03</totfact>
</mgrwt>
</event>
<event>
 7    1  0.1330601E-005  0.1338256E+03  0.7546771E-02  0.1233483E+00
          4   -1    0    0  501    0  0.00000000000E+00  0.00000000000E+00  0.69037675515E+03  0.69037675515E+03  0.00000000000E+00 0. -1.
         -4   -1    0    0    0  501 -0.00000000000E+00 -0.00000000000E+00 -0.20840524932E+02  0.20840524932E+02  0.00000000000E+00 0.  1.
         23    2    1    2    0    0  0.44179023631E+02  0.18132982815E+02  0.32453595484E+03  0.34117068266E+03  0.93772370784E+02 0.  0.
          5    1    1    2  502    0  0.22344909263E+02  0.17786915822E+02  0.17331486712E+02  0.33736327246E+02  0.47000000000E+01 0. -1.
         -5    1    1    2    0  502 -0.66523932893E+02 -0.35919898637E+02  0.32766878867E+03  0.33631027018E+03  0.47000000000E+01 0. -1.
        -11    1    3    3    0    0  0.17442680907E+02 -0.36696971245E+02  0.88533964593E+02  0.97412410413E+02  0.00000000000E+00 0. -1.
         11    1    3    3    0    0  0.26736342724E+02  0.54829954060E+02  0.23600199025E+03  0.24375827224E+03  0.00000000000E+00 0.  1.
<mgrwt>
<rscale>  0 0.12602066E+03</rscale>
<asrwt>0</asrwt>
<pdfrwt beam="1">  1        4 0.10621179E+00 0.13382561E+03</pdfrwt>
<pdfrwt beam="2">  1       -4 0.32062351E-02 0.13382561E+03</pdfrwt>
<totfact> 0.59756916E+02</totfact>
</mgrwt>
</event>
<event>
 7    1  0.1330601E-005  0.1268302E+03  0.7546771E-02  0.1247029E+00
         -1   -1    0    0    0  501 -0.00000000000E+00  0.00000000000E+00  0.39606548136E+03  0.39606548136E+03  0.00000000000E+00 0.  1.
          1   -1    0    0  501    0  0.00000000000E+00 -0.00000000000E+00 -0.35542088964E+02  0.35542088964E+02  0.00000000000E+00 0. -1.
         23    2    1    2    0    0  0.14929156579E+02  0.15358852499E+02  0.78547267836E+02  0.12242084043E+03  0.91424366676E+02 0.  0.
          5    1    1    2  502    0  0.46892139255E+02 -0.13453208970E+02  0.54007217226E+02  0.72929630933E+02  0.47000000000E+01 0.  1.
         -5    1    1    2    0  502 -0.61821295834E+02 -0.19056435284E+01  0.22796890734E+03  0.23625709896E+03  0.47000000000E+01 0.  1.
        -11    1    3    3    0    0  0.86513639492E+01  0.48914483906E+02  0.17852515410E+02  0.52784326655E+02  0.00000000000E+00 0. -1.
         11    1    3    3    0    0  0.62777926300E+01 -0.33555631407E+02  0.60694752426E+02  0.69636513780E+02  0.00000000000E+00 0.  1.
<mgrwt>
<rscale>  0 0.11764765E+03</rscale>
<asrwt>0</asrwt>
<pdfrwt beam="2">  1        1 0.54680140E-02 0.12683020E+03</pdfrwt>
<pdfrwt beam="1">  1       -1 0.60933148E-01 0.12683020E+03</pdfrwt>
<totfact> 0.39564986E+03</totfact>
</mgrwt>
</event>
<event>
 7    1  0.1330601E-005  0.1490986E+03  0.7546771E-02  0.1210799E+00
          1   -1    0    0  501    0  0.00000000000E+00  0.00000000000E+00  0.46087188695E+03  0.46087188695E+03  0.00000000000E+00 0. -1.
         -1   -1    0    0    0  501 -0.00000000000E+00 -0.00000000000E+00 -0.41020087214E+02  0.41020087214E+02  0.00000000000E+00 0.  1.
         23    2    1    2    0    0  0.76666126624E+02  0.27041175289E+02  0.22990524361E+03  0.26041717784E+03  0.91387993433E+02 0.  0.
          5    1    1    2  502    0 -0.36913069551E+00  0.36643856416E+02  0.14320221649E+02  0.39624073725E+02  0.47000000000E+01 0.  1.
         -5    1    1    2    0  502 -0.76296995929E+02 -0.63685031705E+02  0.17562633449E+03  0.20185072260E+03  0.47000000000E+01 0.  1.
        -11    1    3    3    0    0  0.90678737035E+02  0.13886061285E+02  0.13264873615E+03  0.16127970502E+03  0.00000000000E+00 0.  1.
         11    1    3    3    0    0 -0.14012610410E+02  0.13155114004E+02  0.97256507458E+02  0.99137472824E+02  0.00000000000E+00 0. -1.
<mgrwt>
<rscale>  0 0.14189727E+03</rscale>
<asrwt>0</asrwt>
<pdfrwt beam="1">  1        1 0.70903363E-01 0.14909857E+03</pdfrwt>
<pdfrwt beam="2">  1       -1 0.63107830E-02 0.14909857E+03</pdfrwt>
<totfact> 0.60111530E+03</totfact>
</mgrwt>
</event>
<event>
 7    1  0.1330601E-005  0.1595979E+03  0.7546771E-02  0.1196908E+00
         -2   -1    0    0    0  501 -0.00000000000E+00  0.00000000000E+00  0.54640071395E+03  0.54640071395E+03  0.00000000000E+00 0. -1.
          2   -1    0    0  501    0  0.00000000000E+00 -0.00000000000E+00 -0.41167039430E+02  0.41167039430E+02  0.00000000000E+00 0.  1.
         23    2    1    2    0    0 -0.95641042546E+02  0.26467513990E+02  0.17477364788E+03  0.22058640405E+03  0.90910919812E+02 0.  0.
          5    1    1    2  502    0  0.72497480329E+02  0.27827010001E+02  0.27522526370E+03  0.28600920075E+03  0.47000000000E+01 0. -1.
         -5    1    1    2    0  502  0.23143562217E+02 -0.54294523992E+02  0.55234762937E+02  0.80972148571E+02  0.47000000000E+01 0. -1.
        -11    1    3    3    0    0 -0.39872396378E+02 -0.29054684233E+02  0.10242870901E+03  0.11369091036E+03  0.00000000000E+00 0. -1.
         11    1    3    3    0    0 -0.55768646168E+02  0.55522198224E+02  0.72344938877E+02  0.10689549369E+03  0.00000000000E+00 0.  1.
<mgrwt>
<rscale>  0 0.15293882E+03</rscale>
<asrwt>0</asrwt>
<pdfrwt beam="2">  1        2 0.63333911E-02 0.15959787E+03</pdfrwt>
<pdfrwt beam="1">  1       -2 0.84061643E-01 0.15959787E+03</pdfrwt>
<totfact> 0.14318174E+03</totfact>
</mgrwt>
</event>
<event>
 7    1  0.1330601E-005  0.1265986E+03  0.7546771E-02  0.1249895E+00
          1   -1    0    0  501    0  0.00000000000E+00  0.00000000000E+00  0.32383585112E+03  0.32383585112E+03  0.00000000000E+00 0. -1.
         -1   -1    0    0    0  501 -0.00000000000E+00 -0.00000000000E+00 -0.38160264712E+02  0.38160264712E+02  0.00000000000E+00 0.  1.
         23    2    1    2    0    0  0.15168891884E+02 -0.13293025901E+02  0.16258436842E+03  0.18542133302E+03  0.86836594045E+02 0.  0.
          5    1    1    2  502    0  0.14373851682E+02 -0.51704106897E+02  0.41133841761E+02  0.67779091320E+02  0.47000000000E+01 0.  1.
         -5    1    1    2    0  502 -0.29542743566E+02  0.64997132798E+02  0.81957376225E+02  0.10879569149E+03  0.47000000000E+01 0.  1.
        -11    1    3    3    0    0 -0.36347206549E+02 -0.57537980026E+01  0.60137782884E+02  0.70503748450E+02  0.00000000000E+00 0.  1.
         11    1    3    3    0    0  0.51516098433E+02 -0.75392278981E+01  0.10244658554E+03  0.11491758457E+03  0.00000000000E+00 0. -1.
<mgrwt>
<rscale>  0 0.11597110E+03</rscale>
<asrwt>0</asrwt>
<pdfrwt beam="1">  1        1 0.49820898E-01 0.12659860E+03</pdfrwt>
<pdfrwt beam="2">  1       -1 0.58708102E-02 0.12659860E+03</pdfrwt>
<totfact> 0.10328804E+04</totfact>
</mgrwt>
</event>
<event>
 7    1  0.1330601E-005  0.1305690E+03  0.7546771E-02  0.1232354E+00
          2   -1    0    0  501    0  0.00000000000E+00  0.00000000000E+00  0.52069801560E+03  0.52069801560E+03  0.00000000000E+00 0. -1.
         -2   -1    0    0    0  501 -0.00000000000E+00 -0.00000000000E+00 -0.29409016676E+02  0.29409016676E+02  0.00000000000E+00 0.  1.
         23    2    1    2    0    0 -0.87598269676E+01 -0.36651128395E+02  0.20701757573E+03  0.23728357820E+03  0.10966850069E+03 0.  0.
          5    1    1    2  502    0 -0.18697023115E+02  0.56868968577E+02  0.26819351304E+03  0.27483360184E+03  0.47000000000E+01 0. -1.
         -5    1    1    2    0  502  0.27456850083E+02 -0.20217840182E+02  0.16077910154E+02  0.37989852237E+02  0.47000000000E+01 0. -1.
        -11    1    3    3    0    0  0.37186870223E+02  0.13346233310E+02  0.36682878552E+02  0.53913067427E+02  0.00000000000E+00 0.  1.
         11    1    3    3    0    0 -0.45946697191E+02 -0.49997361705E+02  0.17033469718E+03  0.18337051078E+03  0.00000000000E+00 0. -1.
<mgrwt>
<rscale>  0 0.12675328E+03</rscale>
<asrwt>0</asrwt>
<pdfrwt beam="1">  1        2 0.80107381E-01 0.13056903E+03</pdfrwt>
<pdfrwt beam="2">  1       -2 0.45244645E-02 0.13056903E+03</pdfrwt>
<totfact> 0.12821586E+04</totfact>
</mgrwt>
</event>
<event>
 7    1  0.1330601E-005  0.1588772E+03  0.7546771E-02  0.1197536E+00
         -1   -1    0    0    0  501 -0.00000000000E+00  0.00000000000E+00  0.50282435182E+02  0.50282435182E+02  0.00000000000E+00 0.  1.
          1   -1    0    0  501    0  0.00000000000E+00 -0.00000000000E+00 -0.50626188964E+03  0.50626188964E+03  0.00000000000E+00 0. -1.
         23    2    1    2    0    0 -0.61004045823E+02  0.76715851438E+02 -0.32102176452E+03  0.34808441174E+03  0.92200699206E+02 0.  0.
          5    1    1    2  502    0 -0.30313689328E+02 -0.18328259150E+02 -0.78294333255E+02  0.86063566415E+02  0.47000000000E+01 0. -1.
         -5    1    1    2    0  502  0.91317735151E+02 -0.58387592288E+02 -0.56663356684E+02  0.12239634667E+03  0.47000000000E+01 0. -1.
        -11    1    3    3    0    0 -0.23362350201E+02  0.86366386468E+02 -0.26660468342E+03  0.28121701467E+03  0.00000000000E+00 0.  1.
         11    1    3    3    0    0 -0.37641695622E+02 -0.96505350308E+01 -0.54417081091E+02  0.66867397064E+02  0.00000000000E+00 0. -1.
<mgrwt>
<rscale>  0 0.15241556E+03</rscale>
<asrwt>0</asrwt>
<pdfrwt beam="2">  1        1 0.77886447E-01 0.15887718E+03</pdfrwt>
<pdfrwt beam="1">  1       -1 0.77357590E-02 0.15887718E+03</pdfrwt>
<totfact> 0.39286531E+03</totfact>
</mgrwt>
</event>
<event>
 7    1  0.1330601E-005  0.1364608E+03  0.7546771E-02  0.1229162E+00
         -3   -1    0    0    0  501 -0.00000000000E+00  0.00000000000E+00  0.12548987363E+03  0.12548987363E+03  0.00000000000E+00 0.  1.
          3   -1    0    0  501    0  0.00000000000E+00 -0.00000000000E+00 -0.12854777795E+03  0.12854777795E+03  0.00000000000E+00 0. -1.
         23    2    1    2    0    0 -0.19638319592E+02  0.51098780082E+02 -0.34792505425E+02  0.11393541307E+03  0.93669690910E+02 0.  0.
          5    1    1    2  502    0 -0.45947726552E+02 -0.46898514550E+02 -0.24593284568E+01  0.65869587358E+02  0.47000000000E+01 0.  1.
         -5    1    1    2    0  502  0.65586046144E+02 -0.42002655328E+01  0.34193929563E+02  0.74232651160E+02  0.47000000000E+01 0.  1.
        -11    1    3    3    0    0  0.76390542684E+01  0.72893044976E+02 -0.19666668447E+02  0.75884972187E+02  0.00000000000E+00 0.  1.
         11    1    3    3    0    0 -0.27277373861E+02 -0.21794264894E+02 -0.15125836978E+02  0.38050440882E+02  0.00000000000E+00 0. -1.
<mgrwt>
<rscale>  0 0.12885656E+03</rscale>
<asrwt>0</asrwt>
<pdfrwt beam="2">  1        3 0.19776581E-01 0.13646081E+03</pdfrwt>
<pdfrwt beam="1">  1       -3 0.19306134E-01 0.13646081E+03</pdfrwt>
<totfact> 0.12598238E+03</totfact>
</mgrwt>
</event>
<event>
 7    1  0.1330601E-005  0.1621734E+03  0.7546771E-02  0.1193988E+00
          2   -1    0    0  501    0  0.00000000000E+00  0.00000000000E+00  0.29017879248E+03  0.29017879248E+03  0.00000000000E+00 0. -1.
         -2   -1    0    0    0  501 -0.00000000000E+00 -0.00000000000E+00 -0.78345925315E+02  0.78345925315E+02  0.00000000000E+00 0.  1.
         23    2    1    2    0    0 -0.80434142264E+02 -0.64843681154E+02  0.12133290830E+03  0.18280865660E+03  0.89571067115E+02 0.  0.
          5    1    1    2  502    0  0.62446350114E+02  0.33254372476E+02  0.11951670376E+03  0.13896665935E+03  0.47000000000E+01 0. -1.
         -5    1    1    2    0  502  0.17987792150E+02  0.31589308678E+02 -0.29016744896E+02  0.46749401852E+02  0.47000000000E+01 0. -1.
        -11    1    3    3    0    0 -0.86175109367E+02 -0.80990524918E+02  0.96498814323E+02  0.15263563072E+03  0.00000000000E+00 0.  1.
         11    1    3    3    0    0  0.57409671021E+01  0.16146843765E+02  0.24834093979E+02  0.30173025877E+02  0.00000000000E+00 0. -1.
<mgrwt>
<rscale>  0 0.15540220E+03</rscale>
<asrwt>0</asrwt>
<pdfrwt beam="1">  1        2 0.44642891E-01 0.16217340E+03</pdfrwt>
<pdfrwt beam="2">  1       -2 0.12053219E-01 0.16217340E+03</pdfrwt>
<totfact> 0.53824294E+03</totfact>
</mgrwt>
</event>
<event>
 7    1  0.1330601E-005  0.2311777E+03  0.7546771E-02  0.1128527E+00
          2   -1    0    0  501    0  0.00000000000E+00  0.00000000000E+00  0.76533103665E+03  0.76533103665E+03  0.00000000000E+00 0. -1.
         -2   -1    0    0    0  501 -0.00000000000E+00 -0.00000000000E+00 -0.75124893386E+02  0.75124893386E+02  0.00000000000E+00 0.  1.
         23    2    1    2    0    0  0.17741636886E+03 -0.79642612446E+02  0.48633408027E+03  0.53222392920E+03  0.94456124847E+02 0.  0.
          5    1    1    2  502    0 -0.27297403641E+02  0.73970856837E+02  0.89462463086E+02  0.11934177059E+03  0.47000000000E+01 0.  1.
         -5    1    1    2    0  502 -0.15011896522E+03  0.56717556092E+01  0.11440959991E+03  0.18889023025E+03  0.47000000000E+01 0.  1.
        -11    1    3    3    0    0  0.53935823309E+02  0.15221984397E+02  0.85745811920E+02  0.10243596100E+03  0.00000000000E+00 0.  1.
         11    1    3    3    0    0  0.12348054556E+03 -0.94864596843E+02  0.40058826835E+03  0.42978796820E+03  0.00000000000E+00 0. -1.
<mgrwt>
<rscale>  0 0.22733815E+03</rscale>
<asrwt>0</asrwt>
<pdfrwt beam="1">  1        2 0.11774323E+00 0.23117774E+03</pdfrwt>
<pdfrwt beam="2">  1       -2 0.11557676E-01 0.23117774E+03</pdfrwt>
<totfact> 0.19666764E+03</totfact>
</mgrwt>
</event>
<event>
 7    1  0.1330601E-005  0.1345875E+03  0.7546771E-02  0.1232190E+00
          1   -1    0    0  501    0  0.00000000000E+00  0.00000000000E+00  0.33314235864E+03  0.33314235864E+03  0.00000000000E+00 0. -1.
         -1   -1    0    0    0  501 -0.00000000000E+00 -0.00000000000E+00 -0.43688792940E+02  0.43688792940E+02  0.00000000000E+00 0.  1.
         23    2    1    2    0    0  0.98469365274E+01  0.48891833623E+02  0.11625563801E+03  0.15748824043E+03  0.93807243602E+02 0.  0.
          5    1    1    2  502    0  0.40050990439E+02 -0.45744193846E+02  0.30735702889E+02  0.68288992801E+02  0.47000000000E+01 0. -1.
         -5    1    1    2    0  502 -0.49897926966E+02 -0.31476397766E+01  0.14246222481E+03  0.15105391835E+03  0.47000000000E+01 0. -1.
        -11    1    3    3    0    0  0.14720976040E+02  0.64448807947E+02  0.35369807650E+02  0.74975857945E+02  0.00000000000E+00 0.  1.
         11    1    3    3    0    0 -0.48740395129E+01 -0.15556974324E+02  0.80885830357E+02  0.82512382488E+02  0.00000000000E+00 0. -1.
<mgrwt>
<rscale>  0 0.12686057E+03</rscale>
<asrwt>0</asrwt>
<pdfrwt beam="1">  1        1 0.51252669E-01 0.13458748E+03</pdfrwt>
<pdfrwt beam="2">  1       -1 0.67213530E-02 0.13458748E+03</pdfrwt>
<totfact> 0.81873762E+03</totfact>
</mgrwt>
</event>
<event>
 7    1  0.1330601E-005  0.1297098E+03  0.7546771E-02  0.1241276E+00
          2   -1    0    0  501    0  0.00000000000E+00  0.00000000000E+00  0.31835197077E+03  0.31835197077E+03  0.00000000000E+00 0. -1.
         -2   -1    0    0    0  501 -0.00000000000E+00 -0.00000000000E+00 -0.44118531358E+02  0.44118531358E+02  0.00000000000E+00 0.  1.
         23    2    1    2    0    0  0.21718311164E+01  0.34577542940E+02  0.16808786650E+03  0.19486524673E+03  0.92296317333E+02 0.  0.
          5    1    1    2  502    0  0.21143922321E+02  0.39698776667E+02  0.65673041490E+02  0.79737674273E+02  0.47000000000E+01 0. -1.
         -5    1    1    2    0  502 -0.23315753438E+02 -0.74276319607E+02  0.40472531422E+02  0.87867581123E+02  0.47000000000E+01 0. -1.
        -11    1    3    3    0    0 -0.12779947386E+02  0.37420337951E+02  0.17407547527E+03  0.17851016732E+03  0.00000000000E+00 0. -1.
         11    1    3    3    0    0  0.14951778502E+02 -0.28427950110E+01 -0.59876087655E+01  0.16355079412E+02  0.00000000000E+00 0.  1.
<mgrwt>
<rscale>  0 0.12111055E+03</rscale>
<asrwt>0</asrwt>
<pdfrwt beam="1">  1        2 0.48977225E-01 0.12970983E+03</pdfrwt>
<pdfrwt beam="2">  1       -2 0.67874666E-02 0.12970983E+03</pdfrwt>
<totfact> 0.11785678E+04</totfact>
</mgrwt>
</event>
<event>
 7    1  0.1330601E-005  0.1525926E+03  0.7546771E-02  0.1201681E+00
         -1   -1    0    0    0  501 -0.00000000000E+00  0.00000000000E+00  0.10976011695E+03  0.10976011695E+03  0.00000000000E+00 0.  1.
          1   -1    0    0  501    0  0.00000000000E+00 -0.00000000000E+00 -0.30478822610E+03  0.30478822610E+03  0.00000000000E+00 0. -1.
         23    2    1    2    0    0  0.43597291038E+02 -0.95140666507E+02 -0.21980095407E+03  0.25995791769E+03  0.91176693014E+02 0.  0.
          5    1    1    2  502    0 -0.57242564795E+02  0.94037034815E+01  0.33596202940E+02  0.67200712165E+02  0.47000000000E+01 0. -1.
         -5    1    1    2    0  502  0.13645273757E+02  0.85736963026E+02 -0.88233580204E+01  0.87389713191E+02  0.47000000000E+01 0.  1.
        -11    1    3    3    0    0 -0.22535836046E+02 -0.49575571404E+02 -0.59464562164E+02  0.80632718792E+02  0.00000000000E+00 0.  1.
         11    1    3    3    0    0  0.66133127083E+02 -0.45565095103E+02 -0.16033639191E+03  0.17932519890E+03  0.00000000000E+00 0. -1.
<mgrwt>
<rscale>  0 0.14902122E+03</rscale>
<asrwt>0</asrwt>
<pdfrwt beam="2">  1        1 0.46890495E-01 0.15259261E+03</pdfrwt>
<pdfrwt beam="1">  1       -1 0.16886172E-01 0.15259261E+03</pdfrwt>
<totfact> 0.22353081E+03</totfact>
</mgrwt>
</event>
<event>
 7    1  0.1330601E-005  0.1341683E+03  0.7546771E-02  0.1229978E+00
         -2   -1    0    0    0  501 -0.00000000000E+00  0.00000000000E+00  0.26156648169E+03  0.26156648169E+03  0.00000000000E+00 0.  1.
          2   -1    0    0  501    0  0.00000000000E+00 -0.00000000000E+00 -0.63166840198E+02  0.63166840198E+02  0.00000000000E+00 0. -1.
         23    2    1    2    0    0  0.45036599278E+02 -0.18661712352E+02  0.44970036501E+02  0.12091532401E+03  0.10110220876E+03 0.  0.
          5    1    1    2  502    0  0.29675582463E+02 -0.11837770973E+02  0.10439057518E+03  0.10927147479E+03  0.47000000000E+01 0. -1.
         -5    1    1    2    0  502 -0.74712181741E+02  0.30499483325E+02  0.49039029815E+02  0.94546523092E+02  0.47000000000E+01 0. -1.
        -11    1    3    3    0    0  0.26741595565E+02  0.90226516315E+01 -0.28616837660E+02  0.40192593515E+02  0.00000000000E+00 0. -1.
         11    1    3    3    0    0  0.18295003714E+02 -0.27684363984E+02  0.73586874161E+02  0.80722730497E+02  0.00000000000E+00 0.  1.
<mgrwt>
<rscale>  0 0.12831459E+03</rscale>
<asrwt>0</asrwt>
<pdfrwt beam="2">  1        2 0.97179756E-02 0.13416830E+03</pdfrwt>
<pdfrwt beam="1">  1       -2 0.40240997E-01 0.13416830E+03</pdfrwt>
<totfact> 0.37366471E+03</totfact>
</mgrwt>
</event>
<event>
 7    1  0.1330601E-005  0.1501801E+03  0.7546771E-02  0.1209218E+00
         -2   -1    0    0    0  501 -0.00000000000E+00  0.00000000000E+00  0.97847640714E+02  0.97847640714E+02  0.00000000000E+00 0. -1.
          2   -1    0    0  501    0  0.00000000000E+00 -0.00000000000E+00 -0.24762950442E+03  0.24762950442E+03  0.00000000000E+00 0.  1.
         23    2    1    2    0    0 -0.82573902933E+02 -0.10838388899E+02 -0.15103807212E+03  0.19529182970E+03  0.91599560033E+02 0.  0.
          5    1    1    2  502    0  0.66899558079E+02  0.46580740543E+02 -0.41927084457E+02  0.91789360340E+02  0.47000000000E+01 0. -1.
         -5    1    1    2    0  502  0.15674344855E+02 -0.35742351645E+02  0.43183292873E+02  0.58395955092E+02  0.47000000000E+01 0. -1.
        -11    1    3    3    0    0 -0.27102936208E+01 -0.17116925837E+02 -0.97290761896E+02  0.98822199895E+02  0.00000000000E+00 0.  1.
         11    1    3    3    0    0 -0.79863609313E+02  0.62785369385E+01 -0.53747310223E+02  0.96469629805E+02  0.00000000000E+00 0. -1.
<mgrwt>
<rscale>  0 0.14309987E+03</rscale>
<asrwt>0</asrwt>
<pdfrwt beam="2">  1        2 0.38096847E-01 0.15018006E+03</pdfrwt>
<pdfrwt beam="1">  1       -2 0.15053483E-01 0.15018006E+03</pdfrwt>
<totfact> 0.44269929E+03</totfact>
</mgrwt>
</event>
<event>
 7    1  0.1330601E-005  0.1255652E+03  0.7546771E-02  0.1249554E+00
         -3   -1    0    0    0  501 -0.00000000000E+00  0.00000000000E+00  0.58486741328E+02  0.58486741328E+02  0.00000000000E+00 0.  1.
          3   -1    0    0  501    0  0.00000000000E+00 -0.00000000000E+00 -0.20663608542E+03  0.20663608542E+03  0.00000000000E+00 0. -1.
         23    2    1    2    0    0  0.67271228709E+01 -0.96712292484E+01 -0.81819475371E+02  0.12311482221E+03  0.91236210136E+02 0.  0.
          5    1    1    2  502    0 -0.39894925659E+01  0.50107048693E+02 -0.83633980358E+02  0.97690148173E+02  0.47000000000E+01 0. -1.
         -5    1    1    2    0  502 -0.27376303050E+01 -0.40435819444E+02  0.17304111633E+02  0.44317856370E+02  0.47000000000E+01 0. -1.
        -11    1    3    3    0    0 -0.11697651562E+02  0.10684649869E+02 -0.92357075383E+02  0.93706062601E+02  0.00000000000E+00 0. -1.
         11    1    3    3    0    0  0.18424774433E+02 -0.20355879117E+02  0.10537600012E+02  0.29408759606E+02  0.00000000000E+00 0.  1.
<mgrwt>
<rscale>  0 0.11616932E+03</rscale>
<asrwt>0</asrwt>
<pdfrwt beam="2">  1        3 0.31790167E-01 0.12556521E+03</pdfrwt>
<pdfrwt beam="1">  1       -3 0.89979601E-02 0.12556521E+03</pdfrwt>
<totfact> 0.19156999E+03</totfact>
</mgrwt>
</event>
<event>
 7    1  0.1593711E-005  0.2406375E+03  0.7546771E-02  0.1122169E+00
          2   -1    0    0  501    0  0.00000000000E+00  0.00000000000E+00  0.15640042599E+04  0.15640042599E+04  0.00000000000E+00 0. -1.
         -2   -1    0    0    0  501 -0.00000000000E+00 -0.00000000000E+00 -0.34569904562E+02  0.34569904562E+02  0.00000000000E+00 0.  1.
         23    2    1    2    0    0 -0.13830689036E+03 -0.15215834765E+03  0.72909148513E+03  0.76283790036E+03  0.89812637498E+02 0.  0.
          5    1    1    2  502    0  0.14739126049E+03  0.80053707877E+02  0.55354150598E+03  0.57841427080E+03  0.47000000000E+01 0.  1.
         -5    1    1    2    0  502 -0.90843701383E+01  0.72104639770E+02  0.24680136425E+03  0.25732199333E+03  0.47000000000E+01 0.  1.
        -11    1    3    3    0    0 -0.12138736484E+03 -0.84816601117E+02  0.57609288107E+03  0.59482077619E+03  0.00000000000E+00 0.  1.
         11    1    3    3    0    0 -0.16919525519E+02 -0.67341746530E+02  0.15299860406E+03  0.16801712417E+03  0.00000000000E+00 0. -1.
<mgrwt>
<rscale>  0 0.23646640E+03</rscale>
<asrwt>0</asrwt>
<pdfrwt beam="1">  1        2 0.24061599E+00 0.24063747E+03</pdfrwt>
<pdfrwt beam="2">  1       -2 0.53184481E-02 0.24063747E+03</pdfrwt>
<totfact> 0.22479146E+03</totfact>
</mgrwt>
</event>
<event>
 7    1  0.1330601E-005  0.1814723E+03  0.7546771E-02  0.1172241E+00
         -1   -1    0    0    0  501 -0.00000000000E+00  0.00000000000E+00  0.40273545643E+03  0.40273545643E+03  0.00000000000E+00 0.  1.
          1   -1    0    0  501    0  0.00000000000E+00 -0.00000000000E+00 -0.74666262714E+02  0.74666262714E+02  0.00000000000E+00 0. -1.
         23    2    1    2    0    0  0.84542555092E+02 -0.10074406088E+03  0.10706215894E+03  0.19143612511E+03  0.88818211516E+02 0.  0.
          5    1    1    2  502    0 -0.69024429532E+02  0.11562034090E+03  0.11332987567E+03  0.17606301662E+03  0.47000000000E+01 0.  1.
         -5    1    1    2    0  502 -0.15518125560E+02 -0.14876280023E+02  0.10767715910E+03  0.10990257740E+03  0.47000000000E+01 0.  1.
        -11    1    3    3    0    0  0.23514929478E+02 -0.49058418809E+02  0.96485569085E+02  0.11076617447E+03  0.00000000000E+00 0.  1.
         11    1    3    3    0    0  0.61027625615E+02 -0.51685642071E+02  0.10576589860E+02  0.80669950648E+02  0.00000000000E+00 0. -1.
<mgrwt>
<rscale>  0 0.17548970E+03</rscale>
<asrwt>0</asrwt>
<pdfrwt beam="2">  1        1 0.11487118E-01 0.18147234E+03</pdfrwt>
<pdfrwt beam="1">  1       -1 0.61959300E-01 0.18147234E+03</pdfrwt>
<totfact> 0.14355009E+03</totfact>
</mgrwt>
</event>
<event>
 7    1  0.1330601E-005  0.2274871E+03  0.7546771E-02  0.1131661E+00
         -2   -1    0    0    0  501 -0.00000000000E+00  0.00000000000E+00  0.15644500388E+03  0.15644500388E+03  0.00000000000E+00 0. -1.
          2   -1    0    0  501    0  0.00000000000E+00 -0.00000000000E+00 -0.35489575566E+03  0.35489575566E+03  0.00000000000E+00 0.  1.
         23    2    1    2    0    0 -0.10079517810E+03 -0.16113844220E+03 -0.19068361590E+03  0.28372107332E+03  0.89510561331E+02 0.  0.
          5    1    1    2  502    0  0.79775199720E+02  0.17820012259E+03  0.88663723216E+01  0.19549953642E+03  0.47000000000E+01 0. -1.
         -5    1    1    2    0  502  0.21019978376E+02 -0.17061680392E+02 -0.16633508202E+02  0.32120149811E+02  0.47000000000E+01 0. -1.
        -11    1    3    3    0    0 -0.10987591849E+03 -0.11464822638E+03 -0.16809524469E+03  0.23124217731E+03  0.00000000000E+00 0.  1.
         11    1    3    3    0    0  0.90807403975E+01 -0.46490215811E+02 -0.22588371208E+02  0.52478896008E+02  0.00000000000E+00 0. -1.
<mgrwt>
<rscale>  0 0.22300699E+03</rscale>
<asrwt>0</asrwt>
<pdfrwt beam="2">  1        2 0.54599347E-01 0.22748713E+03</pdfrwt>
<pdfrwt beam="1">  1       -2 0.24068462E-01 0.22748713E+03</pdfrwt>
<totfact> 0.13796932E+03</totfact>
</mgrwt>
</event>
<event>
 7    1  0.1330601E-005  0.1526412E+03  0.7546771E-02  0.1206731E+00
         -2   -1    0    0    0  501 -0.00000000000E+00  0.00000000000E+00  0.66108659345E+02  0.66108659345E+02  0.00000000000E+00 0.  1.
          2   -1    0    0  501    0  0.00000000000E+00 -0.00000000000E+00 -0.32065498027E+03  0.32065498027E+03  0.00000000000E+00 0. -1.
         23    2    1    2    0    0 -0.38098288152E+02 -0.78888395321E+02 -0.17486215161E+03  0.21457506722E+03  0.88265672422E+02 0.  0.
          5    1    1    2  502    0  0.81004600183E+01 -0.17028673028E+01 -0.85351652070E+02  0.85880799488E+02  0.47000000000E+01 0.  1.
         -5    1    1    2    0  502  0.29997828134E+02  0.80591262624E+02  0.56674827566E+01  0.86307772911E+02  0.47000000000E+01 0.  1.
        -11    1    3    3    0    0 -0.51344513805E+02 -0.22818738950E+02 -0.12977769663E+03  0.14141854365E+03  0.00000000000E+00 0. -1.
         11    1    3    3    0    0  0.13246225653E+02 -0.56069656371E+02 -0.45084454985E+02  0.73156523570E+02  0.00000000000E+00 0.  1.
<mgrwt>
<rscale>  0 0.14501903E+03</rscale>
<asrwt>0</asrwt>
<pdfrwt beam="2">  1        2 0.49331535E-01 0.15264121E+03</pdfrwt>
<pdfrwt beam="1">  1       -2 0.10170563E-01 0.15264121E+03</pdfrwt>
<totfact> 0.63182409E+03</totfact>
</mgrwt>
</event>
<event>
 7    1  0.1330601E-005  0.1538112E+03  0.7546771E-02  0.1208425E+00
          1   -1    0    0  501    0  0.00000000000E+00  0.00000000000E+00  0.20109835744E+02  0.20109835744E+02  0.00000000000E+00 0. -1.
         -1   -1    0    0    0  501 -0.00000000000E+00 -0.00000000000E+00 -0.95902527204E+03  0.95902527204E+03  0.00000000000E+00 0.  1.
         23    2    1    2    0    0 -0.17872833445E+02  0.87832049630E+02 -0.30293419185E+03  0.32481865639E+03  0.75525676625E+02 0.  0.
          5    1    1    2  502    0  0.35914244750E+02 -0.40239932258E+02 -0.83756721057E+02  0.99731456654E+02  0.47000000000E+01 0. -1.
         -5    1    1    2    0  502 -0.18041411306E+02 -0.47592117372E+02 -0.55222452339E+03  0.55458499474E+03  0.47000000000E+01 0. -1.
        -11    1    3    3    0    0 -0.36450193216E+02  0.28449583807E+02 -0.19335454683E+03  0.19880637863E+03  0.00000000000E+00 0.  1.
         11    1    3    3    0    0  0.18577359772E+02  0.59382465823E+02 -0.10957964501E+03  0.12601227775E+03  0.00000000000E+00 0. -1.
<mgrwt>
<rscale>  0 0.14370818E+03</rscale>
<asrwt>0</asrwt>
<pdfrwt beam="1">  1        1 0.30938220E-02 0.15381117E+03</pdfrwt>
<pdfrwt beam="2">  1       -1 0.14754230E+00 0.15381117E+03</pdfrwt>
<totfact> 0.12656268E+03</totfact>
</mgrwt>
</event>
<event>
 7    1  0.1330601E-005  0.1957421E+03  0.7546771E-02  0.1155181E+00
         -4   -1    0    0    0  501 -0.00000000000E+00  0.00000000000E+00  0.15306226735E+03  0.15306226735E+03  0.00000000000E+00 0.  1.
          4   -1    0    0  501    0  0.00000000000E+00 -0.00000000000E+00 -0.24058400065E+03  0.24058400065E+03  0.00000000000E+00 0. -1.
         23    2    1    2    0    0  0.56993194761E+02 -0.13943521676E+03 -0.52027331938E+02  0.19471204350E+03  0.11187284162E+03 0.  0.
          5    1    1    2  502    0 -0.64588760098E+02  0.15708158184E+03 -0.15183052697E+02  0.17058413283E+03  0.47000000000E+01 0. -1.
         -5    1    1    2    0  502  0.75955653365E+01 -0.17646365086E+02 -0.20311348656E+02  0.28350091671E+02  0.47000000000E+01 0. -1.
        -11    1    3    3    0    0  0.21102724564E+02  0.39833643253E+01 -0.41216996749E+02  0.46476155138E+02  0.00000000000E+00 0. -1.
         11    1    3    3    0    0  0.35890470197E+02 -0.14341858108E+03 -0.10810335189E+02  0.14823588836E+03  0.00000000000E+00 0.  1.
<mgrwt>
<rscale>  0 0.19368241E+03</rscale>
<asrwt>0</asrwt>
<pdfrwt beam="2">  1        4 0.37012923E-01 0.19574211E+03</pdfrwt>
<pdfrwt beam="1">  1       -4 0.23548041E-01 0.19574211E+03</pdfrwt>
<totfact> 0.21024336E+02</totfact>
</mgrwt>
</event>
<event>
 7    1  0.1330601E-005  0.1315645E+03  0.7546771E-02  0.1238859E+00
         -1   -1    0    0    0  501 -0.00000000000E+00  0.00000000000E+00  0.96294659912E+02  0.96294659912E+02  0.00000000000E+00 0.  1.
          1   -1    0    0  501    0  0.00000000000E+00 -0.00000000000E+00 -0.13849089112E+03  0.13849089112E+03  0.00000000000E+00 0. -1.
         23    2    1    2    0    0 -0.18816352175E+02  0.36506504192E+02 -0.22623372502E+02  0.10177304816E+03  0.90328048750E+02 0.  0.
          5    1    1    2  502    0 -0.36651469193E+02  0.10151019099E+02  0.26867691475E+02  0.46801028065E+02  0.47000000000E+01 0. -1.
         -5    1    1    2    0  502  0.55467821368E+02 -0.46657523291E+02 -0.46440550179E+02  0.86211474804E+02  0.47000000000E+01 0. -1.
        -11    1    3    3    0    0  0.28908709722E+02  0.19086910944E+02  0.15800248375E+02  0.38074552077E+02  0.00000000000E+00 0.  1.
         11    1    3    3    0    0 -0.47725061897E+02  0.17419593248E+02 -0.38423620877E+02  0.63698496083E+02  0.00000000000E+00 0. -1.
<mgrwt>
<rscale>  0 0.12260587E+03</rscale>
<asrwt>0</asrwt>
<pdfrwt beam="2">  1        1 0.21306291E-01 0.13156454E+03</pdfrwt>
<pdfrwt beam="1">  1       -1 0.14814563E-01 0.13156454E+03</pdfrwt>
<totfact> 0.72876571E+03</totfact>
</mgrwt>
</event>
<event>
 6    1  0.1330601E-005  0.1111014E+03  0.7546771E-02  0.1301535E+00
         -2   -1    0    0    0  501 -0.00000000000E+00  0.00000000000E+00  0.22895603317E+02  0.22895603317E+02  0.00000000000E+00 0.  1.
          2   -1    0    0  501    0  0.00000000000E+00 -0.00000000000E+00 -0.28135534706E+03  0.28135534706E+03  0.00000000000E+00 0. -1.
          5    1    1    2  502    0 -0.17744595277E+02 -0.17269065576E+02 -0.16927907196E+03  0.17114492540E+03  0.47000000000E+01 0. -1.
         -5    1    1    2    0  502  0.94506988178E+01  0.29358374452E+02  0.16564735505E+00  0.31198514350E+02  0.47000000000E+01 0.  1.
        -11    1    1    2    0    0  0.21704899957E+02  0.86312539011E+01 -0.33386703154E+02  0.40746449828E+02  0.00000000000E+00 0. -1.
         11    1    1    2    0    0 -0.13411003499E+02 -0.20720562777E+02 -0.55959615980E+02  0.61161060793E+02  0.00000000000E+00 0.  1.
<mgrwt>
<rscale>  0 0.90546094E+02</rscale>
<asrwt>0</asrwt>
<pdfrwt beam="2">  1        2 0.43285440E-01 0.11110138E+03</pdfrwt>
<pdfrwt beam="1">  1       -2 0.35224004E-02 0.11110138E+03</pdfrwt>
<totfact> 0.35292347E+04</totfact>
</mgrwt>
</event>
<event>
 7    1  0.1330601E-005  0.1570846E+03  0.7546771E-02  0.1199986E+00
         -1   -1    0    0    0  501 -0.00000000000E+00  0.00000000000E+00  0.73042117207E+02  0.73042117207E+02  0.00000000000E+00 0.  1.
          1   -1    0    0  501    0  0.00000000000E+00 -0.00000000000E+00 -0.29253766982E+03  0.29253766982E+03  0.00000000000E+00 0. -1.
         23    2    1    2    0    0 -0.16330492600E+02 -0.93716732986E+02 -0.73261707692E+02  0.15096403231E+03  0.91506011861E+02 0.  0.
          5    1    1    2  502    0  0.18775410862E+02 -0.27403204275E+02 -0.17720456805E+02  0.37941484512E+02  0.47000000000E+01 0. -1.
         -5    1    1    2    0  502 -0.24449182623E+01  0.12111993726E+03 -0.12851338811E+03  0.17667427020E+03  0.47000000000E+01 0. -1.
        -11    1    3    3    0    0 -0.48817849503E+02 -0.59391512796E+02 -0.69356310723E+02  0.10354145092E+03  0.00000000000E+00 0. -1.
         11    1    3    3    0    0  0.32487356903E+02 -0.34325220191E+02 -0.39053969683E+01  0.47422581384E+02  0.00000000000E+00 0.  1.
<mgrwt>
<rscale>  0 0.15039737E+03</rscale>
<asrwt>0</asrwt>
<pdfrwt beam="2">  1        1 0.45005795E-01 0.15708464E+03</pdfrwt>
<pdfrwt beam="1">  1       -1 0.11237249E-01 0.15708464E+03</pdfrwt>
<totfact> 0.44514592E+03</totfact>
</mgrwt>
</event>
<event>
 7    1  0.1330601E-005  0.1396818E+03  0.7546771E-02  0.1224871E+00
          1   -1    0    0  501    0  0.00000000000E+00  0.00000000000E+00  0.11136421783E+03  0.11136421783E+03  0.00000000000E+00 0. -1.
         -1   -1    0    0    0  501 -0.00000000000E+00 -0.00000000000E+00 -0.14863870728E+03  0.14863870728E+03  0.00000000000E+00 0.  1.
         23    2    1    2    0    0 -0.42775927848E+02 -0.45361038521E+02  0.13450943062E+02  0.11139580736E+03  0.91327401190E+02 0.  0.
          5    1    1    2  502    0  0.42769613935E+02  0.13390854259E+02  0.34958269316E+02  0.57032670002E+02  0.47000000000E+01 0. -1.
         -5    1    1    2    0  502  0.63139130559E-02  0.31970184262E+02 -0.85683701831E+02  0.91574447752E+02  0.47000000000E+01 0. -1.
        -11    1    3    3    0    0 -0.33325282482E+02 -0.60568496986E+02  0.39626051257E+02  0.79682753579E+02  0.00000000000E+00 0. -1.
         11    1    3    3    0    0 -0.94506453663E+01  0.15207458465E+02 -0.26175108196E+02  0.31713053777E+02  0.00000000000E+00 0.  1.
<mgrwt>
<rscale>  0 0.13175732E+03</rscale>
<asrwt>0</asrwt>
<pdfrwt beam="1">  1        1 0.17132957E-01 0.13968180E+03</pdfrwt>
<pdfrwt beam="2">  1       -1 0.22867493E-01 0.13968180E+03</pdfrwt>
<totfact> 0.48353426E+03</totfact>
</mgrwt>
</event>
<event>
 7    1  0.1330601E-005  0.2234422E+03  0.7546771E-02  0.1131342E+00
          1   -1    0    0  501    0  0.00000000000E+00  0.00000000000E+00  0.50755395574E+02  0.50755395574E+02  0.00000000000E+00 0. -1.
         -1   -1    0    0    0  501 -0.00000000000E+00 -0.00000000000E+00 -0.24591672801E+03  0.24591672801E+03  0.00000000000E+00 0.  1.
         23    2    1    2    0    0  0.15047168353E+02  0.19339217559E+02 -0.62901270598E+02  0.11304403273E+03  0.90675028985E+02 0.  0.
          5    1    1    2  502    0 -0.21708730879E+02 -0.67215110844E+02 -0.10852823000E+03  0.12957471524E+03  0.47000000000E+01 0.  1.
         -5    1    1    2    0  502  0.66615625266E+01  0.47875893286E+02 -0.23731831836E+02  0.54053375616E+02  0.47000000000E+01 0.  1.
        -11    1    3    3    0    0 -0.52475107536E+01 -0.34363724880E+02 -0.13452613807E+02  0.37274317901E+02  0.00000000000E+00 0. -1.
         11    1    3    3    0    0  0.20294679106E+02  0.53702942439E+02 -0.49448656791E+02  0.75769714827E+02  0.00000000000E+00 0.  1.
<mgrwt>
<rscale>  0 0.22344217E+03</rscale>
<asrwt>0</asrwt>
<pdfrwt beam="1">  1        1 0.78085224E-02 0.22344217E+03</pdfrwt>
<pdfrwt beam="2">  1       -1 0.37833343E-01 0.22344217E+03</pdfrwt>
<totfact> 0.60181426E+03</totfact>
</mgrwt>
</event>
<event>
 7    1  0.1330601E-005  0.1272208E+03  0.7546771E-02  0.1246959E+00
          2   -1    0    0  501    0  0.00000000000E+00  0.00000000000E+00  0.13564113744E+03  0.13564113744E+03  0.00000000000E+00 0. -1.
         -2   -1    0    0    0  501 -0.00000000000E+00 -0.00000000000E+00 -0.11428984251E+03  0.11428984251E+03  0.00000000000E+00 0.  1.
         23    2    1    2    0    0  0.11694823016E+02  0.20625712857E+02  0.67011116439E+02  0.11476461206E+03  0.90101262695E+02 0.  0.
          5    1    1    2  502    0  0.45227743042E+02  0.26804773099E+02 -0.22668457996E+02  0.57445570669E+02  0.47000000000E+01 0.  1.
         -5    1    1    2    0  502 -0.56922566058E+02 -0.47430485956E+02 -0.22991363518E+02  0.77720797223E+02  0.47000000000E+01 0.  1.
        -11    1    3    3    0    0  0.22108137674E+02  0.33413318254E+02 -0.54647955217E+01  0.40436166711E+02  0.00000000000E+00 0.  1.
         11    1    3    3    0    0 -0.10413314658E+02 -0.12787605397E+02  0.72475911960E+02  0.74328445352E+02  0.00000000000E+00 0. -1.
<mgrwt>
<rscale>  0 0.11768908E+03</rscale>
<asrwt>0</asrwt>
<pdfrwt beam="1">  1        2 0.20867867E-01 0.12722078E+03</pdfrwt>
<pdfrwt beam="2">  1       -2 0.17583053E-01 0.12722078E+03</pdfrwt>
<totfact> 0.65433942E+03</totfact>
</mgrwt>
</event>
<event>
 7    1  0.1330601E-005  0.1751625E+03  0.7546771E-02  0.1179102E+00
         -1   -1    0    0    0  501 -0.00000000000E+00  0.00000000000E+00  0.23352048400E+02  0.23352048400E+02  0.00000000000E+00 0.  1.
          1   -1    0    0  501    0  0.00000000000E+00 -0.00000000000E+00 -0.11416785376E+04  0.11416785376E+04  0.00000000000E+00 0. -1.
         23    2    1    2    0    0  0.78398228278E+01  0.12256364364E+03 -0.54380085501E+03  0.56439624522E+03  0.87979782560E+02 0.  0.
          5    1    1    2  502    0  0.29820027797E+02  0.13943122489E+02 -0.12163247297E+03  0.12609596822E+03  0.47000000000E+01 0. -1.
         -5    1    1    2    0  502 -0.37659850625E+02 -0.13650676613E+03 -0.45289316121E+03  0.47453837255E+03  0.47000000000E+01 0. -1.
        -11    1    3    3    0    0  0.46389504637E+02  0.54679588072E+02 -0.22360965412E+03  0.23482572455E+03  0.00000000000E+00 0. -1.
         11    1    3    3    0    0 -0.38549681809E+02  0.67884055569E+02 -0.32019120089E+03  0.32957052067E+03  0.00000000000E+00 0.  1.
<mgrwt>
<rscale>  0 0.16880265E+03</rscale>
<asrwt>0</asrwt>
<pdfrwt beam="2">  1        1 0.17564288E+00 0.17516252E+03</pdfrwt>
<pdfrwt beam="1">  1       -1 0.35926223E-02 0.17516252E+03</pdfrwt>
<totfact> 0.36007377E+03</totfact>
</mgrwt>
</event>
<event>
 7    1  0.1330601E-005  0.1832468E+03  0.7546771E-02  0.1169394E+00
         -1   -1    0    0    0  501 -0.00000000000E+00  0.00000000000E+00  0.93649601365E+02  0.93649601365E+02  0.00000000000E+00 0.  1.
          1   -1    0    0  501    0  0.00000000000E+00 -0.00000000000E+00 -0.32342794488E+03  0.32342794488E+03  0.00000000000E+00 0. -1.
         23    2    1    2    0    0 -0.15762141658E+02 -0.13306450820E+03 -0.99543814263E+02  0.19226555194E+03  0.95406829174E+02 0.  0.
          5    1    1    2  502    0  0.31692701599E+02  0.19181000241E+02 -0.98631048342E+02  0.10546331970E+03  0.47000000000E+01 0. -1.
         -5    1    1    2    0  502 -0.15930559941E+02  0.11388350796E+03 -0.31603480909E+02  0.11934867461E+03  0.47000000000E+01 0. -1.
        -11    1    3    3    0    0  0.22728772636E+02 -0.89843382474E+02 -0.97262959247E+02  0.13434475696E+03  0.00000000000E+00 0. -1.
         11    1    3    3    0    0 -0.38490914294E+02 -0.43221125723E+02 -0.22808550161E+01  0.57920794984E+02  0.00000000000E+00 0.  1.
<mgrwt>
<rscale>  0 0.17836615E+03</rscale>
<asrwt>0</asrwt>
<pdfrwt beam="2">  1        1 0.49758145E-01 0.18324683E+03</pdfrwt>
<pdfrwt beam="1">  1       -1 0.14407631E-01 0.18324683E+03</pdfrwt>
<totfact> 0.26844394E+03</totfact>
</mgrwt>
</event>
<event>
 7    1  0.1330601E-005  0.1699545E+03  0.7546771E-02  0.1184263E+00
          3   -1    0    0  501    0  0.00000000000E+00  0.00000000000E+00  0.26054100356E+03  0.26054100356E+03  0.00000000000E+00 0. -1.
         -3   -1    0    0    0  501 -0.00000000000E+00 -0.00000000000E+00 -0.10493244628E+03  0.10493244628E+03  0.00000000000E+00 0.  1.
         23    2    1    2    0    0 -0.37283970650E+02 -0.10891849251E+03  0.12408590960E+03  0.19262026922E+03  0.91934338927E+02 0.  0.
          5    1    1    2  502    0  0.67779212711E+02  0.13677584480E+02  0.61733933923E+01  0.69579442214E+02  0.47000000000E+01 0. -1.
         -5    1    1    2    0  502 -0.30495242061E+02  0.95240908031E+02  0.25349254288E+02  0.10327373840E+03  0.47000000000E+01 0. -1.
        -11    1    3    3    0    0 -0.35501804227E+02 -0.67562797808E+02  0.13005708883E+03  0.15079773243E+03  0.00000000000E+00 0. -1.
         11    1    3    3    0    0 -0.17821664232E+01 -0.41355694703E+02 -0.59711792360E+01  0.41822536783E+02  0.00000000000E+00 0.  1.
<mgrwt>
<rscale>  0 0.16399106E+03</rscale>
<asrwt>0</asrwt>
<pdfrwt beam="1">  1        3 0.40083231E-01 0.16995454E+03</pdfrwt>
<pdfrwt beam="2">  1       -3 0.16143453E-01 0.16995454E+03</pdfrwt>
<totfact> 0.48381563E+02</totfact>
</mgrwt>
</event>
<event>
 6    1  0.1330601E-005  0.4790035E+03  0.7546771E-02  0.1019409E+00
          1   -1    0    0  501    0  0.00000000000E+00  0.00000000000E+00  0.40466037978E+03  0.40466037978E+03  0.00000000000E+00 0. -1.
         -1   -1    0    0    0  501 -0.00000000000E+00 -0.00000000000E+00 -0.14175119475E+03  0.14175119475E+03  0.00000000000E+00 0.  1.
          5    1    1    2  502    0  0.51397734500E+02  0.28722597355E+01  0.71601056786E+02  0.88310691995E+02  0.47000000000E+01 0. -1.
         -5    1    1    2    0  502  0.57436014795E+02  0.14853876604E+03  0.49922679824E+02  0.16696414218E+03  0.47000000000E+01 0. -1.
        -11    1    1    2    0    0  0.20289840912E+02 -0.11640875657E+03  0.45866934519E+02  0.12675350857E+03  0.00000000000E+00 0.  1.
         11    1    1    2    0    0 -0.12912359021E+03 -0.35002269200E+02  0.95518513902E+02  0.16438323179E+03  0.00000000000E+00 0. -1.
<mgrwt>
<rscale>  0 0.47900352E+03</rscale>
<asrwt>0</asrwt>
<pdfrwt beam="1">  1        1 0.62255443E-01 0.47900352E+03</pdfrwt>
<pdfrwt beam="2">  1       -1 0.21807876E-01 0.47900352E+03</pdfrwt>
<totfact> 0.10464919E+03</totfact>
</mgrwt>
</event>
<event>
 7    1  0.1330601E-005  0.1455917E+03  0.7546771E-02  0.1214547E+00
          1   -1    0    0  501    0  0.00000000000E+00  0.00000000000E+00  0.36325698173E+03  0.36325698173E+03  0.00000000000E+00 0. -1.
         -1   -1    0    0    0  501 -0.00000000000E+00 -0.00000000000E+00 -0.51249519218E+02  0.51249519218E+02  0.00000000000E+00 0.  1.
         23    2    1    2    0    0  0.37040078375E+02 -0.64814025346E+02  0.18543254908E+03  0.22158640248E+03  0.95616307282E+02 0.  0.
          5    1    1    2  502    0  0.85269064163E+01  0.83822290792E+02  0.11385719311E+03  0.14171956460E+03  0.47000000000E+01 0.  1.
         -5    1    1    2    0  502 -0.45566984791E+02 -0.19008265445E+02  0.12717720316E+02  0.51200533867E+02  0.47000000000E+01 0.  1.
        -11    1    3    3    0    0 -0.17137723038E+02 -0.25351966956E+02  0.75838201972E+01  0.31526783982E+02  0.00000000000E+00 0.  1.
         11    1    3    3    0    0  0.54177801413E+02 -0.39462058390E+02  0.17784872889E+03  0.19005961850E+03  0.00000000000E+00 0. -1.
<mgrwt>
<rscale>  0 0.13909891E+03</rscale>
<asrwt>0</asrwt>
<pdfrwt beam="1">  1        1 0.55885688E-01 0.14559174E+03</pdfrwt>
<pdfrwt beam="2">  1       -1 0.78845416E-02 0.14559174E+03</pdfrwt>
<totfact> 0.58100631E+03</totfact>
</mgrwt>
</event>
<event>
 7    1  0.1330601E-005  0.2572889E+03  0.7546771E-02  0.1110932E+00
          4   -1    0    0  501    0  0.00000000000E+00  0.00000000000E+00  0.74976769119E+03  0.74976769119E+03  0.00000000000E+00 0. -1.
         -4   -1    0    0    0  501 -0.00000000000E+00 -0.00000000000E+00 -0.17887912391E+03  0.17887912391E+03  0.00000000000E+00 0.  1.
         23    2    1    2    0    0 -0.18837528589E+03 -0.12280874512E+03  0.62051861498E+03  0.66661488002E+03  0.93620566726E+02 0.  0.
          5    1    1    2  502    0  0.50134348942E+02  0.70080708581E+02  0.33132109007E+02  0.92436926097E+02  0.47000000000E+01 0. -1.
         -5    1    1    2    0  502  0.13824093695E+03  0.52728036539E+02 -0.82762156711E+02  0.16959500897E+03  0.47000000000E+01 0. -1.
        -11    1    3    3    0    0 -0.16659445101E+03 -0.92856928088E+02  0.40162821264E+03  0.44461369905E+03  0.00000000000E+00 0.  1.
         11    1    3    3    0    0 -0.21780834880E+02 -0.29951817033E+02  0.21889040235E+03  0.22200118097E+03  0.00000000000E+00 0. -1.
<mgrwt>
<rscale>  0 0.25379145E+03</rscale>
<asrwt>0</asrwt>
<pdfrwt beam="1">  1        4 0.11534887E+00 0.25728893E+03</pdfrwt>
<pdfrwt beam="2">  1       -4 0.27519866E-01 0.25728893E+03</pdfrwt>
<totfact> 0.13841434E+01</totfact>
</mgrwt>
</event>
<event>
 7    1  0.1330601E-005  0.1250401E+03  0.7546771E-02  0.1249891E+00
          1   -1    0    0  501    0  0.00000000000E+00  0.00000000000E+00  0.40888215991E+03  0.40888215991E+03  0.00000000000E+00 0. -1.
         -1   -1    0    0    0  501 -0.00000000000E+00 -0.00000000000E+00 -0.29434429223E+02  0.29434429223E+02  0.00000000000E+00 0.  1.
         23    2    1    2    0    0  0.31564799749E+01  0.44035693478E-02  0.18985458423E+03  0.21120298843E+03  0.92476893248E+02 0.  0.
          5    1    1    2  502    0  0.19912658922E+02  0.15096439066E+02  0.19663406376E+03  0.19827118169E+03  0.47000000000E+01 0.  1.
         -5    1    1    2    0  502 -0.23069138897E+02 -0.15100842635E+02 -0.70409173043E+01  0.28842419008E+02  0.47000000000E+01 0.  1.
        -11    1    3    3    0    0 -0.18039087739E+02  0.36859245280E+02  0.48184613672E+02  0.63291149806E+02  0.00000000000E+00 0.  1.
         11    1    3    3    0    0  0.21195567713E+02 -0.36854841711E+02  0.14166997056E+03  0.14791183863E+03  0.00000000000E+00 0. -1.
<mgrwt>
<rscale>  0 0.11597343E+03</rscale>
<asrwt>0</asrwt>
<pdfrwt beam="1">  1        1 0.62904943E-01 0.12504010E+03</pdfrwt>
<pdfrwt beam="2">  1       -1 0.45283740E-02 0.12504010E+03</pdfrwt>
<totfact> 0.11321494E+04</totfact>
</mgrwt>
</event>
<event>
 7    1  0.1330601E-005  0.1286274E+03  0.7546771E-02  0.1256275E+00
          1   -1    0    0  501    0  0.00000000000E+00  0.00000000000E+00  0.33328107568E+03  0.33328107568E+03  0.00000000000E+00 0. -1.
         -1   -1    0    0    0  501 -0.00000000000E+00 -0.00000000000E+00 -0.38121909342E+02  0.38121909342E+02  0.00000000000E+00 0.  1.
         23    2    1    2    0    0 -0.27227860042E+02  0.13493398210E+02  0.19341174494E+03  0.20739823395E+03  0.68428767392E+02 0.  0.
          5    1    1    2  502    0  0.24857021336E+02 -0.12543010122E+02  0.13113183278E+03  0.13413741529E+03  0.47000000000E+01 0.  1.
         -5    1    1    2    0  502  0.23708387055E+01 -0.95038808774E+00 -0.29384411389E+02  0.29867335776E+02  0.47000000000E+01 0.  1.
        -11    1    3    3    0    0 -0.48170555944E+02 -0.28396685328E+01  0.12073884433E+03  0.13002436198E+03  0.00000000000E+00 0. -1.
         11    1    3    3    0    0  0.20942695903E+02  0.16333066743E+02  0.72672900610E+02  0.77373871972E+02  0.00000000000E+00 0.  1.
<mgrwt>
<rscale>  0 0.11235209E+03</rscale>
<asrwt>0</asrwt>
<pdfrwt beam="1">  1        1 0.51274010E-01 0.12862745E+03</pdfrwt>
<pdfrwt beam="2">  1       -1 0.58649094E-02 0.12862745E+03</pdfrwt>
<totfact> 0.99943030E+03</totfact>
</mgrwt>
</event>
<event>
 7    1  0.1330601E-005  0.1515051E+03  0.7546771E-02  0.1206886E+00
          2   -1    0    0  501    0  0.00000000000E+00  0.00000000000E+00  0.92756236725E+03  0.92756236725E+03  0.00000000000E+00 0.  1.
         -2   -1    0    0    0  501 -0.00000000000E+00 -0.00000000000E+00 -0.21388293034E+02  0.21388293034E+02  0.00000000000E+00 0. -1.
         23    2    1    2    0    0  0.85339252796E+02  0.69052739593E+01  0.48740532806E+03  0.50361811841E+03  0.93470768117E+02 0.  0.
          5    1    1    2  502    0 -0.36630963337E+01 -0.55327977992E+02  0.13326721662E+03  0.14441898922E+03  0.47000000000E+01 0.  1.
         -5    1    1    2    0  502 -0.81676156463E+02  0.48422704033E+02  0.28550152954E+03  0.30091355265E+03  0.47000000000E+01 0.  1.
        -11    1    3    3    0    0  0.76800062089E+02 -0.34043754752E+02  0.35275449107E+03  0.36261957717E+03  0.00000000000E+00 0.  1.
         11    1    3    3    0    0  0.85391907077E+01  0.40949028712E+02  0.13465083698E+03  0.14099854124E+03  0.00000000000E+00 0. -1.
<mgrwt>
<rscale>  0 0.14489829E+03</rscale>
<asrwt>0</asrwt>
<pdfrwt beam="1">  1        2 0.14270187E+00 0.15150515E+03</pdfrwt>
<pdfrwt beam="2">  1       -2 0.32905073E-02 0.15150515E+03</pdfrwt>
<totfact> 0.10413251E+04</totfact>
</mgrwt>
</event>
<event>
 7    1  0.1330601E-005  0.1663713E+03  0.7546771E-02  0.1188501E+00
         -2   -1    0    0    0  501 -0.00000000000E+00  0.00000000000E+00  0.80488561333E+02  0.80488561333E+02  0.00000000000E+00 0.  1.
          2   -1    0    0  501    0  0.00000000000E+00 -0.00000000000E+00 -0.61326140098E+03  0.61326140098E+03  0.00000000000E+00 0. -1.
         23    2    1    2    0    0  0.10962257760E+03 -0.60316052807E+01 -0.50529968796E+03  0.52512557196E+03  0.91518314502E+02 0.  0.
          5    1    1    2  502    0 -0.56664165522E+02  0.65220918423E+02 -0.93906076987E+01  0.87033725459E+02  0.47000000000E+01 0.  1.
         -5    1    1    2    0  502 -0.52958412081E+02 -0.59189313143E+02 -0.18082543982E+02  0.81590664891E+02  0.47000000000E+01 0.  1.
        -11    1    3    3    0    0  0.42408744787E+02  0.42487982407E+02 -0.21064673591E+03  0.21903373629E+03  0.00000000000E+00 0.  1.
         11    1    3    3    0    0  0.67213832816E+02 -0.48519587687E+02 -0.29465295205E+03  0.30609183567E+03  0.00000000000E+00 0. -1.
<mgrwt>
<rscale>  0 0.16017324E+03</rscale>
<asrwt>0</asrwt>
<pdfrwt beam="2">  1        2 0.94347906E-01 0.16637130E+03</pdfrwt>
<pdfrwt beam="1">  1       -2 0.12382856E-01 0.16637130E+03</pdfrwt>
<totfact> 0.22806000E+03</totfact>
</mgrwt>
</event>
<event>
 7    1  0.1330601E-005  0.2163327E+03  0.7546771E-02  0.1142653E+00
          2   -1    0    0  501    0  0.00000000000E+00  0.00000000000E+00  0.35089806480E+03  0.35089806480E+03  0.00000000000E+00 0. -1.
         -2   -1    0    0    0  501 -0.00000000000E+00 -0.00000000000E+00 -0.11779208108E+03  0.11779208108E+03  0.00000000000E+00 0.  1.
         23    2    1    2    0    0 -0.21805720655E+02  0.17522001375E+03  0.13723376084E+03  0.23206530571E+03  0.61997244520E+02 0.  0.
          5    1    1    2  502    0 -0.19616439903E+02 -0.74642975587E+02  0.10151086925E+03  0.12760456534E+03  0.47000000000E+01 0. -1.
         -5    1    1    2    0  502  0.41422160559E+02 -0.10057703817E+03 -0.56386463722E+01  0.10902027483E+03  0.47000000000E+01 0. -1.
        -11    1    3    3    0    0 -0.32412344412E+02  0.88330656968E+02  0.43003912512E+02  0.10345144524E+03  0.00000000000E+00 0.  1.
         11    1    3    3    0    0  0.10606623757E+02  0.86889356784E+02  0.94229848323E+02  0.12861386047E+03  0.00000000000E+00 0. -1.
<mgrwt>
<rscale>  0 0.20863299E+03</rscale>
<asrwt>0</asrwt>
<pdfrwt beam="1">  1        2 0.53984317E-01 0.21633269E+03</pdfrwt>
<pdfrwt beam="2">  1       -2 0.18121859E-01 0.21633269E+03</pdfrwt>
<totfact> 0.22732633E+03</totfact>
</mgrwt>
</event>
<event>
 7    1  0.1330601E-005  0.2064255E+03  0.7546771E-02  0.1148737E+00
         -2   -1    0    0    0  501 -0.00000000000E+00  0.00000000000E+00  0.51892178959E+02  0.51892178959E+02  0.00000000000E+00 0.  1.
          2   -1    0    0  501    0  0.00000000000E+00 -0.00000000000E+00 -0.10738843583E+04  0.10738843583E+04  0.00000000000E+00 0. -1.
         23    2    1    2    0    0  0.14285372519E+03  0.81098882736E+02 -0.80504324141E+03  0.82631314936E+03  0.87832708542E+02 0.  0.
          5    1    1    2  502    0 -0.19938271746E+02  0.32860680840E+02 -0.42393486950E+02  0.57416519933E+02  0.47000000000E+01 0. -1.
         -5    1    1    2    0  502 -0.12291545344E+03 -0.11395956358E+03 -0.17455545099E+03  0.24204686797E+03  0.47000000000E+01 0. -1.
        -11    1    3    3    0    0  0.10925572743E+03  0.12608946388E+02 -0.47149203183E+03  0.48414929059E+03  0.00000000000E+00 0. -1.
         11    1    3    3    0    0  0.33597997755E+02  0.68489936347E+02 -0.33355120958E+03  0.34216385877E+03  0.00000000000E+00 0.  1.
<mgrwt>
<rscale>  0 0.20119250E+03</rscale>
<asrwt>0</asrwt>
<pdfrwt beam="2">  1        2 0.16521298E+00 0.20642548E+03</pdfrwt>
<pdfrwt beam="1">  1       -2 0.79834122E-02 0.20642548E+03</pdfrwt>
<totfact> 0.22396384E+03</totfact>
</mgrwt>
</event>
<event>
 7    1  0.1330601E-005  0.1374610E+03  0.7546771E-02  0.1227860E+00
          1   -1    0    0  501    0  0.00000000000E+00  0.00000000000E+00  0.12539522705E+03  0.12539522705E+03  0.00000000000E+00 0.  1.
         -1   -1    0    0    0  501 -0.00000000000E+00 -0.00000000000E+00 -0.12514750759E+03  0.12514750759E+03  0.00000000000E+00 0. -1.
         23    2    1    2    0    0  0.35285548672E+02 -0.44935312906E+02  0.22369384053E+02  0.11131308782E+03  0.92876056578E+02 0.  0.
          5    1    1    2  502    0 -0.37942093578E+02  0.54069298707E+02  0.39229070535E+02  0.76968185004E+02  0.47000000000E+01 0. -1.
         -5    1    1    2    0  502  0.26565449058E+01 -0.91339858010E+01 -0.61350735127E+02  0.62261461821E+02  0.47000000000E+01 0. -1.
        -11    1    3    3    0    0  0.42734922179E+02 -0.10980607749E+02  0.50162121922E+02  0.66806330508E+02  0.00000000000E+00 0.  1.
         11    1    3    3    0    0 -0.74493735066E+01 -0.33954705157E+02 -0.27792737869E+02  0.44506757310E+02  0.00000000000E+00 0. -1.
<mgrwt>
<rscale>  0 0.12972788E+03</rscale>
<asrwt>0</asrwt>
<pdfrwt beam="1">  1        1 0.19291573E-01 0.13746100E+03</pdfrwt>
<pdfrwt beam="2">  1       -1 0.19253463E-01 0.13746100E+03</pdfrwt>
<totfact> 0.54780941E+03</totfact>
</mgrwt>
</event>
<event>
 7    1  0.1330601E-005  0.1691495E+03  0.7546771E-02  0.1185342E+00
         -2   -1    0    0    0  501 -0.00000000000E+00  0.00000000000E+00  0.74277458758E+02  0.74277458758E+02  0.00000000000E+00 0.  1.
          2   -1    0    0  501    0  0.00000000000E+00 -0.00000000000E+00 -0.39747581018E+03  0.39747581018E+03  0.00000000000E+00 0. -1.
         23    2    1    2    0    0  0.11180534901E+03 -0.22053781957E+02 -0.24557976153E+03  0.28564520544E+03  0.91087643254E+02 0.  0.
          5    1    1    2  502    0 -0.94774308333E+01 -0.45202462976E+02 -0.25237569139E+02  0.52840413041E+02  0.47000000000E+01 0.  1.
         -5    1    1    2    0  502 -0.10232791818E+03  0.67256244933E+02 -0.52381020751E+02  0.13326765045E+03  0.47000000000E+01 0.  1.
        -11    1    3    3    0    0  0.51958112103E+02 -0.14660932877E+02 -0.20731054874E+03  0.21422476978E+03  0.00000000000E+00 0. -1.
         11    1    3    3    0    0  0.59847236911E+02 -0.73928490800E+01 -0.38269212784E+02  0.71420435664E+02  0.00000000000E+00 0.  1.
<mgrwt>
<rscale>  0 0.16300809E+03</rscale>
<asrwt>0</asrwt>
<pdfrwt beam="2">  1        2 0.61150123E-01 0.16914954E+03</pdfrwt>
<pdfrwt beam="1">  1       -2 0.11427302E-01 0.16914954E+03</pdfrwt>
<totfact> 0.41962631E+03</totfact>
</mgrwt>
</event>
<event>
 7    1  0.1330601E-005  0.1267641E+03  0.7546771E-02  0.1247976E+00
          1   -1    0    0  501    0  0.00000000000E+00  0.00000000000E+00  0.24240093473E+03  0.24240093473E+03  0.00000000000E+00 0. -1.
         -1   -1    0    0    0  501 -0.00000000000E+00 -0.00000000000E+00 -0.49499095236E+02  0.49499095236E+02  0.00000000000E+00 0.  1.
         23    2    1    2    0    0 -0.21076821792E+02 -0.13185224446E+01  0.83869910485E+02  0.12469629846E+03  0.89827802194E+02 0.  0.
          5    1    1    2  502    0 -0.12650587818E+02  0.10659919607E+02 -0.24022213241E+02  0.29543662386E+02  0.47000000000E+01 0. -1.
         -5    1    1    2    0  502  0.33727409609E+02 -0.93413971619E+01  0.13305414225E+03  0.13766006912E+03  0.47000000000E+01 0. -1.
        -11    1    3    3    0    0 -0.99650359512E+01  0.33049885750E+02  0.81487775124E+02  0.88497764855E+02  0.00000000000E+00 0.  1.
         11    1    3    3    0    0 -0.11111785840E+02 -0.34368408195E+02  0.23821353606E+01  0.36198533607E+02  0.00000000000E+00 0. -1.
<mgrwt>
<rscale>  0 0.11709011E+03</rscale>
<asrwt>0</asrwt>
<pdfrwt beam="1">  1        1 0.37292451E-01 0.12676406E+03</pdfrwt>
<pdfrwt beam="2">  1       -1 0.76152456E-02 0.12676406E+03</pdfrwt>
<totfact> 0.10013623E+04</totfact>
</mgrwt>
</event>
<event>
 7    1  0.1330601E-005  0.1452234E+03  0.7546771E-02  0.1216597E+00
          2   -1    0    0  501    0  0.00000000000E+00  0.00000000000E+00  0.12609159368E+04  0.12609159368E+04  0.00000000000E+00 0. -1.
         -2   -1    0    0    0  501 -0.00000000000E+00 -0.00000000000E+00 -0.13666950998E+02  0.13666950998E+02  0.00000000000E+00 0.  1.
         23    2    1    2    0    0  0.63164167213E+02 -0.38547761231E+02  0.58608128633E+03  0.59765410877E+03  0.90683612845E+02 0.  0.
          5    1    1    2  502    0 -0.64617472090E+02  0.26933659864E+02  0.66058660372E+03  0.66430233384E+03  0.47000000000E+01 0.  1.
         -5    1    1    2    0  502  0.14533048764E+01  0.11614101367E+02  0.58109575637E+00  0.12626445181E+02  0.47000000000E+01 0.  1.
        -11    1    3    3    0    0  0.84147307304E+02 -0.15178718681E+02  0.44086821156E+03  0.44908344747E+03  0.00000000000E+00 0.  1.
         11    1    3    3    0    0 -0.20983140090E+02 -0.23369042550E+02  0.14521307477E+03  0.14857066131E+03  0.00000000000E+00 0. -1.
<mgrwt>
<rscale>  0 0.13759868E+03</rscale>
<asrwt>0</asrwt>
<pdfrwt beam="1">  1        2 0.19398698E+00 0.14522343E+03</pdfrwt>
<pdfrwt beam="2">  1       -2 0.21026088E-02 0.14522343E+03</pdfrwt>
<totfact> 0.12852100E+04</totfact>
</mgrwt>
</event>
<event>
 7    1  0.1330601E-005  0.1268833E+03  0.7546771E-02  0.1243435E+00
         -1   -1    0    0    0  501 -0.00000000000E+00  0.00000000000E+00  0.17255032859E+03  0.17255032859E+03  0.00000000000E+00 0.  1.
          1   -1    0    0  501    0  0.00000000000E+00 -0.00000000000E+00 -0.77474480216E+02  0.77474480216E+02  0.00000000000E+00 0. -1.
         23    2    1    2    0    0  0.39260257527E+02 -0.17162592328E+02  0.20614858957E+02  0.10290642916E+03  0.91262469589E+02 0.  0.
          5    1    1    2  502    0  0.20895289133E+02  0.14270683203E+02 -0.21628733320E+02  0.33617816884E+02  0.47000000000E+01 0. -1.
         -5    1    1    2    0  502 -0.60155546660E+02  0.28919091246E+01  0.96089722737E+02  0.11350056277E+03  0.47000000000E+01 0.  1.
        -11    1    3    3    0    0  0.23120750166E+02  0.32328762170E+02  0.30272828873E+02  0.49961606456E+02  0.00000000000E+00 0. -1.
         11    1    3    3    0    0  0.16139507361E+02 -0.49491354498E+02 -0.96579699162E+01  0.52944822700E+02  0.00000000000E+00 0.  1.
<mgrwt>
<rscale>  0 0.11979552E+03</rscale>
<asrwt>0</asrwt>
<pdfrwt beam="2">  1        1 0.11919151E-01 0.12688333E+03</pdfrwt>
<pdfrwt beam="1">  1       -1 0.26546204E-01 0.12688333E+03</pdfrwt>
<totfact> 0.60244113E+03</totfact>
</mgrwt>
</event>
<event>
 7    1  0.1330601E-005  0.1644530E+03  0.7546771E-02  0.1191478E+00
          1   -1    0    0  501    0  0.00000000000E+00  0.00000000000E+00  0.30533820300E+02  0.30533820300E+02  0.00000000000E+00 0. -1.
         -1   -1    0    0    0  501 -0.00000000000E+00 -0.00000000000E+00 -0.76725163854E+03  0.76725163854E+03  0.00000000000E+00 0.  1.
         23    2    1    2    0    0 -0.31545393628E+02 -0.10210070994E+03 -0.39390231400E+03  0.41756545645E+03  0.88216838641E+02 0.  0.
          5    1    1    2  502    0 -0.22579521522E+01  0.11538622409E+03 -0.31082555984E+03  0.33159266835E+03  0.47000000000E+01 0. -1.
         -5    1    1    2    0  502  0.33803345780E+02 -0.13285514157E+02 -0.31989944404E+02  0.48627334035E+02  0.47000000000E+01 0. -1.
        -11    1    3    3    0    0  0.13214401946E+02 -0.72782304401E+02 -0.14276092498E+03  0.16078733145E+03  0.00000000000E+00 0.  1.
         11    1    3    3    0    0 -0.44759795574E+02 -0.29318405534E+02 -0.25114138902E+03  0.25677812500E+03  0.00000000000E+00 0. -1.
<mgrwt>
<rscale>  0 0.15756119E+03</rscale>
<asrwt>0</asrwt>
<pdfrwt beam="1">  1        1 0.46975107E-02 0.16445297E+03</pdfrwt>
<pdfrwt beam="2">  1       -1 0.11803872E+00 0.16445297E+03</pdfrwt>
<totfact> 0.12312287E+03</totfact>
</mgrwt>
</event>
<event>
 7    1  0.1330601E-005  0.1368849E+03  0.7546771E-02  0.1222832E+00
         -1   -1    0    0    0  501 -0.00000000000E+00  0.00000000000E+00  0.46100767321E+02  0.46100767321E+02  0.00000000000E+00 0.  1.
          1   -1    0    0  501    0  0.00000000000E+00 -0.00000000000E+00 -0.36684722357E+03  0.36684722357E+03  0.00000000000E+00 0. -1.
         23    2    1    2    0    0  0.12271863021E+02 -0.54455092039E+02 -0.13756698918E+03  0.18427310847E+03  0.10916018653E+03 0.  0.
          5    1    1    2  502    0  0.37297415078E+02 -0.73759789217E+01 -0.12364762288E+03  0.12944623161E+03  0.47000000000E+01 0.  1.
         -5    1    1    2    0  502 -0.49569278099E+02  0.61831070961E+02 -0.59531844194E+02  0.99228650805E+02  0.47000000000E+01 0.  1.
        -11    1    3    3    0    0 -0.45958972648E+02 -0.36921966213E+02 -0.48055398417E+02  0.76057741703E+02  0.00000000000E+00 0.  1.
         11    1    3    3    0    0  0.58230835669E+02 -0.17533125826E+02 -0.89511590761E+02  0.10821536677E+03  0.00000000000E+00 0. -1.
<mgrwt>
<rscale>  0 0.13316604E+03</rscale>
<asrwt>0</asrwt>
<pdfrwt beam="2">  1        1 0.56438032E-01 0.13688493E+03</pdfrwt>
<pdfrwt beam="1">  1       -1 0.70924260E-02 0.13688493E+03</pdfrwt>
<totfact> 0.67056354E+03</totfact>
</mgrwt>
</event>
<event>
 7    1  0.1330601E-005  0.2003505E+03  0.7546771E-02  0.1153700E+00
          1   -1    0    0  501    0  0.00000000000E+00  0.00000000000E+00  0.14809665327E+03  0.14809665327E+03  0.00000000000E+00 0. -1.
         -1   -1    0    0    0  501 -0.00000000000E+00 -0.00000000000E+00 -0.53151586939E+03  0.53151586939E+03  0.00000000000E+00 0.  1.
         23    2    1    2    0    0  0.79553195207E+02 -0.13485845113E+03  0.61767926264E+02  0.19142002401E+03  0.91163787605E+02 0.  0.
          5    1    1    2  502    0 -0.15697353507E+02  0.38882054094E+02 -0.29899776777E+03  0.30196022283E+03  0.47000000000E+01 0. -1.
         -5    1    1    2    0  502 -0.63855841700E+02  0.95976397032E+02 -0.14618937462E+03  0.18623227582E+03  0.47000000000E+01 0. -1.
        -11    1    3    3    0    0  0.56701456007E+02 -0.51952447583E+02  0.71331938452E+02  0.10489212252E+03  0.00000000000E+00 0. -1.
         11    1    3    3    0    0  0.22851739200E+02 -0.82906003542E+02 -0.95640121881E+01  0.86527901494E+02  0.00000000000E+00 0.  1.
<mgrwt>
<rscale>  0 0.19537575E+03</rscale>
<asrwt>0</asrwt>
<pdfrwt beam="1">  1        1 0.22784100E-01 0.20035050E+03</pdfrwt>
<pdfrwt beam="2">  1       -1 0.81771673E-01 0.20035050E+03</pdfrwt>
<totfact> 0.33856157E+02</totfact>
</mgrwt>
</event>
<event>
 7    1  0.1330601E-005  0.2213473E+03  0.7546771E-02  0.1132883E+00
          1   -1    0    0  501    0  0.00000000000E+00  0.00000000000E+00  0.52007564635E+03  0.52007564635E+03  0.00000000000E+00 0. -1.
         -1   -1    0    0    0  501 -0.00000000000E+00 -0.00000000000E+00 -0.23551675031E+02  0.23551675031E+02  0.00000000000E+00 0.  1.
         23    2    1    2    0    0  0.17936389462E+01  0.24569142242E+01  0.21446369206E+03  0.23510516311E+03  0.96283482183E+02 0.  0.
          5    1    1    2  502    0  0.37269683397E+02  0.48044360063E+02  0.13913624490E+03  0.15191535300E+03  0.47000000000E+01 0. -1.
         -5    1    1    2    0  502 -0.39063322343E+02 -0.50501274287E+02  0.14292403437E+03  0.15660680527E+03  0.47000000000E+01 0. -1.
        -11    1    3    3    0    0 -0.27236208970E+02 -0.14088926482E+02  0.17457891969E+02  0.35285789215E+02  0.00000000000E+00 0.  1.
         11    1    3    3    0    0  0.29029847917E+02  0.16545840707E+02  0.19700580009E+03  0.19981937390E+03  0.00000000000E+00 0. -1.
<mgrwt>
<rscale>  0 0.22134726E+03</rscale>
<asrwt>0</asrwt>
<pdfrwt beam="1">  1        1 0.80011629E-01 0.22134726E+03</pdfrwt>
<pdfrwt beam="2">  1       -1 0.36233350E-02 0.22134726E+03</pdfrwt>
<totfact> 0.11990114E+04</totfact>
</mgrwt>
</event>
<event>
 7    1  0.1330601E-005  0.1708147E+03  0.7546771E-02  0.1179539E+00
          1   -1    0    0  501    0  0.00000000000E+00  0.00000000000E+00  0.91585739692E+02  0.91585739692E+02  0.00000000000E+00 0. -1.
         -1   -1    0    0    0  501 -0.00000000000E+00 -0.00000000000E+00 -0.39443644603E+03  0.39443644603E+03  0.00000000000E+00 0.  1.
         23    2    1    2    0    0  0.24320723380E+01 -0.13006188373E+03 -0.29949464056E+02  0.16407071081E+03  0.95395068912E+02 0.  0.
          5    1    1    2  502    0 -0.46075634120E+02  0.18577869325E+02 -0.64332995379E+02  0.81418214072E+02  0.47000000000E+01 0. -1.
         -5    1    1    2    0  502  0.43643561782E+02  0.11148401441E+03 -0.20856824690E+03  0.24053326084E+03  0.47000000000E+01 0.  1.
        -11    1    3    3    0    0 -0.30561909306E+02 -0.13740855467E+02 -0.27151959673E+02  0.43128532592E+02  0.00000000000E+00 0.  1.
         11    1    3    3    0    0  0.32993981644E+02 -0.11632102827E+03 -0.27975043825E+01  0.12094217822E+03  0.00000000000E+00 0. -1.
<mgrwt>
<rscale>  0 0.16838834E+03</rscale>
<asrwt>0</asrwt>
<pdfrwt beam="1">  1        1 0.14090114E-01 0.17081471E+03</pdfrwt>
<pdfrwt beam="2">  1       -1 0.60682529E-01 0.17081471E+03</pdfrwt>
<totfact> 0.11399025E+03</totfact>
</mgrwt>
</event>
<event>
 7    1  0.1330601E-005  0.6980347E+03  0.7546771E-02  0.1031417E+00
         -2   -1    0    0    0  501 -0.00000000000E+00  0.00000000000E+00  0.24866991248E+03  0.24866991248E+03  0.00000000000E+00 0.  1.
          2   -1    0    0  501    0  0.00000000000E+00 -0.00000000000E+00 -0.92697329296E+03  0.92697329296E+03  0.00000000000E+00 0. -1.
         23    2    1    2    0    0 -0.30268419296E+02 -0.46794149520E+02 -0.41624762631E+03  0.43003900232E+03  0.92550459015E+02 0.  0.
          5    1    1    2  502    0  0.12189098576E+03  0.19783396743E+03 -0.43824421351E+03  0.49606025012E+03  0.47000000000E+01 0. -1.
         -5    1    1    2    0  502 -0.91622566465E+02 -0.15103981791E+03  0.17618845934E+03  0.24954395301E+03  0.47000000000E+01 0.  1.
        -11    1    3    3    0    0  0.16906699784E+02  0.18004767580E+02 -0.14891175067E+03  0.15094607528E+03  0.00000000000E+00 0.  1.
         11    1    3    3    0    0 -0.47175119079E+02 -0.64798917101E+02 -0.26733587564E+03  0.27909292704E+03  0.00000000000E+00 0. -1.
<mgrwt>
<rscale>  0 0.43782281E+03</rscale>
<asrwt>0</asrwt>
<pdfrwt beam="2">  1        2 0.14261128E+00 0.69803468E+03</pdfrwt>
<pdfrwt beam="1">  1       -2 0.38256909E-01 0.69803468E+03</pdfrwt>
<totfact> 0.18387934E+02</totfact>
</mgrwt>
</event>
<event>
 7    1  0.1330601E-005  0.2650992E+03  0.7546771E-02  0.1106064E+00
         -1   -1    0    0    0  501 -0.00000000000E+00  0.00000000000E+00  0.81190910202E+02  0.81190910202E+02  0.00000000000E+00 0.  1.
          1   -1    0    0  501    0  0.00000000000E+00 -0.00000000000E+00 -0.83144516375E+03  0.83144516375E+03  0.00000000000E+00 0. -1.
         23    2    1    2    0    0  0.19332198157E+03  0.13145347730E+03 -0.40939402437E+03  0.48082213593E+03  0.94514834566E+02 0.  0.
          5    1    1    2  502    0 -0.56640342148E+02  0.20675294966E+02 -0.81497945861E+02  0.10148695167E+03  0.47000000000E+01 0.  1.
         -5    1    1    2    0  502 -0.13668163942E+03 -0.15212877227E+03 -0.25936228332E+03  0.33032698636E+03  0.47000000000E+01 0.  1.
        -11    1    3    3    0    0  0.17506242512E+03  0.14457938541E+03 -0.38926700022E+03  0.45064270640E+03  0.00000000000E+00 0.  1.
         11    1    3    3    0    0  0.18259556449E+02 -0.13125908102E+02 -0.20127024149E+02  0.30179429523E+02  0.00000000000E+00 0. -1.
<mgrwt>
<rscale>  0 0.26180436E+03</rscale>
<asrwt>0</asrwt>
<pdfrwt beam="2">  1        1 0.12791464E+00 0.26509919E+03</pdfrwt>
<pdfrwt beam="1">  1       -1 0.12490910E-01 0.26509919E+03</pdfrwt>
<totfact> 0.93483513E+02</totfact>
</mgrwt>
</event>
<event>
 7    1  0.1330601E-005  0.1884700E+03  0.7546771E-02  0.1164744E+00
         -2   -1    0    0    0  501 -0.00000000000E+00  0.00000000000E+00  0.56815764927E+03  0.56815764927E+03  0.00000000000E+00 0.  1.
          2   -1    0    0  501    0  0.00000000000E+00 -0.00000000000E+00 -0.56937421383E+02  0.56937421383E+02  0.00000000000E+00 0. -1.
         23    2    1    2    0    0  0.28524650243E+02  0.13813912006E+03  0.20112446185E+03  0.26221722354E+03  0.91710146690E+02 0.  0.
          5    1    1    2  502    0 -0.20311680873E+02  0.13793584308E+02  0.10217025679E+03  0.10518402312E+03  0.47000000000E+01 0.  1.
         -5    1    1    2    0  502 -0.82129693705E+01 -0.15193270437E+03  0.20792550925E+03  0.25769382398E+03  0.47000000000E+01 0.  1.
        -11    1    3    3    0    0  0.26064172586E+02  0.38057493828E+02  0.13391688730E+03  0.14163843629E+03  0.00000000000E+00 0.  1.
         11    1    3    3    0    0  0.24604776575E+01  0.10008162624E+03  0.67207574547E+02  0.12057878726E+03  0.00000000000E+00 0. -1.
<mgrwt>
<rscale>  0 0.18319689E+03</rscale>
<asrwt>0</asrwt>
<pdfrwt beam="2">  1        2 0.87596037E-02 0.18847002E+03</pdfrwt>
<pdfrwt beam="1">  1       -2 0.87408865E-01 0.18847002E+03</pdfrwt>
<totfact> 0.87456649E+02</totfact>
</mgrwt>
</event>
<event>
 7    1  0.1330601E-005  0.1162654E+03  0.7546771E-02  0.1261009E+00
         -1   -1    0    0    0  501 -0.00000000000E+00  0.00000000000E+00  0.40576279456E+02  0.40576279456E+02  0.00000000000E+00 0.  1.
          1   -1    0    0  501    0  0.00000000000E+00 -0.00000000000E+00 -0.39926366690E+03  0.39926366690E+03  0.00000000000E+00 0. -1.
         23    2    1    2    0    0 -0.10222216108E+01  0.16634858813E+02 -0.29100402343E+03  0.30530857749E+03  0.90841743560E+02 0.  0.
          5    1    1    2  502    0 -0.35839298120E+02  0.13794590404E+02 -0.76474589968E+02  0.85704135985E+02  0.47000000000E+01 0. -1.
         -5    1    1    2    0  502  0.36861519731E+02 -0.30429449217E+02  0.87912259570E+01  0.48827232876E+02  0.47000000000E+01 0.  1.
        -11    1    3    3    0    0  0.49757154527E+01 -0.37246074887E+02 -0.13606931686E+03  0.14116262547E+03  0.00000000000E+00 0. -1.
         11    1    3    3    0    0 -0.59979370635E+01  0.53880933700E+02 -0.15493470657E+03  0.16414595202E+03  0.00000000000E+00 0.  1.
<mgrwt>
<rscale>  0 0.10976314E+03</rscale>
<asrwt>0</asrwt>
<pdfrwt beam="2">  1        1 0.61425181E-01 0.11626544E+03</pdfrwt>
<pdfrwt beam="1">  1       -1 0.62425044E-02 0.11626544E+03</pdfrwt>
<totfact> 0.72195554E+03</totfact>
</mgrwt>
</event>
<event>
 7    1  0.1330601E-005  0.1688155E+03  0.7546771E-02  0.1185461E+00
          1   -1    0    0  501    0  0.00000000000E+00  0.00000000000E+00  0.11918413908E+03  0.11918413908E+03  0.00000000000E+00 0. -1.
         -1   -1    0    0    0  501 -0.00000000000E+00 -0.00000000000E+00 -0.21260702395E+03  0.21260702395E+03  0.00000000000E+00 0.  1.
         23    2    1    2    0    0 -0.56472750351E+02 -0.98409587989E+02 -0.66795394681E+02  0.16088858773E+03  0.92465638867E+02 0.  0.
          5    1    1    2  502    0 -0.20966447281E+02 -0.19085293525E+01 -0.37875270549E+02  0.43587389403E+02  0.47000000000E+01 0. -1.
         -5    1    1    2    0  502  0.77439197632E+02  0.10031811734E+03  0.11247780366E+02  0.12731518590E+03  0.47000000000E+01 0. -1.
        -11    1    3    3    0    0  0.28186738244E+01 -0.12308808946E+02 -0.54129800374E+02  0.55583153818E+02  0.00000000000E+00 0.  1.
         11    1    3    3    0    0 -0.59291424176E+02 -0.86100779043E+02 -0.12665594307E+02  0.10530543391E+03  0.00000000000E+00 0. -1.
<mgrwt>
<rscale>  0 0.16289980E+03</rscale>
<asrwt>0</asrwt>
<pdfrwt beam="1">  1        1 0.18336022E-01 0.16881548E+03</pdfrwt>
<pdfrwt beam="2">  1       -1 0.32708773E-01 0.16881548E+03</pdfrwt>
<totfact> 0.24643904E+03</totfact>
</mgrwt>
</event>
<event>
 7    1  0.1330601E-005  0.1587648E+03  0.7546771E-02  0.1198240E+00
          2   -1    0    0  501    0  0.00000000000E+00  0.00000000000E+00  0.20532866206E+03  0.20532866206E+03  0.00000000000E+00 0. -1.
         -2   -1    0    0    0  501 -0.00000000000E+00 -0.00000000000E+00 -0.11320981444E+03  0.11320981444E+03  0.00000000000E+00 0.  1.
         23    2    1    2    0    0 -0.75259692215E+02 -0.62580468212E+02  0.88776641982E+02  0.15973848594E+03  0.89748289418E+02 0.  0.
          5    1    1    2  502    0  0.11939375005E+02 -0.32994311288E+02 -0.21471587990E+02  0.41404013618E+02  0.47000000000E+01 0. -1.
         -5    1    1    2    0  502  0.63320317210E+02  0.95574779499E+02  0.24813793633E+02  0.11739597694E+03  0.47000000000E+01 0. -1.
        -11    1    3    3    0    0 -0.40392145717E+02 -0.59025884077E+02  0.83526422843E+01  0.72009353975E+02  0.00000000000E+00 0.  1.
         11    1    3    3    0    0 -0.34867546498E+02 -0.35545841344E+01  0.80423999698E+02  0.87729131961E+02  0.00000000000E+00 0. -1.
<mgrwt>
<rscale>  0 0.15183186E+03</rscale>
<asrwt>0</asrwt>
<pdfrwt beam="1">  1        2 0.31589025E-01 0.15876482E+03</pdfrwt>
<pdfrwt beam="2">  1       -2 0.17416895E-01 0.15876482E+03</pdfrwt>
<totfact> 0.42687447E+03</totfact>
</mgrwt>
</event>
<event>
 7    1  0.1330601E-005  0.1292881E+03  0.7546771E-02  0.1240357E+00
         -1   -1    0    0    0  501 -0.00000000000E+00  0.00000000000E+00  0.47501497043E+02  0.47501497043E+02  0.00000000000E+00 0.  1.
          1   -1    0    0  501    0  0.00000000000E+00 -0.00000000000E+00 -0.34204727873E+03  0.34204727873E+03  0.00000000000E+00 0. -1.
         23    2    1    2    0    0  0.56281941781E+01  0.32502072368E+02 -0.21506979659E+03  0.23778629198E+03  0.95912678882E+02 0.  0.
          5    1    1    2  502    0 -0.31771658845E+02  0.37893420681E+02 -0.12960313138E+02  0.51336238208E+02  0.47000000000E+01 0.  1.
         -5    1    1    2    0  502  0.26143464667E+02 -0.70395493049E+02 -0.66515671962E+02  0.10042624559E+03  0.47000000000E+01 0.  1.
        -11    1    3    3    0    0 -0.37121780904E+02 -0.19528282349E+01 -0.13955106691E+03  0.14441724423E+03  0.00000000000E+00 0. -1.
         11    1    3    3    0    0  0.42749975082E+02  0.34454900603E+02 -0.75518729681E+02  0.93369047750E+02  0.00000000000E+00 0.  1.
<mgrwt>
<rscale>  0 0.12167649E+03</rscale>
<asrwt>0</asrwt>
<pdfrwt beam="2">  1        1 0.52622658E-01 0.12928813E+03</pdfrwt>
<pdfrwt beam="1">  1       -1 0.73079226E-02 0.12928813E+03</pdfrwt>
<totfact> 0.69705762E+03</totfact>
</mgrwt>
</event>
<event>
 7    1  0.1330601E-005  0.3075012E+03  0.7546771E-02  0.1081550E+00
         -2   -1    0    0    0  501 -0.00000000000E+00  0.00000000000E+00  0.27163074189E+02  0.27163074189E+02  0.00000000000E+00 0.  1.
          2   -1    0    0  501    0  0.00000000000E+00 -0.00000000000E+00 -0.87027125699E+03  0.87027125699E+03  0.00000000000E+00 0. -1.
         23    2    1    2    0    0 -0.10977404878E+02 -0.16411316221E+02 -0.42230878971E+03  0.43253214017E+03  0.91375618714E+02 0.  0.
          5    1    1    2  502    0 -0.20872194022E+02 -0.37405269841E+01 -0.42601156662E+03  0.42656486602E+03  0.47000000000E+01 0. -1.
         -5    1    1    2    0  502  0.31849598900E+02  0.20151843205E+02  0.52121735290E+01  0.38337324993E+02  0.47000000000E+01 0.  1.
        -11    1    3    3    0    0  0.39405941750E+02 -0.42270540887E+01 -0.13988779927E+03  0.14539357832E+03  0.00000000000E+00 0.  1.
         11    1    3    3    0    0 -0.50383346628E+02 -0.12184262133E+02 -0.28242099044E+03  0.28713856185E+03  0.00000000000E+00 0. -1.
<mgrwt>
<rscale>  0 0.30750117E+03</rscale>
<asrwt>0</asrwt>
<pdfrwt beam="2">  1        2 0.13388788E+00 0.30750117E+03</pdfrwt>
<pdfrwt beam="1">  1       -2 0.41789348E-02 0.30750117E+03</pdfrwt>
<totfact> 0.81854506E+03</totfact>
</mgrwt>
</event>
<event>
 7    1  0.1330601E-005  0.2330572E+03  0.7546771E-02  0.1145793E+00
         -2   -1    0    0    0  501 -0.00000000000E+00  0.00000000000E+00  0.73259889196E+02  0.73259889196E+02  0.00000000000E+00 0.  1.
          2   -1    0    0  501    0  0.00000000000E+00 -0.00000000000E+00 -0.47401869623E+03  0.47401869623E+03  0.00000000000E+00 0. -1.
         23    2    1    2    0    0  0.36748008452E+02 -0.10078869597E+03 -0.16725967027E+03  0.21737331881E+03  0.88128230853E+02 0.  0.
          5    1    1    2  502    0 -0.78167880539E+01  0.20299855937E+02 -0.24273153704E+03  0.24374961620E+03  0.47000000000E+01 0. -1.
         -5    1    1    2    0  502 -0.28931220398E+02  0.80488840031E+02  0.92324002708E+01  0.86155650412E+02  0.47000000000E+01 0.  1.
        -11    1    3    3    0    0  0.64551453965E+02 -0.58212874687E+02 -0.11815251797E+03  0.14668212737E+03  0.00000000000E+00 0.  1.
         11    1    3    3    0    0 -0.27803445513E+02 -0.42575821281E+02 -0.49107152297E+02  0.70691191438E+02  0.00000000000E+00 0. -1.
<mgrwt>
<rscale>  0 0.20474917E+03</rscale>
<asrwt>0</asrwt>
<pdfrwt beam="2">  1        2 0.72925957E-01 0.23305716E+03</pdfrwt>
<pdfrwt beam="1">  1       -2 0.11270752E-01 0.23305716E+03</pdfrwt>
<totfact> 0.35850325E+03</totfact>
</mgrwt>
</event>
<event>
 7    1  0.1330601E-005  0.1291018E+03  0.7546771E-02  0.1242851E+00
         -2   -1    0    0    0  501 -0.00000000000E+00  0.00000000000E+00  0.37895952227E+03  0.37895952227E+03  0.00000000000E+00 0.  1.
          2   -1    0    0  501    0  0.00000000000E+00 -0.00000000000E+00 -0.33679983839E+02  0.33679983839E+02  0.00000000000E+00 0. -1.
         23    2    1    2    0    0 -0.27809565963E+01  0.32157089742E+02  0.14815689736E+03  0.17700290566E+03  0.91311282092E+02 0.  0.
          5    1    1    2  502    0  0.41593445825E+02 -0.54584513611E+02  0.59935480857E+02  0.91235057557E+02  0.47000000000E+01 0. -1.
         -5    1    1    2    0  502 -0.38812489229E+02  0.22427423869E+02  0.13718716021E+03  0.14440154288E+03  0.47000000000E+01 0. -1.
        -11    1    3    3    0    0 -0.39837249469E+02  0.17585722262E+02  0.31520147927E+02  0.53756709331E+02  0.00000000000E+00 0.  1.
         11    1    3    3    0    0  0.37056292873E+02  0.14571367480E+02  0.11663674944E+03  0.12324619633E+03  0.00000000000E+00 0. -1.
<mgrwt>
<rscale>  0 0.12014951E+03</rscale>
<asrwt>0</asrwt>
<pdfrwt beam="2">  1        2 0.51815362E-02 0.12910179E+03</pdfrwt>
<pdfrwt beam="1">  1       -2 0.58301462E-01 0.12910179E+03</pdfrwt>
<totfact> 0.39906804E+03</totfact>
</mgrwt>
</event>
<event>
 6    1  0.1330601E-005  0.1174240E+03  0.7546771E-02  0.1307359E+00
         -2   -1    0    0    0  501 -0.00000000000E+00  0.00000000000E+00  0.78420762461E+01  0.78420762461E+01  0.00000000000E+00 0.  1.
          2   -1    0    0  501    0  0.00000000000E+00 -0.00000000000E+00 -0.76716777343E+03  0.76716777343E+03  0.00000000000E+00 0. -1.
          5    1    1    2  502    0 -0.10659959140E+02  0.58925480341E+02 -0.26108940213E+03  0.26790971029E+03  0.47000000000E+01 0. -1.
         -5    1    1    2    0  502  0.46136985361E+01 -0.55448322651E+02 -0.33758656796E+03  0.34217332386E+03  0.47000000000E+01 0.  1.
        -11    1    1    2    0    0  0.11953782693E+02  0.14268069470E+02 -0.80239752874E+02  0.82370435645E+02  0.00000000000E+00 0. -1.
         11    1    1    2    0    0 -0.59075220894E+01 -0.17745227160E+02 -0.80409974228E+02  0.82556379884E+02  0.00000000000E+00 0.  1.
<mgrwt>
<rscale>  0 0.88164301E+02</rscale>
<asrwt>0</asrwt>
<pdfrwt beam="2">  1        2 0.11802583E+00 0.11742398E+03</pdfrwt>
<pdfrwt beam="1">  1       -2 0.12064731E-02 0.11742398E+03</pdfrwt>
<totfact> 0.55717388E+04</totfact>
</mgrwt>
</event>
<event>
 7    1  0.1330601E-005  0.1667231E+03  0.7546771E-02  0.1187711E+00
          2   -1    0    0  501    0  0.00000000000E+00  0.00000000000E+00  0.40356037591E+03  0.40356037591E+03  0.00000000000E+00 0. -1.
         -2   -1    0    0    0  501 -0.00000000000E+00 -0.00000000000E+00 -0.68059639773E+02  0.68059639773E+02  0.00000000000E+00 0.  1.
         23    2    1    2    0    0 -0.10138955135E+03 -0.43513531909E+02  0.23808061719E+03  0.27852089819E+03  0.93371526008E+02 0.  0.
          5    1    1    2  502    0  0.67777579014E+02 -0.35591242325E+02  0.66885077160E+02  0.10176561450E+03  0.47000000000E+01 0. -1.
         -5    1    1    2    0  502  0.33611972339E+02  0.79104774233E+02  0.30535041786E+02  0.91333502987E+02  0.47000000000E+01 0. -1.
        -11    1    3    3    0    0 -0.33240083925E+02  0.28640955740E+02  0.91814373989E+02  0.10175994692E+03  0.00000000000E+00 0.  1.
         11    1    3    3    0    0 -0.68149467427E+02 -0.72154487649E+02  0.14626624320E+03  0.17676095128E+03  0.00000000000E+00 0. -1.
<mgrwt>
<rscale>  0 0.16087666E+03</rscale>
<asrwt>0</asrwt>
<pdfrwt beam="1">  1        2 0.62086210E-01 0.16672309E+03</pdfrwt>
<pdfrwt beam="2">  1       -2 0.10470714E-01 0.16672309E+03</pdfrwt>
<totfact> 0.47411749E+03</totfact>
</mgrwt>
</event>
<event>
 7    1  0.1330601E-005  0.1202986E+03  0.7546771E-02  0.1251695E+00
          1   -1    0    0  501    0  0.00000000000E+00  0.00000000000E+00  0.59945991728E+03  0.59945991728E+03  0.00000000000E+00 0. -1.
         -1   -1    0    0    0  501 -0.00000000000E+00 -0.00000000000E+00 -0.20980192757E+02  0.20980192757E+02  0.00000000000E+00 0.  1.
         23    2    1    2    0    0 -0.17127803762E+02 -0.18783291505E+02  0.32012967455E+03  0.33545500215E+03  0.96958115896E+02 0.  0.
          5    1    1    2  502    0 -0.23234836275E+02 -0.32015757693E+02  0.17379293906E+03  0.17830014589E+03  0.47000000000E+01 0. -1.
         -5    1    1    2    0  502  0.40362640037E+02  0.50799049198E+02  0.84557110907E+02  0.10668496199E+03  0.47000000000E+01 0.  1.
        -11    1    3    3    0    0 -0.42098565934E+02  0.24790853726E+02  0.13249583288E+03  0.14121622220E+03  0.00000000000E+00 0. -1.
         11    1    3    3    0    0  0.24970762172E+02 -0.43574145231E+02  0.18763384167E+03  0.19423877995E+03  0.00000000000E+00 0.  1.
<mgrwt>
<rscale>  0 0.11493449E+03</rscale>
<asrwt>0</asrwt>
<pdfrwt beam="1">  1        1 0.92224589E-01 0.12029864E+03</pdfrwt>
<pdfrwt beam="2">  1       -1 0.32277224E-02 0.12029864E+03</pdfrwt>
<totfact> 0.11261663E+04</totfact>
</mgrwt>
</event>
<event>
 7    1  0.1330601E-005  0.1549398E+03  0.7546771E-02  0.1204601E+00
         -3   -1    0    0    0  501 -0.00000000000E+00  0.00000000000E+00  0.76400402572E+02  0.76400402572E+02  0.00000000000E+00 0.  1.
          3   -1    0    0  501    0  0.00000000000E+00 -0.00000000000E+00 -0.41165127136E+03  0.41165127136E+03  0.00000000000E+00 0. -1.
         23    2    1    2    0    0  0.49496021234E+02  0.77043611144E+02 -0.30603281198E+03  0.33038100673E+03  0.84320539981E+02 0.  0.
          5    1    1    2  502    0 -0.86315305186E+02 -0.37973238197E+02  0.37584449041E+01  0.94490817738E+02  0.47000000000E+01 0. -1.
         -5    1    1    2    0  502  0.36819283953E+02 -0.39070372947E+02 -0.32976501708E+02  0.63179849461E+02  0.47000000000E+01 0. -1.
        -11    1    3    3    0    0 -0.18733930275E+02  0.43406218925E+02 -0.96304071440E+02  0.10728249699E+03  0.00000000000E+00 0.  1.
         11    1    3    3    0    0  0.68229951509E+02  0.33637392219E+02 -0.20972874054E+03  0.22309850974E+03  0.00000000000E+00 0. -1.
<mgrwt>
<rscale>  0 0.14668917E+03</rscale>
<asrwt>0</asrwt>
<pdfrwt beam="2">  1        3 0.63330964E-01 0.15493981E+03</pdfrwt>
<pdfrwt beam="1">  1       -3 0.11753908E-01 0.15493981E+03</pdfrwt>
<totfact> 0.32796819E+02</totfact>
</mgrwt>
</event>
<event>
 7    1  0.1330601E-005  0.1842906E+03  0.7546771E-02  0.1169154E+00
         -1   -1    0    0    0  501 -0.00000000000E+00  0.00000000000E+00  0.45777181987E+02  0.45777181987E+02  0.00000000000E+00 0.  1.
          1   -1    0    0  501    0  0.00000000000E+00 -0.00000000000E+00 -0.79313219329E+03  0.79313219329E+03  0.00000000000E+00 0. -1.
         23    2    1    2    0    0 -0.67055276483E+02 -0.11764372727E+03 -0.52770437989E+03  0.55218751135E+03  0.90014879140E+02 0.  0.
          5    1    1    2  502    0 -0.13836972478E+02  0.49538900469E+02 -0.11072522118E+02  0.52822866384E+02  0.47000000000E+01 0.  1.
         -5    1    1    2    0  502  0.80892248961E+02  0.68104826797E+02 -0.20857810930E+03  0.23389899755E+03  0.47000000000E+01 0.  1.
        -11    1    3    3    0    0 -0.18543433853E+02 -0.76300533477E+02 -0.41799615893E+03  0.42530744083E+03  0.00000000000E+00 0.  1.
         11    1    3    3    0    0 -0.48511842630E+02 -0.41343193789E+02 -0.10970822096E+03  0.12688007051E+03  0.00000000000E+00 0. -1.
<mgrwt>
<rscale>  0 0.17861104E+03</rscale>
<asrwt>0</asrwt>
<pdfrwt beam="2">  1        1 0.12202034E+00 0.18429061E+03</pdfrwt>
<pdfrwt beam="1">  1       -1 0.70426434E-02 0.18429061E+03</pdfrwt>
<totfact> 0.24241338E+03</totfact>
</mgrwt>
</event>
<event>
 7    1  0.1330601E-005  0.2866598E+03  0.7546771E-02  0.1093784E+00
          1   -1    0    0  501    0  0.00000000000E+00  0.00000000000E+00  0.70082089816E+03  0.70082089816E+03  0.00000000000E+00 0. -1.
         -1   -1    0    0    0  501 -0.00000000000E+00 -0.00000000000E+00 -0.14099609908E+03  0.14099609908E+03  0.00000000000E+00 0.  1.
         23    2    1    2    0    0 -0.25634011014E+03 -0.29023285211E+02  0.46502163755E+03  0.53988739119E+03  0.93170105835E+02 0.  0.
          5    1    1    2  502    0 -0.85854727529E+01 -0.14737143145E+02  0.98931409912E+01  0.20269631697E+02  0.47000000000E+01 0.  1.
         -5    1    1    2    0  502  0.26492558290E+03  0.43760428356E+02  0.84910020539E+02  0.28165997435E+03  0.47000000000E+01 0.  1.
        -11    1    3    3    0    0 -0.63740224958E+02 -0.15161240376E+02  0.50926818555E+02  0.82983253344E+02  0.00000000000E+00 0.  1.
         11    1    3    3    0    0 -0.19259988518E+03 -0.13862044834E+02  0.41409481899E+03  0.45690413784E+03  0.00000000000E+00 0. -1.
<mgrwt>
<rscale>  0 0.28351520E+03</rscale>
<asrwt>0</asrwt>
<pdfrwt beam="1">  1        1 0.10781860E+00 0.28665981E+03</pdfrwt>
<pdfrwt beam="2">  1       -1 0.21691708E-01 0.28665981E+03</pdfrwt>
<totfact> 0.49858955E+02</totfact>
</mgrwt>
</event>
<event>
 7    1  0.1330601E-005  0.2211453E+03  0.7546771E-02  0.1133032E+00
          3   -1    0    0  501    0  0.00000000000E+00  0.00000000000E+00  0.15580390440E+03  0.15580390440E+03  0.00000000000E+00 0. -1.
         -3   -1    0    0    0  501 -0.00000000000E+00 -0.00000000000E+00 -0.78472431172E+02  0.78472431172E+02  0.00000000000E+00 0.  1.
         23    2    1    2    0    0 -0.19667342041E+02  0.14309995556E+02  0.59561265622E+02  0.10569744597E+03  0.83861942535E+02 0.  0.
          5    1    1    2  502    0 -0.41888191497E+02  0.15422034044E+02  0.36154529346E+02  0.57634188753E+02  0.47000000000E+01 0. -1.
         -5    1    1    2    0  502  0.61555533539E+02 -0.29732029601E+02 -0.18384321738E+02  0.70944700854E+02  0.47000000000E+01 0. -1.
        -11    1    3    3    0    0  0.91280303467E+01 -0.72121381637E+01  0.67820701280E+02  0.68811215634E+02  0.00000000000E+00 0. -1.
         11    1    3    3    0    0 -0.28795372388E+02  0.21522133720E+02 -0.82594356575E+01  0.36886230334E+02  0.00000000000E+00 0.  1.
<mgrwt>
<rscale>  0 0.22114530E+03</rscale>
<asrwt>0</asrwt>
<pdfrwt beam="1">  1        3 0.23969831E-01 0.22114530E+03</pdfrwt>
<pdfrwt beam="2">  1       -3 0.12072682E-01 0.22114530E+03</pdfrwt>
<totfact> 0.21612823E+03</totfact>
</mgrwt>
</event>
<event>
 7    1  0.1330601E-005  0.1336921E+03  0.7546771E-02  0.1236184E+00
          1   -1    0    0  501    0  0.00000000000E+00  0.00000000000E+00  0.23827824615E+02  0.23827824615E+02  0.00000000000E+00 0. -1.
         -1   -1    0    0    0  501 -0.00000000000E+00 -0.00000000000E+00 -0.57345804191E+03  0.57345804191E+03  0.00000000000E+00 0.  1.
         23    2    1    2    0    0 -0.22753115815E+02 -0.41516777936E+02 -0.24817997399E+03  0.26751953464E+03  0.87932103328E+02 0.  0.
          5    1    1    2  502    0  0.20456280122E+01  0.26824112056E+02 -0.30268553108E+03  0.30391501823E+03  0.47000000000E+01 0.  1.
         -5    1    1    2    0  502  0.20707487803E+02  0.14692665880E+02  0.12352877732E+01  0.25851313654E+02  0.47000000000E+01 0.  1.
        -11    1    3    3    0    0 -0.13913425218E+02  0.25229286631E+02 -0.11141414380E+03  0.11507915425E+03  0.00000000000E+00 0.  1.
         11    1    3    3    0    0 -0.88396905969E+01 -0.66746064567E+02 -0.13676583019E+03  0.15244038039E+03  0.00000000000E+00 0. -1.
<mgrwt>
<rscale>  0 0.12428960E+03</rscale>
<asrwt>0</asrwt>
<pdfrwt beam="1">  1        1 0.36658188E-02 0.13369213E+03</pdfrwt>
<pdfrwt beam="2">  1       -1 0.88224323E-01 0.13369213E+03</pdfrwt>
<totfact> 0.32762934E+03</totfact>
</mgrwt>
</event>
<event>
 7    1  0.1330601E-005  0.1411349E+03  0.7546771E-02  0.1222875E+00
          1   -1    0    0  501    0  0.00000000000E+00  0.00000000000E+00  0.25287965723E+03  0.25287965723E+03  0.00000000000E+00 0.  1.
         -1   -1    0    0    0  501 -0.00000000000E+00 -0.00000000000E+00 -0.63354535893E+02  0.63354535893E+02  0.00000000000E+00 0. -1.
         23    2    1    2    0    0 -0.25259919371E+02 -0.60457089590E+02  0.90825716765E+02  0.14401160316E+03  0.90536776005E+02 0.  0.
          5    1    1    2  502    0  0.32376684125E+02  0.26568689910E+02 -0.21311644353E+02  0.47227334707E+02  0.47000000000E+01 0. -1.
         -5    1    1    2    0  502 -0.71167647543E+01  0.33888399679E+02  0.12001104893E+03  0.12499525526E+03  0.47000000000E+01 0. -1.
        -11    1    3    3    0    0 -0.41011795834E+02 -0.39508034897E+01  0.71429146097E+01  0.41816234585E+02  0.00000000000E+00 0. -1.
         11    1    3    3    0    0  0.15751876463E+02 -0.56506286100E+02  0.83682802155E+02  0.10219536857E+03  0.00000000000E+00 0.  1.
<mgrwt>
<rscale>  0 0.13313620E+03</rscale>
<asrwt>0</asrwt>
<pdfrwt beam="1">  1        1 0.38904562E-01 0.14113486E+03</pdfrwt>
<pdfrwt beam="2">  1       -1 0.97468518E-02 0.14113486E+03</pdfrwt>
<totfact> 0.65914104E+03</totfact>
</mgrwt>
</event>
<event>
 7    1  0.1330601E-005  0.1494714E+03  0.7546771E-02  0.1210561E+00
          1   -1    0    0  501    0  0.00000000000E+00  0.00000000000E+00  0.35978353109E+03  0.35978353109E+03  0.00000000000E+00 0. -1.
         -1   -1    0    0    0  501 -0.00000000000E+00 -0.00000000000E+00 -0.52132984594E+02  0.52132984594E+02  0.00000000000E+00 0.  1.
         23    2    1    2    0    0  0.79525920695E+02 -0.19809977151E+02  0.16573094463E+03  0.20580274222E+03  0.90394775514E+02 0.  0.
          5    1    1    2  502    0 -0.40948425934E+02  0.26071640706E+01 -0.14694191924E+02  0.43835832001E+02  0.47000000000E+01 0. -1.
         -5    1    1    2    0  502 -0.38577494761E+02  0.17202813080E+02  0.15661379379E+03  0.16227794146E+03  0.47000000000E+01 0. -1.
        -11    1    3    3    0    0  0.34716011927E+02 -0.22476059329E+02  0.15392919854E+03  0.15938812029E+03  0.00000000000E+00 0. -1.
         11    1    3    3    0    0  0.44809908769E+02  0.26660821789E+01  0.11801746092E+02  0.46414621929E+02  0.00000000000E+00 0.  1.
<mgrwt>
<rscale>  0 0.14207685E+03</rscale>
<asrwt>0</asrwt>
<pdfrwt beam="1">  1        1 0.55351311E-01 0.14947145E+03</pdfrwt>
<pdfrwt beam="2">  1       -1 0.80204594E-02 0.14947145E+03</pdfrwt>
<totfact> 0.57392396E+03</totfact>
</mgrwt>
</event>
<event>
 7    1  0.1330601E-005  0.2074061E+03  0.7546771E-02  0.1164361E+00
         -2   -1    0    0    0  501 -0.00000000000E+00  0.00000000000E+00  0.24911926434E+03  0.24911926434E+03  0.00000000000E+00 0.  1.
          2   -1    0    0  501    0  0.00000000000E+00 -0.00000000000E+00 -0.14750764021E+03  0.14750764021E+03  0.00000000000E+00 0. -1.
         23    2    1    2    0    0 -0.75639682932E+02  0.43163650330E+02 -0.52979376655E+02  0.13794624019E+03  0.92940241487E+02 0.  0.
          5    1    1    2  502    0  0.79995803625E+02 -0.17706885876E+01 -0.17097555503E+02  0.81956575940E+02  0.47000000000E+01 0. -1.
         -5    1    1    2    0  502 -0.43561206931E+01 -0.41392961743E+02  0.17168855628E+03  0.17672408842E+03  0.47000000000E+01 0.  1.
        -11    1    3    3    0    0  0.11382256732E+02  0.37833403828E+02 -0.10057910694E+02  0.40768661752E+02  0.00000000000E+00 0.  1.
         11    1    3    3    0    0 -0.87021939664E+02  0.53302465020E+01 -0.42921465962E+02  0.97177578437E+02  0.00000000000E+00 0. -1.
<mgrwt>
<rscale>  0 0.18360328E+03</rscale>
<asrwt>0</asrwt>
<pdfrwt beam="2">  1        2 0.22693483E-01 0.20740614E+03</pdfrwt>
<pdfrwt beam="1">  1       -2 0.38326041E-01 0.20740614E+03</pdfrwt>
<totfact> 0.15387945E+03</totfact>
</mgrwt>
</event>
<event>
 6    1  0.1330601E-005  0.3280647E+03  0.7546771E-02  0.1071996E+00
         -1   -1    0    0    0  501 -0.00000000000E+00  0.00000000000E+00  0.14662481374E+03  0.14662481374E+03  0.00000000000E+00 0.  1.
          1   -1    0    0  501    0  0.00000000000E+00 -0.00000000000E+00 -0.18350649196E+03  0.18350649196E+03  0.00000000000E+00 0. -1.
          5    1    1    2  502    0  0.57822334208E+02  0.43405442948E+02  0.82597316209E+02  0.10987202308E+03  0.47000000000E+01 0. -1.
         -5    1    1    2    0  502 -0.42328786366E+02 -0.17160556308E+01 -0.64410624045E+01  0.43107404086E+02  0.47000000000E+01 0. -1.
        -11    1    1    2    0    0 -0.59140162551E+02 -0.10104745238E+02 -0.99253673217E+01  0.60812643582E+02  0.00000000000E+00 0.  1.
         11    1    1    2    0    0  0.43646614709E+02 -0.31584642079E+02 -0.10311256470E+03  0.11633923495E+03  0.00000000000E+00 0. -1.
<mgrwt>
<rscale>  0 0.32806466E+03</rscale>
<asrwt>0</asrwt>
<pdfrwt beam="2">  1        1 0.28231768E-01 0.32806466E+03</pdfrwt>
<pdfrwt beam="1">  1       -1 0.22557664E-01 0.32806466E+03</pdfrwt>
<totfact> 0.27102212E+03</totfact>
</mgrwt>
</event>
<event>
 7    1  0.1330601E-005  0.1290905E+03  0.7546771E-02  0.1244230E+00
          2   -1    0    0  501    0  0.00000000000E+00  0.00000000000E+00  0.42608991102E+03  0.42608991102E+03  0.00000000000E+00 0.  1.
         -2   -1    0    0    0  501 -0.00000000000E+00 -0.00000000000E+00 -0.35675077403E+02  0.35675077403E+02  0.00000000000E+00 0. -1.
         23    2    1    2    0    0  0.37533047070E+01  0.32020764294E+02  0.26714805219E+03  0.28327394036E+03  0.88524724544E+02 0.  0.
          5    1    1    2  502    0 -0.54382261320E+02  0.14805114930E+02  0.76072437093E+02  0.94793077066E+02  0.47000000000E+01 0.  1.
         -5    1    1    2    0  502  0.50628956613E+02 -0.46825879224E+02  0.47194344342E+02  0.83697971006E+02  0.47000000000E+01 0.  1.
        -11    1    3    3    0    0 -0.34210151679E+02  0.92588006612E+01  0.19817408815E+03  0.20131822839E+03  0.00000000000E+00 0.  1.
         11    1    3    3    0    0  0.37963456386E+02  0.22761963632E+02  0.68973964039E+02  0.81955711970E+02  0.00000000000E+00 0. -1.
<mgrwt>
<rscale>  0 0.11931584E+03</rscale>
<asrwt>0</asrwt>
<pdfrwt beam="1">  1        2 0.65552290E-01 0.12909049E+03</pdfrwt>
<pdfrwt beam="2">  1       -2 0.54884738E-02 0.12909049E+03</pdfrwt>
<totfact> 0.11924418E+04</totfact>
</mgrwt>
</event>
<event>
 7    1  0.1330601E-005  0.1307897E+03  0.7546771E-02  0.1238899E+00
          3   -1    0    0  501    0  0.00000000000E+00  0.00000000000E+00  0.38297119631E+02  0.38297119631E+02  0.00000000000E+00 0. -1.
         -3   -1    0    0    0  501 -0.00000000000E+00 -0.00000000000E+00 -0.36151923140E+03  0.36151923140E+03  0.00000000000E+00 0.  1.
         23    2    1    2    0    0 -0.37154004964E+02 -0.10020668578E+02 -0.10675937032E+03  0.14690914593E+03  0.93294695036E+02 0.  0.
          5    1    1    2  502    0 -0.23981168209E+02 -0.18415698917E+02 -0.51262484309E+01  0.31025841137E+02  0.47000000000E+01 0.  1.
         -5    1    1    2    0  502  0.61135173173E+02  0.28436367496E+02 -0.21133649302E+03  0.22188136397E+03  0.47000000000E+01 0.  1.
        -11    1    3    3    0    0 -0.15587499891E+02 -0.21592615898E+02  0.93679703718E+01  0.28230658566E+02  0.00000000000E+00 0. -1.
         11    1    3    3    0    0 -0.21566505073E+02  0.11571947320E+02 -0.11612734069E+03  0.11867848736E+03  0.00000000000E+00 0.  1.
<mgrwt>
<rscale>  0 0.12258117E+03</rscale>
<asrwt>0</asrwt>
<pdfrwt beam="1">  1        3 0.58918649E-02 0.13078966E+03</pdfrwt>
<pdfrwt beam="2">  1       -3 0.55618341E-01 0.13078966E+03</pdfrwt>
<totfact> 0.12906520E+03</totfact>
</mgrwt>
</event>
<event>
 7    1  0.1330601E-005  0.1709151E+03  0.7546771E-02  0.1183295E+00
         -2   -1    0    0    0  501 -0.00000000000E+00  0.00000000000E+00  0.66020696407E+02  0.66020696407E+02  0.00000000000E+00 0.  1.
          2   -1    0    0  501    0  0.00000000000E+00 -0.00000000000E+00 -0.41955317431E+03  0.41955317431E+03  0.00000000000E+00 0. -1.
         23    2    1    2    0    0 -0.62142499102E+02 -0.98618091948E+02 -0.23443791105E+03  0.27725805637E+03  0.91234190033E+02 0.  0.
          5    1    1    2  502    0 -0.62337165904E+01  0.37817153775E+02  0.18651108046E+02  0.42882982330E+02  0.47000000000E+01 0. -1.
         -5    1    1    2    0  502  0.68376215692E+02  0.60800938173E+02 -0.13774567490E+03  0.16543283202E+03  0.47000000000E+01 0. -1.
        -11    1    3    3    0    0 -0.12554322446E+02 -0.29941223200E+02 -0.16372775702E+03  0.16691574604E+03  0.00000000000E+00 0.  1.
         11    1    3    3    0    0 -0.49588176656E+02 -0.68676868749E+02 -0.70710154027E+02  0.11034231032E+03  0.00000000000E+00 0. -1.
<mgrwt>
<rscale>  0 0.16487993E+03</rscale>
<asrwt>0</asrwt>
<pdfrwt beam="2">  1        2 0.64546643E-01 0.17091507E+03</pdfrwt>
<pdfrwt beam="1">  1       -2 0.10157030E-01 0.17091507E+03</pdfrwt>
<totfact> 0.47763299E+03</totfact>
</mgrwt>
</event>
<event>
 7    1  0.1330601E-005  0.1766639E+03  0.7546771E-02  0.1176659E+00
         -2   -1    0    0    0  501 -0.00000000000E+00  0.00000000000E+00  0.27226115854E+02  0.27226115854E+02  0.00000000000E+00 0.  1.
          2   -1    0    0  501    0  0.00000000000E+00 -0.00000000000E+00 -0.10820806591E+04  0.10820806591E+04  0.00000000000E+00 0. -1.
         23    2    1    2    0    0  0.40340228662E+02 -0.11814346477E+03 -0.35696558948E+03  0.38940459983E+03  0.92877865927E+02 0.  0.
          5    1    1    2  502    0 -0.58918576984E+02  0.27138186667E+01 -0.26022996078E+03  0.26687166581E+03  0.47000000000E+01 0.  1.
         -5    1    1    2    0  502  0.18578348321E+02  0.11542964610E+03 -0.43765899301E+03  0.45303050933E+03  0.47000000000E+01 0.  1.
        -11    1    3    3    0    0  0.47748720796E+02 -0.24935492526E+02 -0.74999619622E+02  0.92339926731E+02  0.00000000000E+00 0.  1.
         11    1    3    3    0    0 -0.74084921334E+01 -0.93207972245E+02 -0.28196596986E+03  0.29706467310E+03  0.00000000000E+00 0. -1.
<mgrwt>
<rscale>  0 0.17114479E+03</rscale>
<asrwt>0</asrwt>
<pdfrwt beam="2">  1        2 0.16647395E+00 0.17666395E+03</pdfrwt>
<pdfrwt beam="1">  1       -2 0.41886333E-02 0.17666395E+03</pdfrwt>
<totfact> 0.59102514E+03</totfact>
</mgrwt>
</event>
<event>
 7    1  0.1330601E-005  0.1587321E+03  0.7546771E-02  0.1197656E+00
          1   -1    0    0  501    0  0.00000000000E+00  0.00000000000E+00  0.11579588441E+03  0.11579588441E+03  0.00000000000E+00 0. -1.
         -1   -1    0    0    0  501 -0.00000000000E+00 -0.00000000000E+00 -0.79571183981E+03  0.79571183981E+03  0.00000000000E+00 0.  1.
         23    2    1    2    0    0 -0.52267116554E+02  0.82697032632E+02  0.65290522773E+02  0.14958346775E+03  0.92421376206E+02 0.  0.
          5    1    1    2  502    0 -0.13221639950E+02 -0.24524354807E+01 -0.42729986749E+03  0.42753724161E+03  0.47000000000E+01 0. -1.
         -5    1    1    2    0  502  0.65488756504E+02 -0.80244597151E+02 -0.31790661067E+03  0.33438701486E+03  0.47000000000E+01 0. -1.
        -11    1    3    3    0    0 -0.22573840220E+02 -0.30162062889E+00 -0.17566546508E+02  0.28605118309E+02  0.00000000000E+00 0.  1.
         11    1    3    3    0    0 -0.29693276335E+02  0.82998653261E+02  0.82857069281E+02  0.12097834944E+03  0.00000000000E+00 0. -1.
<mgrwt>
<rscale>  0 0.15231597E+03</rscale>
<asrwt>0</asrwt>
<pdfrwt beam="1">  1        1 0.17814751E-01 0.15873209E+03</pdfrwt>
<pdfrwt beam="2">  1       -1 0.12241721E+00 0.15873209E+03</pdfrwt>
<totfact> 0.19024418E+02</totfact>
</mgrwt>
</event>
<event>
 7    1  0.1330601E-005  0.1220615E+03  0.7546771E-02  0.1250117E+00
          2   -1    0    0  501    0  0.00000000000E+00  0.00000000000E+00  0.11784598477E+03  0.11784598477E+03  0.00000000000E+00 0. -1.
         -2   -1    0    0    0  501 -0.00000000000E+00 -0.00000000000E+00 -0.20140798602E+03  0.20140798602E+03  0.00000000000E+00 0.  1.
         23    2    1    2    0    0 -0.32443651213E+02  0.34079753722E+01  0.71334730401E+02  0.12204341760E+03  0.93497311288E+02 0.  0.
          5    1    1    2  502    0  0.11919054066E+02  0.47640245069E+02 -0.23423269916E+02  0.54611320929E+02  0.47000000000E+01 0. -1.
         -5    1    1    2    0  502  0.20524597147E+02 -0.51048220441E+02 -0.13147346174E+03  0.14259923225E+03  0.47000000000E+01 0.  1.
        -11    1    3    3    0    0 -0.34051310971E+02 -0.33088169558E+02  0.69071010913E+01  0.47979441316E+02  0.00000000000E+00 0.  1.
         11    1    3    3    0    0  0.16076597577E+01  0.36496144930E+02  0.64427629309E+02  0.74063976285E+02  0.00000000000E+00 0. -1.
<mgrwt>
<rscale>  0 0.11584311E+03</rscale>
<asrwt>0</asrwt>
<pdfrwt beam="1">  1        2 0.18130152E-01 0.12206148E+03</pdfrwt>
<pdfrwt beam="2">  1       -2 0.30985844E-01 0.12206148E+03</pdfrwt>
<totfact> 0.28746202E+03</totfact>
</mgrwt>
</event>
<event>
 7    1  0.1330601E-005  0.1687083E+03  0.7546771E-02  0.1185793E+00
         -2   -1    0    0    0  501 -0.00000000000E+00  0.00000000000E+00  0.54973958088E+03  0.54973958088E+03  0.00000000000E+00 0.  1.
          2   -1    0    0  501    0  0.00000000000E+00 -0.00000000000E+00 -0.48530908507E+02  0.48530908507E+02  0.00000000000E+00 0. -1.
         23    2    1    2    0    0 -0.96238764303E+02 -0.59779803526E+02  0.15210058709E+03  0.21053483845E+03  0.91404622115E+02 0.  0.
          5    1    1    2  502    0  0.62266385818E+02 -0.55595738543E+01  0.51548740731E+02  0.81162641254E+02  0.47000000000E+01 0.  1.
         -5    1    1    2    0  502  0.33972378485E+02  0.65339377380E+02  0.29755934455E+03  0.30657300968E+03  0.47000000000E+01 0.  1.
        -11    1    3    3    0    0 -0.11092928176E+03 -0.49543295388E+02  0.14918228612E+03  0.19239334230E+03  0.00000000000E+00 0.  1.
         11    1    3    3    0    0  0.14690517459E+02 -0.10236508138E+02  0.29183009760E+01  0.18141496153E+02  0.00000000000E+00 0. -1.
<mgrwt>
<rscale>  0 0.16259961E+03</rscale>
<asrwt>0</asrwt>
<pdfrwt beam="2">  1        2 0.74662940E-02 0.16870827E+03</pdfrwt>
<pdfrwt beam="1">  1       -2 0.84575316E-01 0.16870827E+03</pdfrwt>
<totfact> 0.11471397E+03</totfact>
</mgrwt>
</event>
<event>
 7    1  0.1330601E-005  0.1918373E+03  0.7546771E-02  0.1161562E+00
          1   -1    0    0  501    0  0.00000000000E+00  0.00000000000E+00  0.13730367356E+03  0.13730367356E+03  0.00000000000E+00 0. -1.
         -1   -1    0    0    0  501 -0.00000000000E+00 -0.00000000000E+00 -0.24139351909E+03  0.24139351909E+03  0.00000000000E+00 0.  1.
         23    2    1    2    0    0  0.13640553132E+03  0.50699986855E+02 -0.59411944496E+02  0.18172594793E+03  0.91200785965E+02 0.  0.
          5    1    1    2  502    0 -0.10067590147E+03 -0.75964888130E+02  0.10206681875E+02  0.12661977618E+03  0.47000000000E+01 0. -1.
         -5    1    1    2    0  502 -0.35729629841E+02  0.25264901274E+02 -0.54884582906E+02  0.70351468540E+02  0.47000000000E+01 0. -1.
        -11    1    3    3    0    0  0.58164889966E+02  0.69413589425E+02 -0.39806202421E+02  0.98923882722E+02  0.00000000000E+00 0.  1.
         11    1    3    3    0    0  0.78240641349E+02 -0.18713602570E+02 -0.19605742076E+02  0.82802065205E+02  0.00000000000E+00 0. -1.
<mgrwt>
<rscale>  0 0.18660253E+03</rscale>
<asrwt>0</asrwt>
<pdfrwt beam="1">  1        1 0.21123642E-01 0.19183732E+03</pdfrwt>
<pdfrwt beam="2">  1       -1 0.37137464E-01 0.19183732E+03</pdfrwt>
<totfact> 0.16578989E+03</totfact>
</mgrwt>
</event>
<event>
 7    1  0.1330601E-005  0.1570054E+03  0.7546771E-02  0.1200613E+00
         -1   -1    0    0    0  501 -0.00000000000E+00  0.00000000000E+00  0.77429902533E+03  0.77429902533E+03  0.00000000000E+00 0.  1.
          1   -1    0    0  501    0  0.00000000000E+00 -0.00000000000E+00 -0.26861846966E+02  0.26861846966E+02  0.00000000000E+00 0. -1.
         23    2    1    2    0    0 -0.24818827095E+02 -0.91706146028E+02  0.30576632091E+03  0.33241379094E+03  0.89330252474E+02 0.  0.
          5    1    1    2  502    0 -0.31740119723E+01 -0.28982486568E+02  0.51677744239E+02  0.59520904977E+02  0.47000000000E+01 0. -1.
         -5    1    1    2    0  502  0.27992839067E+02  0.12068863260E+03  0.38999311322E+03  0.40922617638E+03  0.47000000000E+01 0. -1.
        -11    1    3    3    0    0  0.23526785014E+02 -0.66345908839E+02  0.21770431238E+03  0.22880222216E+03  0.00000000000E+00 0.  1.
         11    1    3    3    0    0 -0.48345612109E+02 -0.25360237189E+02  0.88062008522E+02  0.10361156878E+03  0.00000000000E+00 0. -1.
<mgrwt>
<rscale>  0 0.14988589E+03</rscale>
<asrwt>0</asrwt>
<pdfrwt beam="2">  1        1 0.41325924E-02 0.15700535E+03</pdfrwt>
<pdfrwt beam="1">  1       -1 0.11912291E+00 0.15700535E+03</pdfrwt>
<totfact> 0.14356380E+03</totfact>
</mgrwt>
</event>
<event>
 7    1  0.1330601E-005  0.1318167E+03  0.7546771E-02  0.1238840E+00
         -2   -1    0    0    0  501 -0.00000000000E+00  0.00000000000E+00  0.70945880076E+02  0.70945880076E+02  0.00000000000E+00 0. -1.
          2   -1    0    0  501    0  0.00000000000E+00 -0.00000000000E+00 -0.19669498757E+03  0.19669498757E+03  0.00000000000E+00 0.  1.
         23    2    1    2    0    0  0.39653515046E+02 -0.13292719261E+02 -0.83319733007E+02  0.12916385223E+03  0.89398127353E+02 0.  0.
          5    1    1    2  502    0 -0.69935199251E+02  0.64291579761E+01  0.15964104759E+02  0.72174848856E+02  0.47000000000E+01 0.  1.
         -5    1    1    2    0  502  0.30281684205E+02  0.68635612850E+01 -0.58393479241E+02  0.66302166554E+02  0.47000000000E+01 0.  1.
        -11    1    3    3    0    0  0.63924224054E+02 -0.23804077817E+02 -0.42005920137E+02  0.80108912539E+02  0.00000000000E+00 0.  1.
         11    1    3    3    0    0 -0.24270709008E+02  0.10511358556E+02 -0.41313812870E+02  0.49054939693E+02  0.00000000000E+00 0. -1.
<mgrwt>
<rscale>  0 0.12261789E+03</rscale>
<asrwt>0</asrwt>
<pdfrwt beam="2">  1        2 0.30260767E-01 0.13181666E+03</pdfrwt>
<pdfrwt beam="1">  1       -2 0.10914751E-01 0.13181666E+03</pdfrwt>
<totfact> 0.94311557E+03</totfact>
</mgrwt>
</event>
<event>
 7    1  0.1330601E-005  0.1289945E+03  0.7546771E-02  0.1249453E+00
          1   -1    0    0  501    0  0.00000000000E+00  0.00000000000E+00  0.29508030518E+02  0.29508030518E+02  0.00000000000E+00 0. -1.
         -1   -1    0    0    0  501 -0.00000000000E+00 -0.00000000000E+00 -0.38892743282E+03  0.38892743282E+03  0.00000000000E+00 0.  1.
         23    2    1    2    0    0 -0.31735483817E+02 -0.27292727003E+01 -0.13314948639E+03  0.15797882808E+03  0.78828513448E+02 0.  0.
          5    1    1    2  502    0  0.26455126803E+02  0.90176180428E+01  0.51814663300E+01  0.28811955203E+02  0.47000000000E+01 0. -1.
         -5    1    1    2    0  502  0.52803570142E+01 -0.62883453425E+01 -0.23145138224E+03  0.23164468006E+03  0.47000000000E+01 0. -1.
        -11    1    3    3    0    0 -0.71306043519E+01 -0.29928491016E+02 -0.11088271194E+03  0.11507187276E+03  0.00000000000E+00 0.  1.
         11    1    3    3    0    0 -0.24604879465E+02  0.27199218316E+02 -0.22266774453E+02  0.42906955322E+02  0.00000000000E+00 0. -1.
<mgrwt>
<rscale>  0 0.11622770E+03</rscale>
<asrwt>0</asrwt>
<pdfrwt beam="1">  1        1 0.45396971E-02 0.12899451E+03</pdfrwt>
<pdfrwt beam="2">  1       -1 0.59834989E-01 0.12899451E+03</pdfrwt>
<totfact> 0.52855344E+03</totfact>
</mgrwt>
</event>
<event>
 7    1  0.1330601E-005  0.1241557E+03  0.7546771E-02  0.1252932E+00
          1   -1    0    0  501    0  0.00000000000E+00  0.00000000000E+00  0.16484725254E+03  0.16484725254E+03  0.00000000000E+00 0. -1.
         -1   -1    0    0    0  501 -0.00000000000E+00 -0.00000000000E+00 -0.94350925842E+03  0.94350925842E+03  0.00000000000E+00 0.  1.
         23    2    1    2    0    0 -0.11896113191E+02  0.85926235014E+01  0.14839678063E+03  0.17302093987E+03  0.87745600711E+02 0.  0.
          5    1    1    2  502    0  0.87979235132E+01 -0.39501017303E+02 -0.10426213205E+03  0.11193934074E+03  0.47000000000E+01 0. -1.
         -5    1    1    2    0  502  0.30981896780E+01  0.30908393802E+02 -0.82279665445E+03  0.82339623035E+03  0.47000000000E+01 0.  1.
        -11    1    3    3    0    0 -0.20263388846E+02  0.26975517062E+02  0.14904209833E+03  0.15281305743E+03  0.00000000000E+00 0. -1.
         11    1    3    3    0    0  0.83672756554E+01 -0.18382893560E+02 -0.64531769960E+00  0.20207882434E+02  0.00000000000E+00 0.  1.
<mgrwt>
<rscale>  0 0.11422966E+03</rscale>
<asrwt>0</asrwt>
<pdfrwt beam="1">  1        1 0.25361116E-01 0.12415570E+03</pdfrwt>
<pdfrwt beam="2">  1       -1 0.14515527E+00 0.12415570E+03</pdfrwt>
<totfact> 0.80564389E+01</totfact>
</mgrwt>
</event>
<event>
 7    1  0.1330601E-005  0.1298052E+03  0.7546771E-02  0.1242508E+00
          1   -1    0    0  501    0  0.00000000000E+00  0.00000000000E+00  0.91839264277E+02  0.91839264277E+02  0.00000000000E+00 0. -1.
         -1   -1    0    0    0  501 -0.00000000000E+00 -0.00000000000E+00 -0.13884314992E+03  0.13884314992E+03  0.00000000000E+00 0.  1.
         23    2    1    2    0    0 -0.34771748235E+02 -0.39422982764E+01 -0.16691482067E+02  0.97384930772E+02  0.89334220637E+02 0.  0.
          5    1    1    2  502    0  0.40155896160E+02  0.51018163459E+02 -0.49686722762E+02  0.81891448992E+02  0.47000000000E+01 0. -1.
         -5    1    1    2    0  502 -0.53841479257E+01 -0.47075865183E+02  0.19374319190E+02  0.51406034429E+02  0.47000000000E+01 0. -1.
        -11    1    3    3    0    0  0.19810348770E+01 -0.25686943872E+02 -0.40869263074E+02  0.48311905871E+02  0.00000000000E+00 0.  1.
         11    1    3    3    0    0 -0.36752783112E+02  0.21744645596E+02  0.24177781006E+02  0.49073024901E+02  0.00000000000E+00 0. -1.
<mgrwt>
<rscale>  0 0.12035751E+03</rscale>
<asrwt>0</asrwt>
<pdfrwt beam="1">  1        1 0.14129118E-01 0.12980515E+03</pdfrwt>
<pdfrwt beam="2">  1       -1 0.21360485E-01 0.12980515E+03</pdfrwt>
<totfact> 0.68924183E+03</totfact>
</mgrwt>
</event>
<event>
 7    1  0.1330601E-005  0.2162141E+03  0.7546771E-02  0.1140468E+00
          1   -1    0    0  501    0  0.00000000000E+00  0.00000000000E+00  0.23716854661E+03  0.23716854661E+03  0.00000000000E+00 0. -1.
         -1   -1    0    0    0  501 -0.00000000000E+00 -0.00000000000E+00 -0.18050529194E+03  0.18050529194E+03  0.00000000000E+00 0.  1.
         23    2    1    2    0    0  0.11495691427E+03  0.13382132065E+03  0.29788976925E+02  0.19979594287E+03  0.88925798497E+02 0.  0.
          5    1    1    2  502    0 -0.72997085145E+02 -0.28576369857E+01 -0.13579645753E+02  0.74452920074E+02  0.47000000000E+01 0.  1.
         -5    1    1    2    0  502 -0.41959829128E+02 -0.13096368367E+03  0.40453923500E+02  0.14342497560E+03  0.47000000000E+01 0.  1.
        -11    1    3    3    0    0  0.53893824535E+02  0.33879385025E+02  0.49997768019E+02  0.80945252236E+02  0.00000000000E+00 0. -1.
         11    1    3    3    0    0  0.61063089738E+02  0.99941935628E+02 -0.20208791093E+02  0.11885069063E+03  0.00000000000E+00 0.  1.
<mgrwt>
<rscale>  0 0.21139237E+03</rscale>
<asrwt>0</asrwt>
<pdfrwt beam="1">  1        1 0.36487469E-01 0.21621413E+03</pdfrwt>
<pdfrwt beam="2">  1       -1 0.27770045E-01 0.21621413E+03</pdfrwt>
<totfact> 0.13704510E+03</totfact>
</mgrwt>
</event>
<event>
 7    1  0.1330601E-005  0.1331578E+03  0.7546771E-02  0.1234783E+00
          2   -1    0    0  501    0  0.00000000000E+00  0.00000000000E+00  0.41589717859E+02  0.41589717859E+02  0.00000000000E+00 0. -1.
         -2   -1    0    0    0  501 -0.00000000000E+00 -0.00000000000E+00 -0.33914063551E+03  0.33914063551E+03  0.00000000000E+00 0.  1.
         23    2    1    2    0    0  0.27060634469E+02 -0.37069463186E+02 -0.12020060862E+03  0.15895537866E+03  0.93339182843E+02 0.  0.
          5    1    1    2  502    0  0.93798379866E+01  0.74946143135E+02 -0.13218953624E+03  0.15231897197E+03  0.47000000000E+01 0. -1.
         -5    1    1    2    0  502 -0.36440472456E+02 -0.37876679949E+02 -0.45160772787E+02  0.69456002732E+02  0.47000000000E+01 0. -1.
        -11    1    3    3    0    0  0.51920346185E+02 -0.56766060100E+00 -0.94588287888E+02  0.10790268204E+03  0.00000000000E+00 0.  1.
         11    1    3    3    0    0 -0.24859711716E+02 -0.36501802585E+02 -0.25612320731E+02  0.51052696617E+02  0.00000000000E+00 0. -1.
<mgrwt>
<rscale>  0 0.12518334E+03</rscale>
<asrwt>0</asrwt>
<pdfrwt beam="1">  1        2 0.63984181E-02 0.13315783E+03</pdfrwt>
<pdfrwt beam="2">  1       -2 0.52175483E-01 0.13315783E+03</pdfrwt>
<totfact> 0.38111953E+03</totfact>
</mgrwt>
</event>
<event>
 7    1  0.1330601E-005  0.1305731E+03  0.7546771E-02  0.1239510E+00
          2   -1    0    0  501    0  0.00000000000E+00  0.00000000000E+00  0.29138115876E+02  0.29138115876E+02  0.00000000000E+00 0. -1.
         -2   -1    0    0    0  501 -0.00000000000E+00 -0.00000000000E+00 -0.47167561199E+03  0.47167561199E+03  0.00000000000E+00 0.  1.
         23    2    1    2    0    0 -0.76396802347E+01 -0.36925815167E+02 -0.14894616512E+03  0.17949581019E+03  0.92800351467E+02 0.  0.
          5    1    1    2  502    0 -0.13716693302E+02  0.21637166839E+02 -0.29348220767E+03  0.29463572574E+03  0.47000000000E+01 0. -1.
         -5    1    1    2    0  502  0.21356373537E+02  0.15288648328E+02 -0.10912331984E+00  0.26682191931E+02  0.47000000000E+01 0. -1.
        -11    1    3    3    0    0 -0.12805632632E+02 -0.66974860230E+02 -0.87791447601E+02  0.11116183878E+03  0.00000000000E+00 0. -1.
         11    1    3    3    0    0  0.51659523972E+01  0.30049045063E+02 -0.61154717523E+02  0.68333971410E+02  0.00000000000E+00 0.  1.
<mgrwt>
<rscale>  0 0.12220061E+03</rscale>
<asrwt>0</asrwt>
<pdfrwt beam="1">  1        2 0.44827873E-02 0.13057310E+03</pdfrwt>
<pdfrwt beam="2">  1       -2 0.72565475E-01 0.13057310E+03</pdfrwt>
<totfact> 0.30557846E+03</totfact>
</mgrwt>
</event>
<event>
 7    1  0.1330601E-005  0.1316080E+03  0.7546771E-02  0.1236466E+00
          2   -1    0    0  501    0  0.00000000000E+00  0.00000000000E+00  0.46737136049E+02  0.46737136049E+02  0.00000000000E+00 0. -1.
         -2   -1    0    0    0  501 -0.00000000000E+00 -0.00000000000E+00 -0.29825082174E+03  0.29825082174E+03  0.00000000000E+00 0.  1.
         23    2    1    2    0    0 -0.18832397275E+02 -0.36623865642E+02 -0.10069935928E+03  0.14482397513E+03  0.95591087931E+02 0.  0.
          5    1    1    2  502    0  0.69066266868E+02  0.38730189431E+02 -0.75662319617E+02  0.10962232164E+03  0.47000000000E+01 0. -1.
         -5    1    1    2    0  502 -0.50233869593E+02 -0.21063237897E+01 -0.75152006796E+02  0.90541661017E+02  0.47000000000E+01 0. -1.
        -11    1    3    3    0    0 -0.24332812853E+02  0.25895999431E+02 -0.60895080352E+02  0.70504605374E+02  0.00000000000E+00 0.  1.
         11    1    3    3    0    0  0.55004155782E+01 -0.62519865072E+02 -0.39804278929E+02  0.74319369758E+02  0.00000000000E+00 0. -1.
<mgrwt>
<rscale>  0 0.12411045E+03</rscale>
<asrwt>0</asrwt>
<pdfrwt beam="1">  1        2 0.71903286E-02 0.13160797E+03</pdfrwt>
<pdfrwt beam="2">  1       -2 0.45884742E-01 0.13160797E+03</pdfrwt>
<totfact> 0.42264534E+03</totfact>
</mgrwt>
</event>
<event>
 7    1  0.1330601E-005  0.1666748E+03  0.7546771E-02  0.1188753E+00
         -2   -1    0    0    0  501 -0.00000000000E+00  0.00000000000E+00  0.24373195626E+03  0.24373195626E+03  0.00000000000E+00 0.  1.
          2   -1    0    0  501    0  0.00000000000E+00 -0.00000000000E+00 -0.12036713435E+03  0.12036713435E+03  0.00000000000E+00 0. -1.
         23    2    1    2    0    0  0.81148053671E+02  0.74660438478E+02 -0.21848495146E+02  0.14303941343E+03  0.88451847726E+02 0.  0.
          5    1    1    2  502    0 -0.73466586080E+02  0.65846321695E+01  0.29938582283E+02  0.79743998898E+02  0.47000000000E+01 0. -1.
         -5    1    1    2    0  502 -0.76814675910E+01 -0.81245070647E+02  0.11527473477E+03  0.14131567827E+03  0.47000000000E+01 0. -1.
        -11    1    3    3    0    0  0.41707437580E+02  0.78609699483E+01  0.27985293208E+02  0.50837799263E+02  0.00000000000E+00 0.  1.
         11    1    3    3    0    0  0.39440616092E+02  0.66799468529E+02 -0.49833788354E+02  0.92201614168E+02  0.00000000000E+00 0. -1.
<mgrwt>
<rscale>  0 0.15995018E+03</rscale>
<asrwt>0</asrwt>
<pdfrwt beam="2">  1        2 0.18518021E-01 0.16667475E+03</pdfrwt>
<pdfrwt beam="1">  1       -2 0.37497224E-01 0.16667475E+03</pdfrwt>
<totfact> 0.20052232E+03</totfact>
</mgrwt>
</event>
<event>
 7    1  0.1330601E-005  0.2055168E+03  0.7546771E-02  0.1149054E+00
          1   -1    0    0  501    0  0.00000000000E+00  0.00000000000E+00  0.13230106970E+04  0.13230106970E+04  0.00000000000E+00 0. -1.
         -1   -1    0    0    0  501 -0.00000000000E+00 -0.00000000000E+00 -0.29164949162E+02  0.29164949162E+02  0.00000000000E+00 0.  1.
         23    2    1    2    0    0 -0.65238015558E+02  0.14952153073E+03  0.62044363171E+03  0.64811061911E+03  0.92110735825E+02 0.  0.
          5    1    1    2  502    0  0.79814225746E+02 -0.16011192317E+03  0.64984438636E+03  0.67403705763E+03  0.47000000000E+01 0. -1.
         -5    1    1    2    0  502 -0.14576210188E+02  0.10590392436E+02  0.23557729749E+02  0.30027969401E+02  0.47000000000E+01 0.  1.
        -11    1    3    3    0    0 -0.57955978047E+02  0.26426859448E+02  0.23006253573E+03  0.23871749965E+03  0.00000000000E+00 0.  1.
         11    1    3    3    0    0 -0.72820375113E+01  0.12309467128E+03  0.39038109598E+03  0.40939311946E+03  0.00000000000E+00 0. -1.
<mgrwt>
<rscale>  0 0.20081417E+03</rscale>
<asrwt>0</asrwt>
<pdfrwt beam="1">  1        1 0.20354006E+00 0.20551679E+03</pdfrwt>
<pdfrwt beam="2">  1       -1 0.44869163E-02 0.20551679E+03</pdfrwt>
<totfact> 0.19483998E+03</totfact>
</mgrwt>
</event>
<event>
 7    1  0.1330601E-005  0.1291705E+03  0.7546771E-02  0.1242808E+00
          1   -1    0    0  501    0  0.00000000000E+00  0.00000000000E+00  0.65265154181E+02  0.65265154181E+02  0.00000000000E+00 0. -1.
         -1   -1    0    0    0  501 -0.00000000000E+00 -0.00000000000E+00 -0.30293937873E+03  0.30293937873E+03  0.00000000000E+00 0.  1.
         23    2    1    2    0    0  0.32143321052E+02  0.52199965167E+01  0.10412586826E+01  0.96782150244E+02  0.91133193373E+02 0.  0.
          5    1    1    2  502    0  0.11616905069E+02  0.39895716119E+02 -0.25256590387E+02  0.48852901715E+02  0.47000000000E+01 0.  1.
         -5    1    1    2    0  502 -0.43760226122E+02 -0.45115712636E+02 -0.21345889284E+03  0.22256948095E+03  0.47000000000E+01 0.  1.
        -11    1    3    3    0    0 -0.20251224420E+02 -0.95736303946E+01 -0.27373156033E+02  0.35370272272E+02  0.00000000000E+00 0.  1.
         11    1    3    3    0    0  0.52394545472E+02  0.14793626911E+02  0.28414414715E+02  0.61411877972E+02  0.00000000000E+00 0. -1.
<mgrwt>
<rscale>  0 0.12017528E+03</rscale>
<asrwt>0</asrwt>
<pdfrwt beam="1">  1        1 0.10040793E-01 0.12917054E+03</pdfrwt>
<pdfrwt beam="2">  1       -1 0.46606058E-01 0.12917054E+03</pdfrwt>
<totfact> 0.28738823E+03</totfact>
</mgrwt>
</event>
<event>
 7    1  0.1330601E-005  0.2018942E+03  0.7546771E-02  0.1152240E+00
          1   -1    0    0  501    0  0.00000000000E+00  0.00000000000E+00  0.22469892419E+03  0.22469892419E+03  0.00000000000E+00 0. -1.
         -1   -1    0    0    0  501 -0.00000000000E+00 -0.00000000000E+00 -0.25013855592E+03  0.25013855592E+03  0.00000000000E+00 0.  1.
         23    2    1    2    0    0 -0.58249418757E+02 -0.14745576972E+03  0.12605528620E+03  0.22242519481E+03  0.91906655351E+02 0.  0.
          5    1    1    2  502    0  0.78964444638E+02  0.43595376541E+02 -0.40692758795E+02  0.99065286509E+02  0.47000000000E+01 0.  1.
         -5    1    1    2    0  502 -0.20715025882E+02  0.10386039318E+03 -0.11080215914E+03  0.15334699879E+03  0.47000000000E+01 0.  1.
        -11    1    3    3    0    0  0.66501804744E+01 -0.82403554191E+02  0.26199555272E+02  0.86723626193E+02  0.00000000000E+00 0.  1.
         11    1    3    3    0    0 -0.64899599231E+02 -0.65052215531E+02  0.99855730932E+02  0.13570156862E+03  0.00000000000E+00 0. -1.
<mgrwt>
<rscale>  0 0.19706423E+03</rscale>
<asrwt>0</asrwt>
<pdfrwt beam="1">  1        1 0.34569065E-01 0.20189416E+03</pdfrwt>
<pdfrwt beam="2">  1       -1 0.38482855E-01 0.20189416E+03</pdfrwt>
<totfact> 0.83639294E+02</totfact>
</mgrwt>
</event>
<event>
 7    1  0.1330601E-005  0.2171820E+03  0.7546771E-02  0.1139485E+00
         -1   -1    0    0    0  501 -0.00000000000E+00  0.00000000000E+00  0.85070593118E+02  0.85070593118E+02  0.00000000000E+00 0.  1.
          1   -1    0    0  501    0  0.00000000000E+00 -0.00000000000E+00 -0.59689239142E+03  0.59689239142E+03  0.00000000000E+00 0. -1.
         23    2    1    2    0    0  0.14813793654E+03 -0.97973075410E+02 -0.37630555033E+03  0.42596945780E+03  0.91107299520E+02 0.  0.
          5    1    1    2  502    0 -0.10412428422E+03  0.12531991645E+03 -0.11748594151E+03  0.20092780912E+03  0.47000000000E+01 0. -1.
         -5    1    1    2    0  502 -0.44013652317E+02 -0.27346841041E+02 -0.18030306455E+02  0.55065717611E+02  0.47000000000E+01 0. -1.
        -11    1    3    3    0    0  0.56980928166E+02 -0.24814280816E+02 -0.23245066814E+03  0.24061564336E+03  0.00000000000E+00 0. -1.
         11    1    3    3    0    0  0.91157008372E+02 -0.73158794593E+02 -0.14385488219E+03  0.18535381445E+03  0.00000000000E+00 0.  1.
<mgrwt>
<rscale>  0 0.21264904E+03</rscale>
<asrwt>0</asrwt>
<pdfrwt beam="2">  1        1 0.91829594E-01 0.21718203E+03</pdfrwt>
<pdfrwt beam="1">  1       -1 0.13087784E-01 0.21718203E+03</pdfrwt>
<totfact> 0.14122470E+03</totfact>
</mgrwt>
</event>
<event>
 7    1  0.1330601E-005  0.1495406E+03  0.7546771E-02  0.1210144E+00
          1   -1    0    0  501    0  0.00000000000E+00  0.00000000000E+00  0.20874684051E+03  0.20874684051E+03  0.00000000000E+00 0. -1.
         -1   -1    0    0    0  501 -0.00000000000E+00 -0.00000000000E+00 -0.18026838691E+03  0.18026838691E+03  0.00000000000E+00 0.  1.
         23    2    1    2    0    0  0.27990623509E+01 -0.82036759488E+02  0.15169127501E+03  0.19525299537E+03  0.91518438733E+02 0.  0.
          5    1    1    2  502    0 -0.30163711668E+02  0.14378524809E+02  0.15359205709E+02  0.37075418774E+02  0.47000000000E+01 0. -1.
         -5    1    1    2    0  502  0.27364649317E+02  0.67658234679E+02 -0.13857202713E+03  0.15668681328E+03  0.47000000000E+01 0. -1.
        -11    1    3    3    0    0 -0.25566989899E+02 -0.76427222913E+02  0.63982177064E+02  0.10290048764E+03  0.00000000000E+00 0.  1.
         11    1    3    3    0    0  0.28366052250E+02 -0.56095365749E+01  0.87709097948E+02  0.92352507728E+02  0.00000000000E+00 0. -1.
<mgrwt>
<rscale>  0 0.14239345E+03</rscale>
<asrwt>0</asrwt>
<pdfrwt beam="1">  1        1 0.32114898E-01 0.14954064E+03</pdfrwt>
<pdfrwt beam="2">  1       -1 0.27733598E-01 0.14954064E+03</pdfrwt>
<totfact> 0.15968151E+03</totfact>
</mgrwt>
</event>
<event>
 7    1  0.1330601E-005  0.1430937E+03  0.7546771E-02  0.1219836E+00
         -1   -1    0    0    0  501 -0.00000000000E+00  0.00000000000E+00  0.13370485620E+03  0.13370485620E+03  0.00000000000E+00 0.  1.
          1   -1    0    0  501    0  0.00000000000E+00 -0.00000000000E+00 -0.13986786831E+03  0.13986786831E+03  0.00000000000E+00 0. -1.
         23    2    1    2    0    0 -0.51302207258E+02  0.47498862720E+02 -0.48798803488E+02  0.12426227599E+03  0.90397630402E+02 0.  0.
          5    1    1    2  502    0  0.76326486734E+01 -0.20876301310E+02 -0.43470748444E+02  0.49049701859E+02  0.47000000000E+01 0.  1.
         -5    1    1    2    0  502  0.43669558585E+02 -0.26622561410E+02  0.86106539820E+02  0.10026074667E+03  0.47000000000E+01 0.  1.
        -11    1    3    3    0    0  0.17383004592E+02  0.37116913348E+02 -0.30788811563E+01  0.41101260495E+02  0.00000000000E+00 0.  1.
         11    1    3    3    0    0 -0.68685211850E+02  0.10381949372E+02 -0.45719922331E+02  0.83161015492E+02  0.00000000000E+00 0. -1.
<mgrwt>
<rscale>  0 0.13527182E+03</rscale>
<asrwt>0</asrwt>
<pdfrwt beam="2">  1        1 0.21518133E-01 0.14309367E+03</pdfrwt>
<pdfrwt beam="1">  1       -1 0.20569978E-01 0.14309367E+03</pdfrwt>
<totfact> 0.42978850E+03</totfact>
</mgrwt>
</event>
<event>
 7    1  0.1330601E-005  0.2598189E+03  0.7546771E-02  0.1109827E+00
          1   -1    0    0  501    0  0.00000000000E+00  0.00000000000E+00  0.40871974734E+03  0.40871974734E+03  0.00000000000E+00 0. -1.
         -1   -1    0    0    0  501 -0.00000000000E+00 -0.00000000000E+00 -0.23487301557E+03  0.23487301557E+03  0.00000000000E+00 0.  1.
         23    2    1    2    0    0 -0.12005494479E+03  0.19356580347E+03  0.27284112595E+03  0.36555367375E+03  0.85476887742E+02 0.  0.
          5    1    1    2  502    0  0.13870762358E+03 -0.19590488998E+03 -0.95328817806E+02  0.25831802931E+03  0.47000000000E+01 0. -1.
         -5    1    1    2    0  502 -0.18652678795E+02  0.23390865163E+01 -0.36655763778E+01  0.19721059864E+02  0.47000000000E+01 0. -1.
        -11    1    3    3    0    0 -0.11684257212E+03  0.11400685261E+03  0.19322867512E+03  0.25295665635E+03  0.00000000000E+00 0. -1.
         11    1    3    3    0    0 -0.32123726712E+01  0.79558950861E+02  0.79612450830E+02  0.11259701740E+03  0.00000000000E+00 0.  1.
<mgrwt>
<rscale>  0 0.25558273E+03</rscale>
<asrwt>0</asrwt>
<pdfrwt beam="1">  1        1 0.62879961E-01 0.25981887E+03</pdfrwt>
<pdfrwt beam="2">  1       -1 0.36134310E-01 0.25981887E+03</pdfrwt>
<totfact> 0.43849309E+02</totfact>
</mgrwt>
</event>
<event>
 7    1  0.1330601E-005  0.2588627E+03  0.7546771E-02  0.1142679E+00
          2   -1    0    0  501    0  0.00000000000E+00  0.00000000000E+00  0.93009203525E+03  0.93009203525E+03  0.00000000000E+00 0. -1.
         -2   -1    0    0    0  501 -0.00000000000E+00 -0.00000000000E+00 -0.42107176657E+02  0.42107176657E+02  0.00000000000E+00 0.  1.
         23    2    1    2    0    0 -0.96283794941E+01 -0.73476223030E+02  0.45343873136E+03  0.46639271019E+03  0.80149959322E+02 0.  0.
          5    1    1    2  502    0  0.67998368630E+02  0.14860730844E+03  0.26731659531E+03  0.31334990408E+03  0.47000000000E+01 0. -1.
         -5    1    1    2    0  502 -0.58369989136E+02 -0.75131085410E+02  0.16722953192E+03  0.19245659763E+03  0.47000000000E+01 0.  1.
        -11    1    3    3    0    0 -0.29958857060E+02 -0.81699831778E+02  0.35010426643E+03  0.36075669502E+03  0.00000000000E+00 0. -1.
         11    1    3    3    0    0  0.20330477566E+02  0.82236087486E+01  0.10333446493E+03  0.10563601517E+03  0.00000000000E+00 0.  1.
<mgrwt>
<rscale>  0 0.20860081E+03</rscale>
<asrwt>0</asrwt>
<pdfrwt beam="1">  1        2 0.14309107E+00 0.25886267E+03</pdfrwt>
<pdfrwt beam="2">  1       -2 0.64780279E-02 0.25886267E+03</pdfrwt>
<totfact> 0.38061495E+03</totfact>
</mgrwt>
</event>
<event>
 7    1  0.1330601E-005  0.1380705E+03  0.7546771E-02  0.1227769E+00
          1   -1    0    0  501    0  0.00000000000E+00  0.00000000000E+00  0.14433772961E+03  0.14433772961E+03  0.00000000000E+00 0. -1.
         -1   -1    0    0    0  501 -0.00000000000E+00 -0.00000000000E+00 -0.11081761177E+03  0.11081761177E+03  0.00000000000E+00 0.  1.
         23    2    1    2    0    0  0.17499105855E+02 -0.55964560633E+02  0.44540029667E+02  0.11664579281E+03  0.90466435682E+02 0.  0.
          5    1    1    2  502    0 -0.26381102791E+02  0.83169142834E+02 -0.41242148834E+02  0.96623360243E+02  0.47000000000E+01 0.  1.
         -5    1    1    2    0  502  0.88819969362E+01 -0.27204582201E+02  0.30222237014E+02  0.41886188325E+02  0.47000000000E+01 0.  1.
        -11    1    3    3    0    0  0.36705630558E+02 -0.22634872731E+02 -0.15087461563E+02  0.45686675022E+02  0.00000000000E+00 0.  1.
         11    1    3    3    0    0 -0.19206524703E+02 -0.33329687903E+02  0.59627491230E+02  0.70959117788E+02  0.00000000000E+00 0. -1.
<mgrwt>
<rscale>  0 0.12978895E+03</rscale>
<asrwt>0</asrwt>
<pdfrwt beam="1">  1        1 0.22205805E-01 0.13807048E+03</pdfrwt>
<pdfrwt beam="2">  1       -1 0.17048863E-01 0.13807048E+03</pdfrwt>
<totfact> 0.55626826E+03</totfact>
</mgrwt>
</event>
<event>
 7    1  0.1330601E-005  0.1291611E+03  0.7546771E-02  0.1242647E+00
          2   -1    0    0  501    0  0.00000000000E+00  0.00000000000E+00  0.35804374729E+03  0.35804374729E+03  0.00000000000E+00 0. -1.
         -2   -1    0    0    0  501 -0.00000000000E+00 -0.00000000000E+00 -0.36075788331E+02  0.36075788331E+02  0.00000000000E+00 0.  1.
         23    2    1    2    0    0 -0.32282172410E+02  0.39202012769E+01  0.15692731694E+03  0.18454615286E+03  0.91507339043E+02 0.  0.
          5    1    1    2  502    0  0.53344096596E+02 -0.11038233583E+02  0.17603429748E+03  0.18433013625E+03  0.47000000000E+01 0. -1.
         -5    1    1    2    0  502 -0.21061924186E+02  0.71180323065E+01 -0.10993655456E+02  0.25243246515E+02  0.47000000000E+01 0. -1.
        -11    1    3    3    0    0 -0.57918947750E+02  0.88350517355E+00  0.56736390125E+02  0.81082692692E+02  0.00000000000E+00 0. -1.
         11    1    3    3    0    0  0.25636775340E+02  0.30366961033E+01  0.10019092682E+03  0.10346346017E+03  0.00000000000E+00 0.  1.
<mgrwt>
<rscale>  0 0.12027326E+03</rscale>
<asrwt>0</asrwt>
<pdfrwt beam="1">  1        2 0.55083651E-01 0.12916110E+03</pdfrwt>
<pdfrwt beam="2">  1       -2 0.55501215E-02 0.12916110E+03</pdfrwt>
<totfact> 0.14115144E+04</totfact>
</mgrwt>
</event>
<event>
 7    1  0.1330601E-005  0.1622189E+03  0.7546771E-02  0.1193726E+00
         -1   -1    0    0    0  501 -0.00000000000E+00  0.00000000000E+00  0.10968693737E+03  0.10968693737E+03  0.00000000000E+00 0.  1.
          1   -1    0    0  501    0  0.00000000000E+00 -0.00000000000E+00 -0.22080477567E+03  0.22080477567E+03  0.00000000000E+00 0. -1.
         23    2    1    2    0    0  0.86922059157E+02  0.55971781074E+02 -0.95891559814E+02  0.16755979654E+03  0.90514139930E+02 0.  0.
          5    1    1    2  502    0  0.18089894306E+02  0.15974085845E+02  0.18954854488E+02  0.31045002871E+02  0.47000000000E+01 0. -1.
         -5    1    1    2    0  502 -0.10501195346E+03 -0.71945866919E+02 -0.34181132966E+02  0.13188691363E+03  0.47000000000E+01 0. -1.
        -11    1    3    3    0    0 -0.40935012157E+01  0.28112227073E+02  0.50104212625E+01  0.28847155569E+02  0.00000000000E+00 0.  1.
         11    1    3    3    0    0  0.91015560373E+02  0.27859554001E+02 -0.10090198108E+03  0.13871264097E+03  0.00000000000E+00 0. -1.
<mgrwt>
<rscale>  0 0.15562504E+03</rscale>
<asrwt>0</asrwt>
<pdfrwt beam="2">  1        1 0.33969965E-01 0.16221889E+03</pdfrwt>
<pdfrwt beam="1">  1       -1 0.16874914E-01 0.16221889E+03</pdfrwt>
<totfact> 0.33482455E+03</totfact>
</mgrwt>
</event>
<event>
 7    1  0.1330601E-005  0.3245014E+03  0.7546771E-02  0.1074944E+00
         -2   -1    0    0    0  501 -0.00000000000E+00  0.00000000000E+00  0.22574839591E+03  0.22574839591E+03  0.00000000000E+00 0.  1.
          2   -1    0    0  501    0  0.00000000000E+00 -0.00000000000E+00 -0.49415756432E+03  0.49415756432E+03  0.00000000000E+00 0. -1.
         23    2    1    2    0    0  0.93574388966E+02 -0.28443434461E+03 -0.23979324174E+03  0.39414522754E+03  0.90501927851E+02 0.  0.
          5    1    1    2  502    0 -0.36532770069E+02  0.20155166079E+03 -0.70493791135E+02  0.21667759424E+03  0.47000000000E+01 0.  1.
         -5    1    1    2    0  502 -0.57041618897E+02  0.82882683820E+02  0.41877864464E+02  0.10908313846E+03  0.47000000000E+01 0.  1.
        -11    1    3    3    0    0  0.37262857635E+02 -0.21513142494E+03 -0.13600780466E+03  0.25723175054E+03  0.00000000000E+00 0.  1.
         11    1    3    3    0    0  0.56311531331E+02 -0.69302919669E+02 -0.10378543707E+03  0.13691347700E+03  0.00000000000E+00 0. -1.
<mgrwt>
<rscale>  0 0.32153806E+03</rscale>
<asrwt>0</asrwt>
<pdfrwt beam="2">  1        2 0.76024241E-01 0.32450144E+03</pdfrwt>
<pdfrwt beam="1">  1       -2 0.34730522E-01 0.32450144E+03</pdfrwt>
<totfact> 0.49345763E+02</totfact>
</mgrwt>
</event>
<event>
 7    1  0.1330601E-005  0.1456146E+03  0.7546771E-02  0.1216061E+00
          1   -1    0    0  501    0  0.00000000000E+00  0.00000000000E+00  0.32577666485E+02  0.32577666485E+02  0.00000000000E+00 0. -1.
         -1   -1    0    0    0  501 -0.00000000000E+00 -0.00000000000E+00 -0.60099506995E+03  0.60099506995E+03  0.00000000000E+00 0.  1.
         23    2    1    2    0    0  0.74170394548E+02  0.88422276715E+01 -0.14970828742E+03  0.19026592638E+03  0.90604188657E+02 0.  0.
          5    1    1    2  502    0 -0.71519655975E+02 -0.15052670701E+02 -0.97251571708E+02  0.12174400308E+03  0.47000000000E+01 0. -1.
         -5    1    1    2    0  502 -0.26507385730E+01  0.62104430295E+01 -0.32145754434E+03  0.32156280698E+03  0.47000000000E+01 0. -1.
        -11    1    3    3    0    0  0.36504910064E+02  0.31376823331E+02 -0.17925092321E+02  0.51365576370E+02  0.00000000000E+00 0. -1.
         11    1    3    3    0    0  0.37665484484E+02 -0.22534595659E+02 -0.13178319510E+03  0.13890035001E+03  0.00000000000E+00 0.  1.
<mgrwt>
<rscale>  0 0.13798868E+03</rscale>
<asrwt>0</asrwt>
<pdfrwt beam="1">  1        1 0.50119489E-02 0.14561457E+03</pdfrwt>
<pdfrwt beam="2">  1       -1 0.92460777E-01 0.14561457E+03</pdfrwt>
<totfact> 0.19379200E+03</totfact>
</mgrwt>
</event>
<event>
 7    1  0.1330601E-005  0.2604229E+03  0.7546771E-02  0.1108968E+00
          2   -1    0    0  501    0  0.00000000000E+00  0.00000000000E+00  0.25950699843E+03  0.25950699843E+03  0.00000000000E+00 0. -1.
         -2   -1    0    0    0  501 -0.00000000000E+00 -0.00000000000E+00 -0.27629685192E+03  0.27629685192E+03  0.00000000000E+00 0.  1.
         23    2    1    2    0    0 -0.62115796821E+01  0.22837994812E+03  0.77527193492E+02  0.25882769188E+03  0.93730058824E+02 0.  0.
          5    1    1    2  502    0 -0.18734525694E+02 -0.56156667537E+02 -0.83622440876E+02  0.10256391363E+03  0.47000000000E+01 0. -1.
         -5    1    1    2    0  502  0.24946105376E+02 -0.17222328058E+03 -0.10694606102E+02  0.17441224483E+03  0.47000000000E+01 0. -1.
        -11    1    3    3    0    0 -0.29153993770E+02  0.15188602037E+03  0.11285182396E+02  0.15506989997E+03  0.00000000000E+00 0.  1.
         11    1    3    3    0    0  0.22942414088E+02  0.76493927752E+02  0.66242011096E+02  0.10375779191E+03  0.00000000000E+00 0. -1.
<mgrwt>
<rscale>  0 0.25698571E+03</rscale>
<asrwt>0</asrwt>
<pdfrwt beam="1">  1        2 0.39924154E-01 0.26042290E+03</pdfrwt>
<pdfrwt beam="2">  1       -2 0.42507208E-01 0.26042290E+03</pdfrwt>
<totfact> 0.67986124E+02</totfact>
</mgrwt>
</event>
<event>
 7    1  0.1606549E-005  0.1629300E+03  0.7546771E-02  0.1192601E+00
         -2   -1    0    0    0  501 -0.00000000000E+00  0.00000000000E+00  0.14264244506E+03  0.14264244506E+03  0.00000000000E+00 0. -1.
          2   -1    0    0  501    0  0.00000000000E+00 -0.00000000000E+00 -0.16281656026E+03  0.16281656026E+03  0.00000000000E+00 0.  1.
         23    2    1    2    0    0  0.45973014296E+02  0.93847755877E+02 -0.30073800211E+02  0.14222849816E+03  0.91671112699E+02 0.  0.
          5    1    1    2  502    0 -0.66085460942E+02 -0.28243156811E+02  0.46094713130E+02  0.85508927213E+02  0.47000000000E+01 0.  1.
         -5    1    1    2    0  502  0.20112446646E+02 -0.65604599066E+02 -0.36195028121E+02  0.77721579947E+02  0.47000000000E+01 0.  1.
        -11    1    3    3    0    0  0.65577037431E+02  0.96401885613E+02 -0.15392279697E+02  0.11760354443E+03  0.00000000000E+00 0.  1.
         11    1    3    3    0    0 -0.19604023135E+02 -0.25541297358E+01 -0.14681520513E+02  0.24624953733E+02  0.00000000000E+00 0. -1.
<mgrwt>
<rscale>  0 0.15659014E+03</rscale>
<asrwt>0</asrwt>
<pdfrwt beam="2">  1        2 0.25048701E-01 0.16293003E+03</pdfrwt>
<pdfrwt beam="1">  1       -2 0.21944992E-01 0.16293003E+03</pdfrwt>
<totfact> 0.37261470E+03</totfact>
</mgrwt>
</event>
<event>
 7    1  0.1330601E-005  0.1269032E+03  0.7546771E-02  0.1243077E+00
         -2   -1    0    0    0  501 -0.00000000000E+00  0.00000000000E+00  0.97660967978E+02  0.97660967978E+02  0.00000000000E+00 0.  1.
          2   -1    0    0  501    0  0.00000000000E+00 -0.00000000000E+00 -0.13565347011E+03  0.13565347011E+03  0.00000000000E+00 0. -1.
         23    2    1    2    0    0 -0.57659081557E+01 -0.21080007300E+02 -0.31362410485E+02  0.10623820580E+03  0.99122869090E+02 0.  0.
          5    1    1    2  502    0  0.49712625320E+02 -0.30607485082E+02 -0.76178270364E+01  0.59061701195E+02  0.47000000000E+01 0. -1.
         -5    1    1    2    0  502 -0.43946717164E+02  0.51687492382E+02  0.98773538796E+00  0.68014531090E+02  0.47000000000E+01 0. -1.
        -11    1    3    3    0    0  0.30382197247E+02 -0.39029995761E+02  0.77163709894E+01  0.50059573110E+02  0.00000000000E+00 0.  1.
         11    1    3    3    0    0 -0.36148105403E+02  0.17949988461E+02 -0.39078781474E+02  0.56178632695E+02  0.00000000000E+00 0. -1.
<mgrwt>
<rscale>  0 0.12001196E+03</rscale>
<asrwt>0</asrwt>
<pdfrwt beam="2">  1        2 0.20869765E-01 0.12690315E+03</pdfrwt>
<pdfrwt beam="1">  1       -2 0.15024764E-01 0.12690315E+03</pdfrwt>
<totfact> 0.84740481E+03</totfact>
</mgrwt>
</event>
<event>
 7    1  0.1330601E-005  0.1349208E+03  0.7546771E-02  0.1233722E+00
         -2   -1    0    0    0  501 -0.00000000000E+00  0.00000000000E+00  0.36684696039E+02  0.36684696039E+02  0.00000000000E+00 0. -1.
          2   -1    0    0  501    0  0.00000000000E+00 -0.00000000000E+00 -0.38940551605E+03  0.38940551605E+03  0.00000000000E+00 0.  1.
         23    2    1    2    0    0  0.23423248551E+01 -0.50728211066E+02 -0.17919421905E+03  0.20628324894E+03  0.88675660532E+02 0.  0.
          5    1    1    2  502    0  0.24023229816E+02  0.63302890885E+02 -0.31667144338E+02  0.74895057218E+02  0.47000000000E+01 0. -1.
         -5    1    1    2    0  502 -0.26365554671E+02 -0.12574679819E+02 -0.14185945663E+03  0.14491190593E+03  0.47000000000E+01 0. -1.
        -11    1    3    3    0    0  0.26308580923E+02 -0.31044228816E+02 -0.16870599976E+03  0.17354423046E+03  0.00000000000E+00 0.  1.
         11    1    3    3    0    0 -0.23966256068E+02 -0.19683982250E+02 -0.10488219290E+02  0.32739018480E+02  0.00000000000E+00 0. -1.
<mgrwt>
<rscale>  0 0.12586594E+03</rscale>
<asrwt>0</asrwt>
<pdfrwt beam="2">  1        2 0.59908540E-01 0.13492079E+03</pdfrwt>
<pdfrwt beam="1">  1       -2 0.56437994E-02 0.13492079E+03</pdfrwt>
<totfact> 0.12631530E+04</totfact>
</mgrwt>
</event>
<event>
 7    1  0.1330601E-005  0.1305727E+03  0.7546771E-02  0.1240216E+00
          1   -1    0    0  501    0  0.00000000000E+00  0.00000000000E+00  0.21238233312E+03  0.21238233312E+03  0.00000000000E+00 0. -1.
         -1   -1    0    0    0  501 -0.00000000000E+00 -0.00000000000E+00 -0.62334275510E+02  0.62334275510E+02  0.00000000000E+00 0.  1.
         23    2    1    2    0    0 -0.24117356249E+02  0.29022208052E+02  0.76033306047E+02  0.12462529097E+03  0.91249460753E+02 0.  0.
          5    1    1    2  502    0 -0.26726555216E+02 -0.51936028862E+02  0.73658257625E+02  0.94123794887E+02  0.47000000000E+01 0.  1.
         -5    1    1    2    0  502  0.50843911465E+02  0.22913820810E+02  0.35649393352E+00  0.55967522771E+02  0.47000000000E+01 0.  1.
        -11    1    3    3    0    0 -0.48929538162E+02 -0.10569948206E+02  0.51625552279E+02  0.71909812668E+02  0.00000000000E+00 0. -1.
         11    1    3    3    0    0  0.24812181913E+02  0.39592156257E+02  0.24407753769E+02  0.52715478300E+02  0.00000000000E+00 0.  1.
<mgrwt>
<rscale>  0 0.12176346E+03</rscale>
<asrwt>0</asrwt>
<pdfrwt beam="1">  1        1 0.32674205E-01 0.13057266E+03</pdfrwt>
<pdfrwt beam="2">  1       -1 0.95898886E-02 0.13057266E+03</pdfrwt>
<totfact> 0.83414524E+03</totfact>
</mgrwt>
</event>
<event>
 6    1  0.1330601E-005  0.1478797E+03  0.7546771E-02  0.1206315E+00
         -1   -1    0    0    0  501 -0.00000000000E+00  0.00000000000E+00  0.21673208802E+03  0.21673208802E+03  0.00000000000E+00 0.  1.
          1   -1    0    0  501    0  0.00000000000E+00 -0.00000000000E+00 -0.12452991423E+03  0.12452991423E+03  0.00000000000E+00 0. -1.
          5    1    1    2  502    0 -0.82902983027E+02  0.21125721381E+01  0.92947146776E+02  0.12465403984E+03  0.47000000000E+01 0. -1.
         -5    1    1    2    0  502  0.38715490100E+02  0.36141578883E+02  0.36024127979E+02  0.64225623348E+02  0.47000000000E+01 0. -1.
        -11    1    1    2    0    0 -0.44242772769E+02 -0.19274319930E+02 -0.38789449021E+02  0.61915617629E+02  0.00000000000E+00 0.  1.
         11    1    1    2    0    0  0.88430265696E+02 -0.18979831091E+02  0.20203480538E+01  0.90466721426E+02  0.00000000000E+00 0. -1.
<mgrwt>
<rscale>  0 0.14534341E+03</rscale>
<asrwt>0</asrwt>
<pdfrwt beam="2">  1        1 0.19158448E-01 0.14787972E+03</pdfrwt>
<pdfrwt beam="1">  1       -1 0.33343398E-01 0.14787972E+03</pdfrwt>
<totfact> 0.22422692E+03</totfact>
</mgrwt>
</event>
<event>
 7    1  0.1330601E-005  0.1696331E+03  0.7546771E-02  0.1184584E+00
         -2   -1    0    0    0  501 -0.00000000000E+00  0.00000000000E+00  0.29383164935E+03  0.29383164935E+03  0.00000000000E+00 0.  1.
          2   -1    0    0  501    0  0.00000000000E+00 -0.00000000000E+00 -0.10069752562E+03  0.10069752562E+03  0.00000000000E+00 0. -1.
         23    2    1    2    0    0 -0.92777380890E+02  0.67384124452E+02  0.13924563417E+02  0.14776720341E+03  0.92157421315E+02 0.  0.
          5    1    1    2  502    0  0.99712522201E+02 -0.65292473120E+02  0.72252313906E+02  0.13945673521E+03  0.47000000000E+01 0.  1.
         -5    1    1    2    0  502 -0.69351413101E+01 -0.20916513325E+01  0.10695724641E+03  0.10730523636E+03  0.47000000000E+01 0.  1.
        -11    1    3    3    0    0 -0.40164985110E+02  0.30287804142E+02 -0.39620328866E+02  0.64033956368E+02  0.00000000000E+00 0.  1.
         11    1    3    3    0    0 -0.52612395780E+02  0.37096320310E+02  0.53544892283E+02  0.83733247040E+02  0.00000000000E+00 0. -1.
<mgrwt>
<rscale>  0 0.16369799E+03</rscale>
<asrwt>0</asrwt>
<pdfrwt beam="2">  1        2 0.15491927E-01 0.16963315E+03</pdfrwt>
<pdfrwt beam="1">  1       -2 0.45204869E-01 0.16963315E+03</pdfrwt>
<totfact> 0.17268879E+03</totfact>
</mgrwt>
</event>
<event>
 7    1  0.1330601E-005  0.1724106E+03  0.7546771E-02  0.1182947E+00
          2   -1    0    0  501    0  0.00000000000E+00  0.00000000000E+00  0.59476431132E+03  0.59476431132E+03  0.00000000000E+00 0. -1.
         -2   -1    0    0    0  501 -0.00000000000E+00 -0.00000000000E+00 -0.53521121292E+02  0.53521121292E+02  0.00000000000E+00 0.  1.
         23    2    1    2    0    0 -0.76878150689E+02  0.73875236631E+02  0.39942250013E+03  0.42504001714E+03  0.98756680397E+02 0.  0.
          5    1    1    2  502    0  0.66775680964E+02 -0.10304701413E+03  0.14699593464E+03  0.19159220623E+03  0.47000000000E+01 0. -1.
         -5    1    1    2    0  502  0.10102469725E+02  0.29171777496E+02 -0.51752447398E+01  0.31653209237E+02  0.47000000000E+01 0.  1.
        -11    1    3    3    0    0 -0.69268056263E+02  0.49319440626E+02  0.38746757614E+03  0.39668828241E+03  0.00000000000E+00 0.  1.
         11    1    3    3    0    0 -0.76100944265E+01  0.24555796004E+02  0.11954923984E+02  0.28351734727E+02  0.00000000000E+00 0. -1.
<mgrwt>
<rscale>  0 0.16520053E+03</rscale>
<asrwt>0</asrwt>
<pdfrwt beam="1">  1        2 0.91502197E-01 0.17241058E+03</pdfrwt>
<pdfrwt beam="2">  1       -2 0.82340191E-02 0.17241058E+03</pdfrwt>
<totfact> 0.45092521E+03</totfact>
</mgrwt>
</event>
<event>
 7    1  0.1330601E-005  0.1400378E+03  0.7546771E-02  0.1230208E+00
          1   -1    0    0  501    0  0.00000000000E+00  0.00000000000E+00  0.30381735208E+03  0.30381735208E+03  0.00000000000E+00 0. -1.
         -1   -1    0    0    0  501 -0.00000000000E+00 -0.00000000000E+00 -0.50192980231E+02  0.50192980231E+02  0.00000000000E+00 0.  1.
         23    2    1    2    0    0 -0.12635773643E+02 -0.61864722067E+02  0.15199248129E+03  0.18097961004E+03  0.75266182768E+02 0.  0.
          5    1    1    2  502    0  0.46275195302E+02 -0.98203723905E+01  0.76044512156E+02  0.89681052866E+02  0.47000000000E+01 0.  1.
         -5    1    1    2    0  502 -0.33639421659E+02  0.71685094457E+02  0.25587378404E+02  0.83349669408E+02  0.47000000000E+01 0.  1.
        -11    1    3    3    0    0 -0.38341416195E+02 -0.90669205391E+01  0.65491188161E+02  0.76428849073E+02  0.00000000000E+00 0.  1.
         11    1    3    3    0    0  0.25705642552E+02 -0.52797801528E+02  0.86501293130E+02  0.10455076096E+03  0.00000000000E+00 0. -1.
<mgrwt>
<rscale>  0 0.12816240E+03</rscale>
<asrwt>0</asrwt>
<pdfrwt beam="1">  1        1 0.46741130E-01 0.14003782E+03</pdfrwt>
<pdfrwt beam="2">  1       -1 0.77219971E-02 0.14003782E+03</pdfrwt>
<totfact> 0.74723656E+03</totfact>
</mgrwt>
</event>
<event>
 7    1  0.1330601E-005  0.1431483E+03  0.7546771E-02  0.1220070E+00
         -2   -1    0    0    0  501 -0.00000000000E+00  0.00000000000E+00  0.26225276644E+02  0.26225276644E+02  0.00000000000E+00 0.  1.
          2   -1    0    0  501    0  0.00000000000E+00 -0.00000000000E+00 -0.63566624101E+03  0.63566624101E+03  0.00000000000E+00 0. -1.
         23    2    1    2    0    0  0.69379294634E+02 -0.72591429478E+01 -0.30532105644E+03  0.32576601350E+03  0.89645782765E+02 0.  0.
          5    1    1    2  502    0 -0.86770381517E+02  0.20366608426E+02 -0.30060002385E+03  0.31357034647E+03  0.47000000000E+01 0.  1.
         -5    1    1    2    0  502  0.17391086882E+02 -0.13107465479E+02 -0.35198840809E+01  0.22555157684E+02  0.47000000000E+01 0.  1.
        -11    1    3    3    0    0  0.76559267401E+02  0.19973825185E+02 -0.16952501368E+03  0.18708021109E+03  0.00000000000E+00 0.  1.
         11    1    3    3    0    0 -0.71799727662E+01 -0.27232968133E+02 -0.13579604275E+03  0.13868580241E+03  0.00000000000E+00 0. -1.
<mgrwt>
<rscale>  0 0.13510583E+03</rscale>
<asrwt>0</asrwt>
<pdfrwt beam="2">  1        2 0.97794804E-01 0.14314830E+03</pdfrwt>
<pdfrwt beam="1">  1       -2 0.40346581E-02 0.14314830E+03</pdfrwt>
<totfact> 0.12224196E+04</totfact>
</mgrwt>
</event>
<event>
 7    1  0.1330601E-005  0.1369442E+03  0.7546771E-02  0.1229155E+00
          1   -1    0    0  501    0  0.00000000000E+00  0.00000000000E+00  0.20860249822E+03  0.20860249822E+03  0.00000000000E+00 0. -1.
         -1   -1    0    0    0  501 -0.00000000000E+00 -0.00000000000E+00 -0.71531095126E+02  0.71531095126E+02  0.00000000000E+00 0.  1.
         23    2    1    2    0    0  0.55783621897E+02 -0.40439885084E+01  0.60150032162E+02  0.12306474767E+03  0.91644636698E+02 0.  0.
          5    1    1    2  502    0 -0.84223742722E+02  0.37811690273E+02  0.54816660393E+02  0.10747241049E+03  0.47000000000E+01 0.  1.
         -5    1    1    2    0  502  0.28440120825E+02 -0.33767701764E+02  0.22104710536E+02  0.49596435183E+02  0.47000000000E+01 0.  1.
        -11    1    3    3    0    0  0.75617150307E+02 -0.83862984204E+00  0.67801452442E+02  0.10156620340E+03  0.00000000000E+00 0. -1.
         11    1    3    3    0    0 -0.19833528410E+02 -0.32053586663E+01 -0.76514202794E+01  0.21498544269E+02  0.00000000000E+00 0.  1.
<mgrwt>
<rscale>  0 0.12886113E+03</rscale>
<asrwt>0</asrwt>
<pdfrwt beam="1">  1        1 0.32092692E-01 0.13694424E+03</pdfrwt>
<pdfrwt beam="2">  1       -1 0.11004784E-01 0.13694424E+03</pdfrwt>
<totfact> 0.69350411E+03</totfact>
</mgrwt>
</event>
<event>
 7    1  0.1330601E-005  0.1733641E+03  0.7546771E-02  0.1180178E+00
         -2   -1    0    0    0  501 -0.00000000000E+00  0.00000000000E+00  0.12047462536E+03  0.12047462536E+03  0.00000000000E+00 0.  1.
          2   -1    0    0  501    0  0.00000000000E+00 -0.00000000000E+00 -0.32159019701E+03  0.32159019701E+03  0.00000000000E+00 0. -1.
         23    2    1    2    0    0  0.12013711518E+03 -0.51455078497E+00 -0.22023212219E+03  0.26764989655E+03  0.93279624097E+02 0.  0.
          5    1    1    2  502    0 -0.60227506707E+02 -0.42811306779E+02  0.54867799867E+02  0.92155987404E+02  0.47000000000E+01 0. -1.
         -5    1    1    2    0  502 -0.59909608469E+02  0.43325857564E+02 -0.35751249334E+02  0.82258938417E+02  0.47000000000E+01 0. -1.
        -11    1    3    3    0    0  0.12868046990E+03  0.13351379956E+02 -0.16274969892E+03  0.20790475507E+03  0.00000000000E+00 0.  1.
         11    1    3    3    0    0 -0.85433547278E+01 -0.13865930741E+02 -0.57482423267E+02  0.59745141476E+02  0.00000000000E+00 0. -1.
<mgrwt>
<rscale>  0 0.16778435E+03</rscale>
<asrwt>0</asrwt>
<pdfrwt beam="2">  1        2 0.49475415E-01 0.17336414E+03</pdfrwt>
<pdfrwt beam="1">  1       -2 0.18534558E-01 0.17336414E+03</pdfrwt>
<totfact> 0.23864367E+03</totfact>
</mgrwt>
</event>
<event>
 7    1  0.1330601E-005  0.1424797E+03  0.7546771E-02  0.1220703E+00
         -2   -1    0    0    0  501 -0.00000000000E+00  0.00000000000E+00  0.45287134974E+02  0.45287134974E+02  0.00000000000E+00 0.  1.
          2   -1    0    0  501    0  0.00000000000E+00 -0.00000000000E+00 -0.36222551924E+03  0.36222551924E+03  0.00000000000E+00 0. -1.
         23    2    1    2    0    0 -0.16460217091E+02 -0.66368296901E+02 -0.14130838037E+03  0.18135701385E+03  0.90810894327E+02 0.  0.
          5    1    1    2  502    0  0.53724863034E+02 -0.10842297368E+02 -0.85557934847E+02  0.10171610755E+03  0.47000000000E+01 0. -1.
         -5    1    1    2    0  502 -0.37264645943E+02  0.77210594269E+02 -0.90072069047E+02  0.12443953281E+03  0.47000000000E+01 0. -1.
        -11    1    3    3    0    0  0.43502029818E+01 -0.59506204377E+02 -0.27926649284E+02  0.65877237082E+02  0.00000000000E+00 0.  1.
         11    1    3    3    0    0 -0.20810420073E+02 -0.68620925244E+01 -0.11338173109E+03  0.11547977677E+03  0.00000000000E+00 0. -1.
<mgrwt>
<rscale>  0 0.13465806E+03</rscale>
<asrwt>0</asrwt>
<pdfrwt beam="2">  1        2 0.55727005E-01 0.14247974E+03</pdfrwt>
<pdfrwt beam="1">  1       -2 0.69672513E-02 0.14247974E+03</pdfrwt>
<totfact> 0.99431637E+03</totfact>
</mgrwt>
</event>
<event>
 7    1  0.1330601E-005  0.1296099E+03  0.7546771E-02  0.1241569E+00
         -2   -1    0    0    0  501 -0.00000000000E+00  0.00000000000E+00  0.61076234454E+02  0.61076234454E+02  0.00000000000E+00 0.  1.
          2   -1    0    0  501    0  0.00000000000E+00 -0.00000000000E+00 -0.25123373109E+03  0.25123373109E+03  0.00000000000E+00 0. -1.
         23    2    1    2    0    0  0.31987949294E+02  0.12290477082E+02 -0.14483799963E+03  0.17500522383E+03  0.92057033964E+02 0.  0.
          5    1    1    2  502    0 -0.25280320321E+02 -0.42226359730E+02  0.28612891206E+02  0.57122216298E+02  0.47000000000E+01 0. -1.
         -5    1    1    2    0  502 -0.67076289730E+01  0.29935882648E+02 -0.73932388210E+02  0.80182525421E+02  0.47000000000E+01 0. -1.
        -11    1    3    3    0    0  0.18916819464E+02 -0.22977267464E+02 -0.49777306361E+01  0.30175796278E+02  0.00000000000E+00 0.  1.
         11    1    3    3    0    0  0.13071129831E+02  0.35267744546E+02 -0.13986026900E+03  0.14482942755E+03  0.00000000000E+00 0. -1.
<mgrwt>
<rscale>  0 0.12093104E+03</rscale>
<asrwt>0</asrwt>
<pdfrwt beam="2">  1        2 0.38651344E-01 0.12960994E+03</pdfrwt>
<pdfrwt beam="1">  1       -2 0.93963437E-02 0.12960994E+03</pdfrwt>
<totfact> 0.91687983E+03</totfact>
</mgrwt>
</event>
<event>
 7    1  0.1330601E-005  0.1395431E+03  0.7546771E-02  0.1224991E+00
         -1   -1    0    0    0  501 -0.00000000000E+00  0.00000000000E+00  0.61782040766E+02  0.61782040766E+02  0.00000000000E+00 0.  1.
          1   -1    0    0  501    0  0.00000000000E+00 -0.00000000000E+00 -0.26335910160E+03  0.26335910160E+03  0.00000000000E+00 0. -1.
         23    2    1    2    0    0 -0.45139125219E+02  0.42562804355E+02 -0.12121294868E+03  0.16411111372E+03  0.91601014059E+02 0.  0.
          5    1    1    2  502    0 -0.40295393832E+02 -0.32886332619E+02 -0.20244865950E+02  0.56010483255E+02  0.47000000000E+01 0. -1.
         -5    1    1    2    0  502  0.85434519051E+02 -0.96764717363E+01 -0.60119246199E+02  0.10501954539E+03  0.47000000000E+01 0. -1.
        -11    1    3    3    0    0 -0.13852174581E+02  0.64235591739E+02 -0.47270127704E+02  0.80947878044E+02  0.00000000000E+00 0.  1.
         11    1    3    3    0    0 -0.31286950638E+02 -0.21672787383E+02 -0.73942820980E+02  0.83163235673E+02  0.00000000000E+00 0. -1.
<mgrwt>
<rscale>  0 0.13167503E+03</rscale>
<asrwt>0</asrwt>
<pdfrwt beam="2">  1        1 0.40516785E-01 0.13954311E+03</pdfrwt>
<pdfrwt beam="1">  1       -1 0.95049293E-02 0.13954311E+03</pdfrwt>
<totfact> 0.65086106E+03</totfact>
</mgrwt>
</event>
<event>
 7    1  0.1330601E-005  0.1848372E+03  0.7546771E-02  0.1168655E+00
          2   -1    0    0  501    0  0.00000000000E+00  0.00000000000E+00  0.34648873577E+03  0.34648873577E+03  0.00000000000E+00 0. -1.
         -2   -1    0    0    0  501 -0.00000000000E+00 -0.00000000000E+00 -0.91260502471E+02  0.91260502471E+02  0.00000000000E+00 0.  1.
         23    2    1    2    0    0  0.13481871223E+03 -0.19081537226E+02  0.16543180102E+03  0.23225425202E+03  0.89633512489E+02 0.  0.
          5    1    1    2  502    0  0.78496070499E+01  0.39572692692E+02  0.20692999664E+02  0.45584038575E+02  0.47000000000E+01 0.  1.
         -5    1    1    2    0  502 -0.14266831928E+03 -0.20491155465E+02  0.69103432619E+02  0.15991094765E+03  0.47000000000E+01 0.  1.
        -11    1    3    3    0    0  0.43919368751E+02 -0.35351423769E+02  0.19687615180E+02  0.59717973053E+02  0.00000000000E+00 0.  1.
         11    1    3    3    0    0  0.90899343480E+02  0.16269886543E+02  0.14574418584E+03  0.17253627896E+03  0.00000000000E+00 0. -1.
<mgrwt>
<rscale>  0 0.17912239E+03</rscale>
<asrwt>0</asrwt>
<pdfrwt beam="1">  1        2 0.53305959E-01 0.18483720E+03</pdfrwt>
<pdfrwt beam="2">  1       -2 0.14040077E-01 0.18483720E+03</pdfrwt>
<totfact> 0.35005866E+03</totfact>
</mgrwt>
</event>
<event>
 7    1  0.1330601E-005  0.1591741E+03  0.7546771E-02  0.1198939E+00
          1   -1    0    0  501    0  0.00000000000E+00  0.00000000000E+00  0.52244839540E+03  0.52244839540E+03  0.00000000000E+00 0. -1.
         -1   -1    0    0    0  501 -0.00000000000E+00 -0.00000000000E+00 -0.43485572873E+02  0.43485572873E+02  0.00000000000E+00 0.  1.
         23    2    1    2    0    0 -0.31416461888E+02  0.93424196625E+02  0.29734989053E+03  0.32443936415E+03  0.84432630058E+02 0.  0.
          5    1    1    2  502    0 -0.20441658221E+02 -0.96210738956E+02  0.78444276256E+02  0.12589663283E+03  0.47000000000E+01 0. -1.
         -5    1    1    2    0  502  0.51858120108E+02  0.27865423309E+01  0.10316865574E+03  0.11559797129E+03  0.47000000000E+01 0. -1.
        -11    1    3    3    0    0 -0.50470461309E+02  0.96994968987E+02  0.23598029645E+03  0.26008074090E+03  0.00000000000E+00 0.  1.
         11    1    3    3    0    0  0.19053999421E+02 -0.35707723618E+01  0.61369594078E+02  0.64358623249E+02  0.00000000000E+00 0. -1.
<mgrwt>
<rscale>  0 0.15125500E+03</rscale>
<asrwt>0</asrwt>
<pdfrwt beam="1">  1        1 0.80376672E-01 0.15917408E+03</pdfrwt>
<pdfrwt beam="2">  1       -1 0.66900885E-02 0.15917408E+03</pdfrwt>
<totfact> 0.46915430E+03</totfact>
</mgrwt>
</event>
<event>
 7    1  0.1330601E-005  0.2011669E+03  0.7546771E-02  0.1153772E+00
          2   -1    0    0  501    0  0.00000000000E+00  0.00000000000E+00  0.66311332328E+03  0.66311332328E+03  0.00000000000E+00 0. -1.
         -2   -1    0    0    0  501 -0.00000000000E+00 -0.00000000000E+00 -0.54896338302E+02  0.54896338302E+02  0.00000000000E+00 0.  1.
         23    2    1    2    0    0 -0.12562940824E+03  0.95183855160E+02  0.32044336334E+03  0.36689459490E+03  0.84172324214E+02 0.  0.
          5    1    1    2  502    0  0.10539460743E+03 -0.15461798854E+02  0.21984365661E+03  0.24433668134E+03  0.47000000000E+01 0.  1.
         -5    1    1    2    0  502  0.20234800811E+02 -0.79722056307E+02  0.67929965033E+02  0.10677838534E+03  0.47000000000E+01 0.  1.
        -11    1    3    3    0    0 -0.16107295690E+02  0.61921167494E+02  0.12412809367E+03  0.13964762653E+03  0.00000000000E+00 0. -1.
         11    1    3    3    0    0 -0.10952211255E+03  0.33262687667E+02  0.19631526967E+03  0.22724696837E+03  0.00000000000E+00 0.  1.
<mgrwt>
<rscale>  0 0.19529377E+03</rscale>
<asrwt>0</asrwt>
<pdfrwt beam="1">  1        2 0.10201743E+00 0.20116693E+03</pdfrwt>
<pdfrwt beam="2">  1       -2 0.84455910E-02 0.20116693E+03</pdfrwt>
<totfact> 0.38400124E+03</totfact>
</mgrwt>
</event>
<event>
 7    1  0.1330601E-005  0.1259989E+03  0.7546771E-02  0.1248824E+00
         -2   -1    0    0    0  501 -0.00000000000E+00  0.00000000000E+00  0.14309136936E+03  0.14309136936E+03  0.00000000000E+00 0.  1.
          2   -1    0    0  501    0  0.00000000000E+00 -0.00000000000E+00 -0.20766178804E+03  0.20766178804E+03  0.00000000000E+00 0. -1.
         23    2    1    2    0    0  0.98488627339E+01  0.11484623748E+02 -0.16534959711E+03  0.18940832237E+03  0.91137953877E+02 0.  0.
          5    1    1    2  502    0  0.47641858010E+02 -0.18049612961E+01  0.37542328690E+01  0.48054019440E+02  0.47000000000E+01 0.  1.
         -5    1    1    2    0  502 -0.57490720744E+02 -0.96796624515E+01  0.97024945558E+02  0.11329081559E+03  0.47000000000E+01 0.  1.
        -11    1    3    3    0    0 -0.13397116546E+02  0.39353643789E+02 -0.13754533256E+03  0.14369032856E+03  0.00000000000E+00 0. -1.
         11    1    3    3    0    0  0.23245979280E+02 -0.27869020042E+02 -0.27804264549E+02  0.45717993809E+02  0.00000000000E+00 0.  1.
<mgrwt>
<rscale>  0 0.11659383E+03</rscale>
<asrwt>0</asrwt>
<pdfrwt beam="2">  1        2 0.31947967E-01 0.12599886E+03</pdfrwt>
<pdfrwt beam="1">  1       -2 0.22014057E-01 0.12599886E+03</pdfrwt>
<totfact> 0.28053151E+03</totfact>
</mgrwt>
</event>
<event>
 7    1  0.1330601E-005  0.1766369E+03  0.7546771E-02  0.1177173E+00
         -2   -1    0    0    0  501 -0.00000000000E+00  0.00000000000E+00  0.26557941821E+02  0.26557941821E+02  0.00000000000E+00 0.  1.
          2   -1    0    0  501    0  0.00000000000E+00 -0.00000000000E+00 -0.10300061541E+04  0.10300061541E+04  0.00000000000E+00 0. -1.
         23    2    1    2    0    0 -0.61088371121E+02 -0.10883114728E+03 -0.48861930753E+03  0.51227613933E+03  0.90011152228E+02 0.  0.
          5    1    1    2  502    0 -0.33344705242E+02  0.38845767193E+02 -0.91875566446E+02  0.10528092280E+03  0.47000000000E+01 0. -1.
         -5    1    1    2    0  502  0.94433076362E+02  0.69985380090E+02 -0.42295333828E+03  0.43900703377E+03  0.47000000000E+01 0. -1.
        -11    1    3    3    0    0 -0.12453529319E+02  0.99058634202E+01 -0.16066567795E+02  0.22613074168E+02  0.00000000000E+00 0.  1.
         11    1    3    3    0    0 -0.48634841801E+02 -0.11873701070E+03 -0.47255273974E+03  0.48966306516E+03  0.00000000000E+00 0. -1.
<mgrwt>
<rscale>  0 0.17064916E+03</rscale>
<asrwt>0</asrwt>
<pdfrwt beam="2">  1        2 0.15846248E+00 0.17663685E+03</pdfrwt>
<pdfrwt beam="1">  1       -2 0.40858373E-02 0.17663685E+03</pdfrwt>
<totfact> 0.65834752E+03</totfact>
</mgrwt>
</event>
<event>
 7    1  0.1330601E-005  0.3154208E+03  0.7546771E-02  0.1079028E+00
         -2   -1    0    0    0  501 -0.00000000000E+00  0.00000000000E+00  0.91274264448E+02  0.91274264448E+02  0.00000000000E+00 0.  1.
          2   -1    0    0  501    0  0.00000000000E+00 -0.00000000000E+00 -0.12683648664E+04  0.12683648664E+04  0.00000000000E+00 0. -1.
         23    2    1    2    0    0 -0.19624435999E+02 -0.28502075363E+03 -0.85968028211E+03  0.91215773746E+03  0.10658143399E+03 0.  0.
          5    1    1    2  502    0  0.96964707058E+01  0.29811442938E+03 -0.29902814498E+03  0.42238152900E+03  0.47000000000E+01 0. -1.
         -5    1    1    2    0  502  0.99279652937E+01 -0.13093675756E+02 -0.18382174867E+02  0.25099864393E+02  0.47000000000E+01 0.  1.
        -11    1    3    3    0    0  0.40461390249E+02 -0.10215366551E+03 -0.25750904143E+03  0.27997035896E+03  0.00000000000E+00 0.  1.
         11    1    3    3    0    0 -0.60085826249E+02 -0.18286708812E+03 -0.60217124068E+03  0.63218737850E+03  0.00000000000E+00 0. -1.
<mgrwt>
<rscale>  0 0.31276443E+03</rscale>
<asrwt>0</asrwt>
<pdfrwt beam="2">  1        2 0.19513305E+00 0.31542081E+03</pdfrwt>
<pdfrwt beam="1">  1       -2 0.14042195E-01 0.31542081E+03</pdfrwt>
<totfact> 0.69782046E+02</totfact>
</mgrwt>
</event>
<event>
 7    1  0.1936022E-005  0.1257256E+03  0.7546771E-02  0.1250644E+00
         -1   -1    0    0    0  501 -0.00000000000E+00  0.00000000000E+00  0.20241305855E+02  0.20241305855E+02  0.00000000000E+00 0.  1.
          1   -1    0    0  501    0  0.00000000000E+00 -0.00000000000E+00 -0.58339980607E+03  0.58339980607E+03  0.00000000000E+00 0. -1.
         23    2    1    2    0    0  0.22987599369E+01 -0.13284915594E+02 -0.27498585121E+03  0.28923626812E+03  0.88648898203E+02 0.  0.
          5    1    1    2  502    0 -0.10835981621E+02 -0.55056832676E+02 -0.11735110935E+03  0.13016161565E+03  0.47000000000E+01 0. -1.
         -5    1    1    2    0  502  0.85372216836E+01  0.68341748271E+02 -0.17082153965E+03  0.18424322815E+03  0.47000000000E+01 0. -1.
        -11    1    3    3    0    0  0.37997992709E+02  0.81092065192E+01 -0.69924066868E+02  0.79993636045E+02  0.00000000000E+00 0.  1.
         11    1    3    3    0    0 -0.35699232772E+02 -0.21394122114E+02 -0.20506178434E+03  0.20924263208E+03  0.00000000000E+00 0. -1.
<mgrwt>
<rscale>  0 0.11553872E+03</rscale>
<asrwt>0</asrwt>
<pdfrwt beam="2">  1        1 0.89753832E-01 0.12572561E+03</pdfrwt>
<pdfrwt beam="1">  1       -1 0.31140465E-02 0.12572561E+03</pdfrwt>
<totfact> 0.12348583E+04</totfact>
</mgrwt>
</event>
<event>
 7    1  0.1330601E-005  0.1325196E+03  0.7546771E-02  0.1236201E+00
          2   -1    0    0  501    0  0.00000000000E+00  0.00000000000E+00  0.12536221058E+03  0.12536221058E+03  0.00000000000E+00 0. -1.
         -2   -1    0    0    0  501 -0.00000000000E+00 -0.00000000000E+00 -0.11908766125E+03  0.11908766125E+03  0.00000000000E+00 0.  1.
         23    2    1    2    0    0  0.28287083908E+02 -0.33718240710E+02  0.35990333990E+02  0.10863944546E+03  0.92575083563E+02 0.  0.
          5    1    1    2  502    0  0.26119081779E+02  0.30967552148E+02  0.33103991342E+02  0.52527706611E+02  0.47000000000E+01 0. -1.
         -5    1    1    2    0  502 -0.54406165687E+02  0.27506885624E+01 -0.62819776010E+02  0.83282719758E+02  0.47000000000E+01 0. -1.
        -11    1    3    3    0    0 -0.10796444615E+02  0.22996813662E+02 -0.83284801422E+01  0.26735374253E+02  0.00000000000E+00 0.  1.
         11    1    3    3    0    0  0.39083528523E+02 -0.56715054373E+02  0.44318814132E+02  0.81904071208E+02  0.00000000000E+00 0. -1.
<mgrwt>
<rscale>  0 0.12427852E+03</rscale>
<asrwt>0</asrwt>
<pdfrwt beam="1">  1        2 0.19286494E-01 0.13251960E+03</pdfrwt>
<pdfrwt beam="2">  1       -2 0.18321179E-01 0.13251960E+03</pdfrwt>
<totfact> 0.66983914E+03</totfact>
</mgrwt>
</event>
<event>
 7    1  0.1330601E-005  0.1419844E+03  0.7546771E-02  0.1220659E+00
         -1   -1    0    0    0  501 -0.00000000000E+00  0.00000000000E+00  0.78818581674E+02  0.78818581674E+02  0.00000000000E+00 0.  1.
          1   -1    0    0  501    0  0.00000000000E+00 -0.00000000000E+00 -0.25521701686E+03  0.25521701686E+03  0.00000000000E+00 0. -1.
         23    2    1    2    0    0  0.61327838475E-01 -0.67341438811E+02 -0.15100922493E+03  0.18979903674E+03  0.93193428911E+02 0.  0.
          5    1    1    2  502    0  0.53917232859E+02  0.62338802345E+02  0.35018533194E+01  0.82628973451E+02  0.47000000000E+01 0. -1.
         -5    1    1    2    0  502 -0.53978560697E+02  0.50026364662E+01 -0.28891063574E+02  0.61607588339E+02  0.47000000000E+01 0. -1.
        -11    1    3    3    0    0  0.23610446072E+02 -0.79354880612E+02 -0.84834963151E+02  0.11853953439E+03  0.00000000000E+00 0.  1.
         11    1    3    3    0    0 -0.23549118234E+02  0.12013441801E+02 -0.66174261780E+02  0.71259502353E+02  0.00000000000E+00 0. -1.
<mgrwt>
<rscale>  0 0.13468957E+03</rscale>
<asrwt>0</asrwt>
<pdfrwt beam="2">  1        1 0.39264157E-01 0.14198441E+03</pdfrwt>
<pdfrwt beam="1">  1       -1 0.12125936E-01 0.14198441E+03</pdfrwt>
<totfact> 0.46618630E+03</totfact>
</mgrwt>
</event>
<event>
 7    1  0.1791232E-005  0.2978103E+03  0.7546771E-02  0.1088097E+00
         -1   -1    0    0    0  501 -0.00000000000E+00  0.00000000000E+00  0.88478960606E+02  0.88478960606E+02  0.00000000000E+00 0. -1.
          1   -1    0    0  501    0  0.00000000000E+00 -0.00000000000E+00 -0.10061527858E+04  0.10061527858E+04  0.00000000000E+00 0.  1.
         23    2    1    2    0    0  0.85707105176E+02  0.25635935877E+03 -0.56934890052E+03  0.63635100046E+03  0.87855543725E+02 0.  0.
          5    1    1    2  502    0 -0.89678954173E+02 -0.21636470404E+03 -0.21154682337E+03  0.31564243766E+03  0.47000000000E+01 0.  1.
         -5    1    1    2    0  502  0.39718489969E+01 -0.39994654727E+02 -0.13677810133E+03  0.14263830830E+03  0.47000000000E+01 0.  1.
        -11    1    3    3    0    0  0.88088977228E+02  0.16855224080E+03 -0.32326286523E+03  0.37505786997E+03  0.00000000000E+00 0.  1.
         11    1    3    3    0    0 -0.23818720527E+01  0.87807117972E+02 -0.24608603529E+03  0.26129313050E+03  0.00000000000E+00 0. -1.
<mgrwt>
<rscale>  0 0.29435456E+03</rscale>
<asrwt>0</asrwt>
<pdfrwt beam="2">  1        1 0.15479273E+00 0.29781032E+03</pdfrwt>
<pdfrwt beam="1">  1       -1 0.13612148E-01 0.29781032E+03</pdfrwt>
<totfact> 0.59473224E+02</totfact>
</mgrwt>
</event>
<event>
 7    1  0.1330601E-005  0.1531162E+03  0.7546771E-02  0.1205360E+00
         -1   -1    0    0    0  501 -0.00000000000E+00  0.00000000000E+00  0.12179571379E+03  0.12179571379E+03  0.00000000000E+00 0.  1.
          1   -1    0    0  501    0  0.00000000000E+00 -0.00000000000E+00 -0.17330004288E+03  0.17330004288E+03  0.00000000000E+00 0. -1.
         23    2    1    2    0    0  0.88406001217E+02  0.21345230317E+01 -0.62763501918E+02  0.14156616525E+03  0.91002992985E+02 0.  0.
          5    1    1    2  502    0 -0.36013414664E+02 -0.19830663951E+02 -0.53890681703E+02  0.67944954507E+02  0.47000000000E+01 0. -1.
         -5    1    1    2    0  502 -0.52392586553E+02  0.17696140919E+02  0.65149854536E+02  0.85584636911E+02  0.47000000000E+01 0. -1.
        -11    1    3    3    0    0  0.40804838657E+02 -0.19834954319E+02 -0.75069507763E+02  0.87714829227E+02  0.00000000000E+00 0. -1.
         11    1    3    3    0    0  0.47601162560E+02  0.21969477350E+02  0.12306005845E+02  0.53851336028E+02  0.00000000000E+00 0.  1.
<mgrwt>
<rscale>  0 0.14609147E+03</rscale>
<asrwt>0</asrwt>
<pdfrwt beam="2">  1        1 0.26661545E-01 0.15311619E+03</pdfrwt>
<pdfrwt beam="1">  1       -1 0.18737802E-01 0.15311619E+03</pdfrwt>
<totfact> 0.38242096E+03</totfact>
</mgrwt>
</event>
<event>
 7    1  0.1330601E-005  0.1582581E+03  0.7546771E-02  0.1198504E+00
         -1   -1    0    0    0  501 -0.00000000000E+00  0.00000000000E+00  0.79179551423E+02  0.79179551423E+02  0.00000000000E+00 0.  1.
          1   -1    0    0  501    0  0.00000000000E+00 -0.00000000000E+00 -0.36001409057E+03  0.36001409057E+03  0.00000000000E+00 0. -1.
         23    2    1    2    0    0 -0.81847787465E+02  0.52163077181E+02 -0.24192468619E+03  0.27622250922E+03  0.91385304478E+02 0.  0.
          5    1    1    2  502    0  0.31535897384E+02  0.31545577861E+02 -0.46865805504E+02  0.64870101217E+02  0.47000000000E+01 0. -1.
         -5    1    1    2    0  502  0.50311890082E+02 -0.83708655042E+02  0.79559525483E+01  0.98101031562E+02  0.47000000000E+01 0. -1.
        -11    1    3    3    0    0 -0.19124769951E+02  0.28618258904E+02 -0.18539533092E+03  0.18856349142E+03  0.00000000000E+00 0. -1.
         11    1    3    3    0    0 -0.62723017515E+02  0.23544818276E+02 -0.56529355269E+02  0.87659017796E+02  0.00000000000E+00 0.  1.
<mgrwt>
<rscale>  0 0.15161401E+03</rscale>
<asrwt>0</asrwt>
<pdfrwt beam="2">  1        1 0.55386783E-01 0.15825806E+03</pdfrwt>
<pdfrwt beam="1">  1       -1 0.12181470E-01 0.15825806E+03</pdfrwt>
<totfact> 0.30335251E+03</totfact>
</mgrwt>
</event>
<event>
 7    1  0.1330601E-005  0.1333601E+03  0.7546771E-02  0.1239450E+00
          1   -1    0    0  501    0  0.00000000000E+00  0.00000000000E+00  0.52797697774E+02  0.52797697774E+02  0.00000000000E+00 0. -1.
         -1   -1    0    0    0  501 -0.00000000000E+00 -0.00000000000E+00 -0.25179146522E+03  0.25179146522E+03  0.00000000000E+00 0.  1.
         23    2    1    2    0    0  0.22620213740E+02  0.40611050344E+02 -0.58253268121E+02  0.11070054651E+03  0.81854970968E+02 0.  0.
          5    1    1    2  502    0 -0.44129311299E+02  0.15903561668E+02 -0.78232139295E+01  0.47787153772E+02  0.47000000000E+01 0. -1.
         -5    1    1    2    0  502  0.21509097560E+02 -0.56514612011E+02 -0.13291728540E+03  0.14610146271E+03  0.47000000000E+01 0. -1.
        -11    1    3    3    0    0  0.17355500129E+02  0.62717062623E+02 -0.23520338222E+02  0.69194289063E+02  0.00000000000E+00 0. -1.
         11    1    3    3    0    0  0.52647136108E+01 -0.22106012279E+02 -0.34732929899E+02  0.41506257452E+02  0.00000000000E+00 0.  1.
<mgrwt>
<rscale>  0 0.12223786E+03</rscale>
<asrwt>0</asrwt>
<pdfrwt beam="1">  1        1 0.81227228E-02 0.13336007E+03</pdfrwt>
<pdfrwt beam="2">  1       -1 0.38737148E-01 0.13336007E+03</pdfrwt>
<totfact> 0.52975510E+03</totfact>
</mgrwt>
</event>
<event>
 7    1  0.1330601E-005  0.1846960E+03  0.7546771E-02  0.1168607E+00
         -2   -1    0    0    0  501 -0.00000000000E+00  0.00000000000E+00  0.92095274028E+02  0.92095274028E+02  0.00000000000E+00 0.  1.
          2   -1    0    0  501    0  0.00000000000E+00 -0.00000000000E+00 -0.33045129044E+03  0.33045129044E+03  0.00000000000E+00 0. -1.
         23    2    1    2    0    0  0.12951423248E+03 -0.41395792475E+02 -0.12467244169E+03  0.20566744807E+03  0.90930376813E+02 0.  0.
          5    1    1    2  502    0  0.21911572561E+02  0.45254071967E+00  0.11100339604E+01  0.22442013737E+02  0.47000000000E+01 0. -1.
         -5    1    1    2    0  502 -0.15142580504E+03  0.40943251756E+02 -0.11479360868E+03  0.19443710266E+03  0.47000000000E+01 0. -1.
        -11    1    3    3    0    0 -0.12761135409E+02 -0.89070876488E+00 -0.22505301907E+02  0.25886841309E+02  0.00000000000E+00 0.  1.
         11    1    3    3    0    0  0.14227536789E+03 -0.40505083710E+02 -0.10216713978E+03  0.17978060676E+03  0.00000000000E+00 0. -1.
<mgrwt>
<rscale>  0 0.17917213E+03</rscale>
<asrwt>0</asrwt>
<pdfrwt beam="2">  1        2 0.50838660E-01 0.18469596E+03</pdfrwt>
<pdfrwt beam="1">  1       -2 0.14168504E-01 0.18469596E+03</pdfrwt>
<totfact> 0.36285081E+03</totfact>
</mgrwt>
</event>
<event>
 7    1  0.1330601E-005  0.1607874E+03  0.7546771E-02  0.1194923E+00
         -2   -1    0    0    0  501 -0.00000000000E+00  0.00000000000E+00  0.35295073089E+03  0.35295073089E+03  0.00000000000E+00 0.  1.
          2   -1    0    0  501    0  0.00000000000E+00 -0.00000000000E+00 -0.64276234594E+02  0.64276234594E+02  0.00000000000E+00 0. -1.
         23    2    1    2    0    0  0.97876850290E+02  0.25331145308E+02  0.10400518992E+03  0.17236920099E+03  0.93126350587E+02 0.  0.
          5    1    1    2  502    0 -0.74209560784E+02  0.43972080329E+02  0.11345632870E+03  0.14260095119E+03  0.47000000000E+01 0.  1.
         -5    1    1    2    0  502 -0.23667289506E+02 -0.69303225637E+02  0.71212977679E+02  0.10225681330E+03  0.47000000000E+01 0.  1.
        -11    1    3    3    0    0  0.82613197031E+02 -0.22375361671E+02  0.51914486517E+02  0.10010350166E+03  0.00000000000E+00 0. -1.
         11    1    3    3    0    0  0.15263653259E+02  0.47706506979E+02  0.52090703399E+02  0.72265699330E+02  0.00000000000E+00 0.  1.
<mgrwt>
<rscale>  0 0.15460715E+03</rscale>
<asrwt>0</asrwt>
<pdfrwt beam="2">  1        2 0.98886517E-02 0.16078735E+03</pdfrwt>
<pdfrwt beam="1">  1       -2 0.54300111E-01 0.16078735E+03</pdfrwt>
<totfact> 0.20572552E+03</totfact>
</mgrwt>
</event>
<event>
 7    1  0.1330601E-005  0.1812042E+03  0.7546771E-02  0.1172069E+00
         -2   -1    0    0    0  501 -0.00000000000E+00  0.00000000000E+00  0.11844332443E+03  0.11844332443E+03  0.00000000000E+00 0.  1.
          2   -1    0    0  501    0  0.00000000000E+00 -0.00000000000E+00 -0.25800035236E+03  0.25800035236E+03  0.00000000000E+00 0. -1.
         23    2    1    2    0    0 -0.91225289384E+02  0.94224628723E+02 -0.10655409314E+03  0.19225854467E+03  0.91701903758E+02 0.  0.
          5    1    1    2  502    0  0.93472318232E+02 -0.11053901144E+03 -0.56193054835E+02  0.15535667587E+03  0.47000000000E+01 0.  1.
         -5    1    1    2    0  502 -0.22470288484E+01  0.16314382721E+02  0.23190120041E+02  0.28828456250E+02  0.47000000000E+01 0.  1.
        -11    1    3    3    0    0 -0.49511370993E+02  0.99802571291E+02 -0.50905408293E+02  0.12248791650E+03  0.00000000000E+00 0.  1.
         11    1    3    3    0    0 -0.41713918390E+02 -0.55779425679E+01 -0.55648684846E+02  0.69770628175E+02  0.00000000000E+00 0. -1.
<mgrwt>
<rscale>  0 0.17566147E+03</rscale>
<asrwt>0</asrwt>
<pdfrwt beam="2">  1        2 0.39692362E-01 0.18120422E+03</pdfrwt>
<pdfrwt beam="1">  1       -2 0.18222050E-01 0.18120422E+03</pdfrwt>
<totfact> 0.31133857E+03</totfact>
</mgrwt>
</event>
<event>
 7    1  0.1330601E-005  0.1376150E+03  0.7546771E-02  0.1228292E+00
         -2   -1    0    0    0  501 -0.00000000000E+00  0.00000000000E+00  0.59369478600E+02  0.59369478600E+02  0.00000000000E+00 0. -1.
          2   -1    0    0  501    0  0.00000000000E+00 -0.00000000000E+00 -0.25516967312E+03  0.25516967312E+03  0.00000000000E+00 0.  1.
         23    2    1    2    0    0  0.46783366712E+02 -0.33528764798E+02 -0.73147317678E+02  0.13019812822E+03  0.91039337860E+02 0.  0.
          5    1    1    2  502    0  0.24246548413E+02  0.18774080718E+02 -0.10505937127E+03  0.10954415871E+03  0.47000000000E+01 0.  1.
         -5    1    1    2    0  502 -0.71029915125E+02  0.14754684080E+02 -0.17593505580E+02  0.74796864798E+02  0.47000000000E+01 0.  1.
        -11    1    3    3    0    0  0.19087209457E+02  0.31405293574E+02 -0.30192753047E+02  0.47562762387E+02  0.00000000000E+00 0.  1.
         11    1    3    3    0    0  0.27696157256E+02 -0.64934058371E+02 -0.42954564631E+02  0.82635365830E+02  0.00000000000E+00 0. -1.
<mgrwt>
<rscale>  0 0.12943786E+03</rscale>
<asrwt>0</asrwt>
<pdfrwt beam="2">  1        2 0.39256874E-01 0.13761499E+03</pdfrwt>
<pdfrwt beam="1">  1       -2 0.91337656E-02 0.13761499E+03</pdfrwt>
<totfact> 0.94683432E+03</totfact>
</mgrwt>
</event>
<event>
 7    1  0.1330601E-005  0.1153332E+03  0.7546771E-02  0.1261727E+00
          1   -1    0    0  501    0  0.00000000000E+00  0.00000000000E+00  0.24687591222E+02  0.24687591222E+02  0.00000000000E+00 0. -1.
         -1   -1    0    0    0  501 -0.00000000000E+00 -0.00000000000E+00 -0.10739448823E+04  0.10739448823E+04  0.00000000000E+00 0.  1.
         23    2    1    2    0    0  0.61396502222E+01 -0.10873721897E+02 -0.81059042814E+02  0.12358908698E+03  0.92454101403E+02 0.  0.
          5    1    1    2  502    0  0.18155654467E+02 -0.26566537744E+02 -0.89925697950E+02  0.95624943757E+02  0.47000000000E+01 0. -1.
         -5    1    1    2    0  502 -0.24295304690E+02  0.37440259641E+02 -0.87827255030E+03  0.87941844277E+03  0.47000000000E+01 0.  1.
        -11    1    3    3    0    0  0.62011393184E+01  0.20433297728E+02 -0.88806476449E+02  0.91337637610E+02  0.00000000000E+00 0.  1.
         11    1    3    3    0    0 -0.61489096255E-01 -0.31307019624E+02  0.77474336347E+01  0.32251449372E+02  0.00000000000E+00 0. -1.
<mgrwt>
<rscale>  0 0.10937771E+03</rscale>
<asrwt>0</asrwt>
<pdfrwt beam="1">  1        1 0.37980917E-02 0.11533325E+03</pdfrwt>
<pdfrwt beam="2">  1       -1 0.16522226E+00 0.11533325E+03</pdfrwt>
<totfact> 0.70101095E+02</totfact>
</mgrwt>
</event>
<event>
 6    1  0.1330601E-005  0.3085671E+03  0.7546771E-02  0.1081035E+00
         -2   -1    0    0    0  501 -0.00000000000E+00  0.00000000000E+00  0.63680538863E+03  0.63680538863E+03  0.00000000000E+00 0. -1.
          2   -1    0    0  501    0  0.00000000000E+00 -0.00000000000E+00 -0.37379425997E+02  0.37379425997E+02  0.00000000000E+00 0.  1.
          5    1    1    2  502    0 -0.63557475965E+01  0.40893764417E+02  0.33090008285E+02  0.53195245502E+02  0.47000000000E+01 0.  1.
         -5    1    1    2    0  502 -0.68790716168E+02 -0.36704269688E+02  0.30880354904E+03  0.31852957154E+03  0.47000000000E+01 0.  1.
        -11    1    1    2    0    0  0.69158309044E+02 -0.64819279922E+02  0.12760352524E+03  0.15895619023E+03  0.00000000000E+00 0.  1.
         11    1    1    2    0    0  0.59881547206E+01  0.60629785194E+02  0.12992888006E+03  0.14350380735E+03  0.00000000000E+00 0. -1.
<mgrwt>
<rscale>  0 0.30856714E+03</rscale>
<asrwt>0</asrwt>
<pdfrwt beam="2">  1        2 0.57506814E-02 0.30856714E+03</pdfrwt>
<pdfrwt beam="1">  1       -2 0.97970052E-01 0.30856714E+03</pdfrwt>
<totfact> 0.11785080E+03</totfact>
</mgrwt>
</event>
<event>
 7    1  0.1330601E-005  0.1409735E+03  0.7546771E-02  0.1217395E+00
         -2   -1    0    0    0  501 -0.00000000000E+00  0.00000000000E+00  0.26475431159E+02  0.26475431159E+02  0.00000000000E+00 0.  1.
          2   -1    0    0  501    0  0.00000000000E+00 -0.00000000000E+00 -0.91454331237E+03  0.91454331237E+03  0.00000000000E+00 0. -1.
         23    2    1    2    0    0  0.54274819396E+02  0.36146114285E+02 -0.66746351325E+03  0.67921765078E+03  0.10759543675E+03 0.  0.
          5    1    1    2  502    0  0.33635782635E+02  0.17152170438E+02 -0.61103684148E+02  0.71981338141E+02  0.47000000000E+01 0. -1.
         -5    1    1    2    0  502 -0.87910602031E+02 -0.53298284723E+02 -0.15950068382E+03  0.18981975461E+03  0.47000000000E+01 0. -1.
        -11    1    3    3    0    0  0.13593101352E+01 -0.36076387742E+02 -0.20858721849E+03  0.21168840590E+03  0.00000000000E+00 0. -1.
         11    1    3    3    0    0  0.52915509261E+02  0.72222502028E+02 -0.45887629476E+03  0.46752924487E+03  0.00000000000E+00 0.  1.
<mgrwt>
<rscale>  0 0.13702034E+03</rscale>
<asrwt>0</asrwt>
<pdfrwt beam="2">  1        2 0.14069897E+00 0.14097349E+03</pdfrwt>
<pdfrwt beam="1">  1       -2 0.40731434E-02 0.14097349E+03</pdfrwt>
<totfact> 0.77019879E+03</totfact>
</mgrwt>
</event>
<event>
 7    1  0.1330601E-005  0.1264365E+03  0.7546771E-02  0.1245225E+00
         -2   -1    0    0    0  501 -0.00000000000E+00  0.00000000000E+00  0.20902868343E+02  0.20902868343E+02  0.00000000000E+00 0.  1.
          2   -1    0    0  501    0  0.00000000000E+00 -0.00000000000E+00 -0.60571084006E+03  0.60571084006E+03  0.00000000000E+00 0. -1.
         23    2    1    2    0    0 -0.68953066709E+01 -0.17824468848E+02 -0.23912347716E+03  0.25853226027E+03  0.96403502672E+02 0.  0.
          5    1    1    2  502    0 -0.50512619256E+02 -0.21440779996E+01 -0.24637595184E+03  0.25155381416E+03  0.47000000000E+01 0. -1.
         -5    1    1    2    0  502  0.57407925927E+02  0.19968546848E+02 -0.99308542723E+02  0.11652763398E+03  0.47000000000E+01 0. -1.
        -11    1    3    3    0    0  0.25278135567E+02  0.20808325662E+02 -0.16962219472E+03  0.17275317507E+03  0.00000000000E+00 0. -1.
         11    1    3    3    0    0 -0.32173442238E+02 -0.38632794510E+02 -0.69501282436E+02  0.85779085198E+02  0.00000000000E+00 0.  1.
<mgrwt>
<rscale>  0 0.11871899E+03</rscale>
<asrwt>0</asrwt>
<pdfrwt beam="2">  1        2 0.93186290E-01 0.12643648E+03</pdfrwt>
<pdfrwt beam="1">  1       -2 0.32158257E-02 0.12643648E+03</pdfrwt>
<totfact> 0.17903376E+04</totfact>
</mgrwt>
</event>
<event>
 7    1  0.1330601E-005  0.1417034E+03  0.7546771E-02  0.1222058E+00
         -1   -1    0    0    0  501 -0.00000000000E+00  0.00000000000E+00  0.70270914809E+02  0.70270914809E+02  0.00000000000E+00 0.  1.
          1   -1    0    0  501    0  0.00000000000E+00 -0.00000000000E+00 -0.28170083111E+03  0.28170083111E+03  0.00000000000E+00 0. -1.
         23    2    1    2    0    0  0.17005648804E+02 -0.64539459994E+02 -0.17104214933E+03  0.20462509268E+03  0.90340897282E+02 0.  0.
          5    1    1    2  502    0 -0.69081872812E+02  0.53739209833E+02 -0.31960570989E+02  0.93294029405E+02  0.47000000000E+01 0. -1.
         -5    1    1    2    0  502  0.52076224008E+02  0.10800250161E+02 -0.84271959806E+01  0.54052623827E+02  0.47000000000E+01 0. -1.
        -11    1    3    3    0    0  0.11222888875E+02 -0.11138713416E+02  0.79849451042E+01  0.17713935745E+02  0.00000000000E+00 0.  1.
         11    1    3    3    0    0  0.57827599293E+01 -0.53400746578E+02 -0.17902709443E+03  0.18691115694E+03  0.00000000000E+00 0. -1.
<mgrwt>
<rscale>  0 0.13370589E+03</rscale>
<asrwt>0</asrwt>
<pdfrwt beam="2">  1        1 0.43338590E-01 0.14170344E+03</pdfrwt>
<pdfrwt beam="1">  1       -1 0.10810910E-01 0.14170344E+03</pdfrwt>
<totfact> 0.49231450E+03</totfact>
</mgrwt>
</event>
<event>
 7    1  0.1355813E-005  0.2356853E+03  0.7546771E-02  0.1125528E+00
         -2   -1    0    0    0  501 -0.00000000000E+00  0.00000000000E+00  0.32132204860E+03  0.32132204860E+03  0.00000000000E+00 0.  1.
          2   -1    0    0  501    0  0.00000000000E+00 -0.00000000000E+00 -0.16182954358E+03  0.16182954358E+03  0.00000000000E+00 0. -1.
         23    2    1    2    0    0 -0.19710897066E+03  0.32722292097E+02  0.63894338689E+02  0.22881608993E+03  0.91387207957E+02 0.  0.
          5    1    1    2  502    0 -0.48970077736E+01 -0.63166735662E+01 -0.18568765230E+02  0.20755001620E+02  0.47000000000E+01 0.  1.
         -5    1    1    2    0  502  0.20200597843E+03 -0.26405618530E+02  0.11416693157E+03  0.23358050063E+03  0.47000000000E+01 0.  1.
        -11    1    3    3    0    0 -0.44720643893E+02 -0.21978213303E+02  0.42515535802E+02  0.65502279615E+02  0.00000000000E+00 0.  1.
         11    1    3    3    0    0 -0.15238832677E+03  0.54700505400E+02  0.21378802888E+02  0.16331381031E+03  0.00000000000E+00 0. -1.
<mgrwt>
<rscale>  0 0.23158681E+03</rscale>
<asrwt>0</asrwt>
<pdfrwt beam="2">  1        2 0.24896853E-01 0.23568525E+03</pdfrwt>
<pdfrwt beam="1">  1       -2 0.49434161E-01 0.23568525E+03</pdfrwt>
<totfact> 0.84839663E+02</totfact>
</mgrwt>
</event>
<event>
 7    1  0.1330601E-005  0.1265127E+03  0.7546771E-02  0.1247438E+00
         -2   -1    0    0    0  501 -0.00000000000E+00  0.00000000000E+00  0.48302402557E+03  0.48302402557E+03  0.00000000000E+00 0.  1.
          2   -1    0    0  501    0  0.00000000000E+00 -0.00000000000E+00 -0.31893623017E+02  0.31893623017E+02  0.00000000000E+00 0. -1.
         23    2    1    2    0    0  0.79745153210E+01  0.17797504272E+02  0.81678045556E+02  0.12440451635E+03  0.91786908159E+02 0.  0.
          5    1    1    2  502    0 -0.59737072948E+02 -0.32596669528E+02  0.25463476080E+03  0.26361337629E+03  0.47000000000E+01 0.  1.
         -5    1    1    2    0  502  0.51762557627E+02  0.14799165256E+02  0.11481759620E+03  0.12689975595E+03  0.47000000000E+01 0.  1.
        -11    1    3    3    0    0  0.23704103540E+02  0.24024032751E+02  0.96300785982E+02  0.10204352040E+03  0.00000000000E+00 0.  1.
         11    1    3    3    0    0 -0.15729588219E+02 -0.62265284784E+01 -0.14622740426E+02  0.22360995953E+02  0.00000000000E+00 0. -1.
<mgrwt>
<rscale>  0 0.11740670E+03</rscale>
<asrwt>0</asrwt>
<pdfrwt beam="2">  1        2 0.49067116E-02 0.12651270E+03</pdfrwt>
<pdfrwt beam="1">  1       -2 0.74311383E-01 0.12651270E+03</pdfrwt>
<totfact> 0.25741234E+03</totfact>
</mgrwt>
</event>
<event>
 7    1  0.1330601E-005  0.1445466E+03  0.7546771E-02  0.1218645E+00
          1   -1    0    0  501    0  0.00000000000E+00  0.00000000000E+00  0.57855690315E+03  0.57855690315E+03  0.00000000000E+00 0. -1.
         -1   -1    0    0    0  501 -0.00000000000E+00 -0.00000000000E+00 -0.30903770747E+02  0.30903770747E+02  0.00000000000E+00 0.  1.
         23    2    1    2    0    0 -0.70901882814E+02 -0.15611354995E+02  0.32203289664E+03  0.34150879280E+03  0.87477297911E+02 0.  0.
          5    1    1    2  502    0 -0.18658287509E+02  0.39380403647E+02  0.35507173857E+02  0.56407422202E+02  0.47000000000E+01 0. -1.
         -5    1    1    2    0  502  0.89560170323E+02 -0.23769048651E+02  0.19011306191E+03  0.21154445890E+03  0.47000000000E+01 0. -1.
        -11    1    3    3    0    0 -0.11203123603E+02  0.24229218095E+02  0.27373814113E+02  0.38234679115E+02  0.00000000000E+00 0.  1.
         11    1    3    3    0    0 -0.59698759211E+02 -0.39840573090E+02  0.29465908253E+03  0.30327411368E+03  0.00000000000E+00 0. -1.
<mgrwt>
<rscale>  0 0.13612147E+03</rscale>
<asrwt>0</asrwt>
<pdfrwt beam="1">  1        1 0.89008746E-01 0.14454660E+03</pdfrwt>
<pdfrwt beam="2">  1       -1 0.47544267E-02 0.14454660E+03</pdfrwt>
<totfact> 0.67762743E+03</totfact>
</mgrwt>
</event>
<event>
 7    1  0.1330601E-005  0.1283438E+03  0.7546771E-02  0.1244081E+00
         -2   -1    0    0    0  501 -0.00000000000E+00  0.00000000000E+00  0.42491536972E+02  0.42491536972E+02  0.00000000000E+00 0.  1.
          2   -1    0    0  501    0  0.00000000000E+00 -0.00000000000E+00 -0.47162376330E+03  0.47162376330E+03  0.00000000000E+00 0. -1.
         23    2    1    2    0    0 -0.74803547360E+01  0.28134979847E+02 -0.35083608219E+03  0.36377431412E+03  0.91642033227E+02 0.  0.
          5    1    1    2  502    0  0.38618500071E+02  0.38359248881E+02 -0.36789836907E+02  0.65866551618E+02  0.47000000000E+01 0. -1.
         -5    1    1    2    0  502 -0.31138145335E+02 -0.66494228728E+02 -0.41506307235E+02  0.84474434531E+02  0.47000000000E+01 0. -1.
        -11    1    3    3    0    0  0.10295687089E+02  0.53809121366E+02 -0.29269262914E+03  0.29777575097E+03  0.00000000000E+00 0. -1.
         11    1    3    3    0    0 -0.17776041825E+02 -0.25674141519E+02 -0.58143453048E+02  0.65998563151E+02  0.00000000000E+00 0.  1.
<mgrwt>
<rscale>  0 0.11940545E+03</rscale>
<asrwt>0</asrwt>
<pdfrwt beam="2">  1        2 0.72557503E-01 0.12834378E+03</pdfrwt>
<pdfrwt beam="1">  1       -2 0.65371594E-02 0.12834378E+03</pdfrwt>
<totfact> 0.81976179E+03</totfact>
</mgrwt>
</event>
<event>
 7    1  0.1330601E-005  0.1616470E+03  0.7546771E-02  0.1194537E+00
         -2   -1    0    0    0  501 -0.00000000000E+00  0.00000000000E+00  0.85027775609E+02  0.85027775609E+02  0.00000000000E+00 0.  1.
          2   -1    0    0  501    0  0.00000000000E+00 -0.00000000000E+00 -0.27335239931E+03  0.27335239931E+03  0.00000000000E+00 0. -1.
         23    2    1    2    0    0  0.72044608483E+02 -0.72898512473E+02 -0.12415745266E+03  0.18446300443E+03  0.90038370806E+02 0.  0.
          5    1    1    2  502    0 -0.69775803716E+02 -0.45664668166E+01  0.45555541781E+01  0.70230751649E+02  0.47000000000E+01 0.  1.
         -5    1    1    2    0  502 -0.22688047673E+01  0.77464979290E+02 -0.68722725211E+02  0.10368641884E+03  0.47000000000E+01 0.  1.
        -11    1    3    3    0    0  0.55734271302E+02 -0.70054922172E+02 -0.13689954459E+03  0.16357104398E+03  0.00000000000E+00 0. -1.
         11    1    3    3    0    0  0.16310337181E+02 -0.28435903013E+01  0.12742091927E+02  0.20891960450E+02  0.00000000000E+00 0.  1.
<mgrwt>
<rscale>  0 0.15493463E+03</rscale>
<asrwt>0</asrwt>
<pdfrwt beam="2">  1        2 0.42054214E-01 0.16164701E+03</pdfrwt>
<pdfrwt beam="1">  1       -2 0.13081197E-01 0.16164701E+03</pdfrwt>
<totfact> 0.50271055E+03</totfact>
</mgrwt>
</event>
<event>
 7    1  0.1330601E-005  0.1289260E+03  0.7546771E-02  0.1242193E+00
          1   -1    0    0  501    0  0.00000000000E+00  0.00000000000E+00  0.12837871482E+03  0.12837871482E+03  0.00000000000E+00 0. -1.
         -1   -1    0    0    0  501 -0.00000000000E+00 -0.00000000000E+00 -0.10094920379E+03  0.10094920379E+03  0.00000000000E+00 0.  1.
         23    2    1    2    0    0  0.43914222176E+01  0.31410130968E+02  0.70117779998E+01  0.98795146845E+02  0.93302921138E+02 0.  0.
          5    1    1    2  502    0  0.29954483432E+02 -0.31220944032E+02 -0.41137821706E+02  0.59886799869E+02  0.47000000000E+01 0. -1.
         -5    1    1    2    0  502 -0.34345905649E+02 -0.18918693641E+00  0.61555554739E+02  0.70645971901E+02  0.47000000000E+01 0. -1.
        -11    1    3    3    0    0  0.65314456886E+00  0.63572152188E+02 -0.60894398230E+01  0.63866473278E+02  0.00000000000E+00 0. -1.
         11    1    3    3    0    0  0.37382776487E+01 -0.32162021220E+02  0.13101217823E+02  0.34928673567E+02  0.00000000000E+00 0.  1.
<mgrwt>
<rscale>  0 0.12054944E+03</rscale>
<asrwt>0</asrwt>
<pdfrwt beam="1">  1        1 0.19750572E-01 0.12892603E+03</pdfrwt>
<pdfrwt beam="2">  1       -1 0.15530647E-01 0.12892603E+03</pdfrwt>
<totfact> 0.74395431E+03</totfact>
</mgrwt>
</event>
<event>
 7    1  0.1330601E-005  0.1435825E+03  0.7546771E-02  0.1220498E+00
          4   -1    0    0  501    0  0.00000000000E+00  0.00000000000E+00  0.19876077853E+02  0.19876077853E+02  0.00000000000E+00 0. -1.
         -4   -1    0    0    0  501 -0.00000000000E+00 -0.00000000000E+00 -0.12395048877E+04  0.12395048877E+04  0.00000000000E+00 0.  1.
         23    2    1    2    0    0 -0.70566462759E+02  0.33470993001E+01 -0.19430049204E+03  0.22404811994E+03  0.86336840930E+02 0.  0.
          5    1    1    2  502    0 -0.26819228536E+02 -0.26403873600E+02 -0.42631204572E+03  0.42799589471E+03  0.47000000000E+01 0.  1.
         -5    1    1    2    0  502  0.97385691295E+02  0.23056774300E+02 -0.59901627211E+03  0.60733695093E+03  0.47000000000E+01 0.  1.
        -11    1    3    3    0    0  0.17785991378E+02  0.13414646601E+02 -0.32136240126E+02  0.39102840845E+02  0.00000000000E+00 0.  1.
         11    1    3    3    0    0 -0.88352454137E+02 -0.10067547301E+02 -0.16216425192E+03  0.18494527910E+03  0.00000000000E+00 0. -1.
<mgrwt>
<rscale>  0 0.13480315E+03</rscale>
<asrwt>0</asrwt>
<pdfrwt beam="1">  1        4 0.30578572E-02 0.14358253E+03</pdfrwt>
<pdfrwt beam="2">  1       -4 0.19069312E+00 0.14358253E+03</pdfrwt>
<totfact> 0.14827668E+02</totfact>
</mgrwt>
</event>
<event>
 7    1  0.1330601E-005  0.1462640E+03  0.7546771E-02  0.1225037E+00
          1   -1    0    0  501    0  0.00000000000E+00  0.00000000000E+00  0.53356293256E+03  0.53356293256E+03  0.00000000000E+00 0. -1.
         -1   -1    0    0    0  501 -0.00000000000E+00 -0.00000000000E+00 -0.29198076742E+02  0.29198076742E+02  0.00000000000E+00 0.  1.
         23    2    1    2    0    0  0.83491599137E+01 -0.34542505483E+02  0.26943683046E+03  0.28602225220E+03  0.89160697562E+02 0.  0.
          5    1    1    2  502    0  0.61928827066E+01 -0.45614388866E+02  0.27475953009E+02  0.53814888847E+02  0.47000000000E+01 0. -1.
         -5    1    1    2    0  502 -0.14542042620E+02  0.80156894349E+02  0.20745207235E+03  0.22292386825E+03  0.47000000000E+01 0.  1.
        -11    1    3    3    0    0 -0.18010535349E+02 -0.57213998217E+02  0.14761729004E+03  0.15933827316E+03  0.00000000000E+00 0. -1.
         11    1    3    3    0    0  0.26359695262E+02  0.22671492734E+02  0.12181954042E+03  0.12668397904E+03  0.00000000000E+00 0.  1.
<mgrwt>
<rscale>  0 0.13164381E+03</rscale>
<asrwt>0</asrwt>
<pdfrwt beam="1">  1        1 0.82086598E-01 0.14626402E+03</pdfrwt>
<pdfrwt beam="2">  1       -1 0.44920122E-02 0.14626402E+03</pdfrwt>
<totfact> 0.82182714E+03</totfact>
</mgrwt>
</event>
<event>
 7    1  0.1330601E-005  0.1636438E+03  0.7546771E-02  0.1188719E+00
          1   -1    0    0  501    0  0.00000000000E+00  0.00000000000E+00  0.10550967842E+04  0.10550967842E+04  0.00000000000E+00 0. -1.
         -1   -1    0    0    0  501 -0.00000000000E+00 -0.00000000000E+00 -0.26999051615E+02  0.26999051615E+02  0.00000000000E+00 0.  1.
         23    2    1    2    0    0 -0.51620436922E+02 -0.10671682261E+03  0.69598693547E+03  0.71185689872E+03  0.91045484049E+02 0.  0.
          5    1    1    2  502    0  0.25533774437E+02  0.73083204139E+02  0.31452363587E+03  0.32394495811E+03  0.47000000000E+01 0. -1.
         -5    1    1    2    0  502  0.26086662485E+02  0.33633618466E+02  0.17587161253E+02  0.46293979000E+02  0.47000000000E+01 0.  1.
        -11    1    3    3    0    0  0.26006462517E+02 -0.18291662771E+02  0.15212998726E+03  0.15541703267E+03  0.00000000000E+00 0. -1.
         11    1    3    3    0    0 -0.77626899439E+02 -0.88425159835E+02  0.54385694821E+03  0.55643986605E+03  0.00000000000E+00 0.  1.
<mgrwt>
<rscale>  0 0.15998009E+03</rscale>
<asrwt>0</asrwt>
<pdfrwt beam="1">  1        1 0.16232255E+00 0.16364379E+03</pdfrwt>
<pdfrwt beam="2">  1       -1 0.41537011E-02 0.16364379E+03</pdfrwt>
<totfact> 0.33442507E+03</totfact>
</mgrwt>
</event>
<event>
 7    1  0.1330601E-005  0.1462194E+03  0.7546771E-02  0.1216838E+00
         -2   -1    0    0    0  501 -0.00000000000E+00  0.00000000000E+00  0.33649984325E+02  0.33649984325E+02  0.00000000000E+00 0. -1.
          2   -1    0    0  501    0  0.00000000000E+00 -0.00000000000E+00 -0.57868791781E+03  0.57868791781E+03  0.00000000000E+00 0.  1.
         23    2    1    2    0    0  0.51010752400E+02 -0.45366372704E+02 -0.35294723836E+03  0.37092754394E+03  0.91407248913E+02 0.  0.
          5    1    1    2  502    0 -0.62401408547E+02 -0.17226423925E+02 -0.39399211657E+02  0.75928080109E+02  0.47000000000E+01 0. -1.
         -5    1    1    2    0  502  0.11390656147E+02  0.62592796629E+02 -0.15269148346E+03  0.16548227808E+03  0.47000000000E+01 0.  1.
        -11    1    3    3    0    0 -0.26550364012E+02 -0.11248444240E+02 -0.10577475411E+03  0.10963461102E+03  0.00000000000E+00 0. -1.
         11    1    3    3    0    0  0.77561116412E+02 -0.34117928464E+02 -0.24717248425E+03  0.26129293292E+03  0.00000000000E+00 0.  1.
<mgrwt>
<rscale>  0 0.13742363E+03</rscale>
<asrwt>0</asrwt>
<pdfrwt beam="2">  1        2 0.89028903E-01 0.14621944E+03</pdfrwt>
<pdfrwt beam="1">  1       -2 0.51769211E-02 0.14621944E+03</pdfrwt>
<totfact> 0.93833239E+03</totfact>
</mgrwt>
</event>
<event>
 7    1  0.1330601E-005  0.1329562E+03  0.7546771E-02  0.1240214E+00
         -1   -1    0    0    0  501 -0.00000000000E+00  0.00000000000E+00  0.57968593968E+02  0.57968593968E+02  0.00000000000E+00 0.  1.
          1   -1    0    0  501    0  0.00000000000E+00 -0.00000000000E+00 -0.22949399221E+03  0.22949399221E+03  0.00000000000E+00 0. -1.
         23    2    1    2    0    0  0.31866030601E+02  0.20496855585E+02 -0.98249471233E+02  0.13565118256E+03  0.85514441685E+02 0.  0.
          5    1    1    2  502    0  0.25303027381E+02  0.18131039993E+02  0.18792156301E+02  0.36663509711E+02  0.47000000000E+01 0. -1.
         -5    1    1    2    0  502 -0.57169057982E+02 -0.38627895578E+02 -0.92068083315E+02  0.11514789391E+03  0.47000000000E+01 0. -1.
        -11    1    3    3    0    0  0.27045174272E+02  0.47193747857E+02 -0.29800629379E+02  0.62022325009E+02  0.00000000000E+00 0.  1.
         11    1    3    3    0    0  0.48208563285E+01 -0.26696892272E+02 -0.68448841854E+02  0.73628857549E+02  0.00000000000E+00 0. -1.
<mgrwt>
<rscale>  0 0.12176479E+03</rscale>
<asrwt>0</asrwt>
<pdfrwt beam="2">  1        1 0.35306768E-01 0.13295616E+03</pdfrwt>
<pdfrwt beam="1">  1       -1 0.89182452E-02 0.13295616E+03</pdfrwt>
<totfact> 0.84733523E+03</totfact>
</mgrwt>
</event>
<event>
 7    1  0.1330601E-005  0.1483173E+03  0.7546771E-02  0.1212204E+00
         -2   -1    0    0    0  501 -0.00000000000E+00  0.00000000000E+00  0.12991624553E+03  0.12991624553E+03  0.00000000000E+00 0.  1.
          2   -1    0    0  501    0  0.00000000000E+00 -0.00000000000E+00 -0.14002876599E+03  0.14002876599E+03  0.00000000000E+00 0. -1.
         23    2    1    2    0    0 -0.79471279565E+02  0.74696757002E+01 -0.15167686106E+02  0.12154161115E+03  0.90392611474E+02 0.  0.
          5    1    1    2  502    0  0.10045030907E+02  0.47676207864E+02  0.28409512632E+02  0.56596058610E+02  0.47000000000E+01 0. -1.
         -5    1    1    2    0  502  0.69426248658E+02 -0.55145883565E+02 -0.23354346982E+02  0.91807341753E+02  0.47000000000E+01 0. -1.
        -11    1    3    3    0    0 -0.66938304148E+01  0.82407715438E+01 -0.42493258064E+02  0.43799482442E+02  0.00000000000E+00 0. -1.
         11    1    3    3    0    0 -0.72777449150E+02 -0.77109584358E+00  0.27325571959E+02  0.77742128711E+02  0.00000000000E+00 0.  1.
<mgrwt>
<rscale>  0 0.14083901E+03</rscale>
<asrwt>0</asrwt>
<pdfrwt beam="2">  1        2 0.21542887E-01 0.14831728E+03</pdfrwt>
<pdfrwt beam="1">  1       -2 0.19987115E-01 0.14831728E+03</pdfrwt>
<totfact> 0.51442120E+03</totfact>
</mgrwt>
</event>
<event>
 7    1  0.1330601E-005  0.1424648E+03  0.7546771E-02  0.1220947E+00
         -2   -1    0    0    0  501 -0.00000000000E+00  0.00000000000E+00  0.31158948259E+03  0.31158948259E+03  0.00000000000E+00 0. -1.
          2   -1    0    0  501    0  0.00000000000E+00 -0.00000000000E+00 -0.82599660535E+02  0.82599660535E+02  0.00000000000E+00 0.  1.
         23    2    1    2    0    0 -0.67958342433E+02 -0.67679475188E+01 -0.12487579420E+02  0.11381875216E+03  0.90192168635E+02 0.  0.
          5    1    1    2  502    0 -0.27036121686E+02  0.29801085094E+02  0.42990409050E+02  0.59070481790E+02  0.47000000000E+01 0. -1.
         -5    1    1    2    0  502  0.94994464119E+02 -0.23033137575E+02  0.19848699243E+03  0.22129990918E+03  0.47000000000E+01 0. -1.
        -11    1    3    3    0    0 -0.19430401403E+02 -0.16238249228E+02 -0.47092242074E+02  0.53468687100E+02  0.00000000000E+00 0.  1.
         11    1    3    3    0    0 -0.48527941030E+02  0.94703017089E+01  0.34604662654E+02  0.60350065057E+02  0.00000000000E+00 0. -1.
<mgrwt>
<rscale>  0 0.13448589E+03</rscale>
<asrwt>0</asrwt>
<pdfrwt beam="2">  1        2 0.12707640E-01 0.14246481E+03</pdfrwt>
<pdfrwt beam="1">  1       -2 0.47936843E-01 0.14246481E+03</pdfrwt>
<totfact> 0.19323281E+03</totfact>
</mgrwt>
</event>
<event>
 7    1  0.1330601E-005  0.1610502E+03  0.7546771E-02  0.1194700E+00
          1   -1    0    0  501    0  0.00000000000E+00  0.00000000000E+00  0.81783339398E+03  0.81783339398E+03  0.00000000000E+00 0. -1.
         -1   -1    0    0    0  501 -0.00000000000E+00 -0.00000000000E+00 -0.27436253265E+02  0.27436253265E+02  0.00000000000E+00 0.  1.
         23    2    1    2    0    0  0.22169703722E+02 -0.99094525980E+02  0.39999111912E+03  0.42294981080E+03  0.92641385144E+02 0.  0.
          5    1    1    2  502    0  0.43410002578E+02  0.77728906883E+02  0.18039726532E+03  0.20122493539E+03  0.47000000000E+01 0. -1.
         -5    1    1    2    0  502 -0.65579706300E+02  0.21365619098E+02  0.21000875627E+03  0.22109490105E+03  0.47000000000E+01 0. -1.
        -11    1    3    3    0    0  0.49526550718E+02 -0.20467322338E+02  0.17653723618E+03  0.18449169702E+03  0.00000000000E+00 0.  1.
         11    1    3    3    0    0 -0.27356846996E+02 -0.78627203643E+02  0.22345388294E+03  0.23845811379E+03  0.00000000000E+00 0. -1.
<mgrwt>
<rscale>  0 0.15479628E+03</rscale>
<asrwt>0</asrwt>
<pdfrwt beam="1">  1        1 0.12582050E+00 0.16105025E+03</pdfrwt>
<pdfrwt beam="2">  1       -1 0.42209626E-02 0.16105025E+03</pdfrwt>
<totfact> 0.49487737E+03</totfact>
</mgrwt>
</event>
<event>
 7    1  0.1330601E-005  0.1317331E+03  0.7546771E-02  0.1237922E+00
         -1   -1    0    0    0  501 -0.00000000000E+00  0.00000000000E+00  0.23353606770E+03  0.23353606770E+03  0.00000000000E+00 0.  1.
          1   -1    0    0  501    0  0.00000000000E+00 -0.00000000000E+00 -0.64891754689E+02  0.64891754689E+02  0.00000000000E+00 0. -1.
         23    2    1    2    0    0 -0.28445592560E+02  0.30318705454E+02  0.25571655483E+02  0.10394543597E+03  0.91773462718E+02 0.  0.
          5    1    1    2  502    0  0.12036060089E+02  0.48099031372E+02  0.40173304707E+02  0.63987248515E+02  0.47000000000E+01 0.  1.
         -5    1    1    2    0  502  0.16409532470E+02 -0.78417736826E+02  0.10289935282E+03  0.13049513790E+03  0.47000000000E+01 0.  1.
        -11    1    3    3    0    0 -0.30593862069E+02 -0.23834246219E+02  0.30763174005E+02  0.49501803644E+02  0.00000000000E+00 0.  1.
         11    1    3    3    0    0  0.21482695094E+01  0.54152951673E+02 -0.51915185218E+01  0.54443632330E+02  0.00000000000E+00 0. -1.
<mgrwt>
<rscale>  0 0.12319227E+03</rscale>
<asrwt>0</asrwt>
<pdfrwt beam="2">  1        1 0.99833470E-02 0.13173311E+03</pdfrwt>
<pdfrwt beam="1">  1       -1 0.35928625E-01 0.13173311E+03</pdfrwt>
<totfact> 0.45813536E+03</totfact>
</mgrwt>
</event>
<event>
 7    1  0.1330601E-005  0.2048708E+03  0.7546771E-02  0.1170998E+00
          4   -1    0    0  501    0  0.00000000000E+00  0.00000000000E+00  0.50867755760E+02  0.50867755760E+02  0.00000000000E+00 0. -1.
         -4   -1    0    0    0  501 -0.00000000000E+00 -0.00000000000E+00 -0.11936926204E+04  0.11936926204E+04  0.00000000000E+00 0.  1.
         23    2    1    2    0    0  0.22231168600E+02  0.69021442816E+02 -0.36159002691E+02  0.11909098161E+03  0.87275449004E+02 0.  0.
          5    1    1    2  502    0 -0.59555944043E+02 -0.16262245009E+02 -0.10637296343E+03  0.12307992701E+03  0.47000000000E+01 0. -1.
         -5    1    1    2    0  502  0.37324775443E+02 -0.52759197807E+02 -0.10002928985E+04  0.10023894675E+04  0.47000000000E+01 0.  1.
        -11    1    3    3    0    0  0.26345021460E+02  0.81620736744E+02 -0.57977732598E+01  0.85962893141E+02  0.00000000000E+00 0. -1.
         11    1    3    3    0    0 -0.41138528598E+01 -0.12599293929E+02 -0.30361229432E+02  0.33128088466E+02  0.00000000000E+00 0.  1.
<mgrwt>
<rscale>  0 0.17673769E+03</rscale>
<asrwt>0</asrwt>
<pdfrwt beam="1">  1        4 0.78258087E-02 0.20487076E+03</pdfrwt>
<pdfrwt beam="2">  1       -4 0.18364502E+00 0.20487076E+03</pdfrwt>
<totfact> 0.37728345E+01</totfact>
</mgrwt>
</event>
<event>
 7    1  0.1330601E-005  0.1648888E+03  0.7546771E-02  0.1190382E+00
         -1   -1    0    0    0  501 -0.00000000000E+00  0.00000000000E+00  0.82780138581E+03  0.82780138581E+03  0.00000000000E+00 0.  1.
          1   -1    0    0  501    0  0.00000000000E+00 -0.00000000000E+00 -0.28604163933E+02  0.28604163933E+02  0.00000000000E+00 0. -1.
         23    2    1    2    0    0 -0.98693941159E+02  0.42603870293E+02  0.31963492458E+03  0.34928789194E+03  0.90994300172E+02 0.  0.
          5    1    1    2  502    0  0.62304357893E+02 -0.58988913694E+02  0.13371956787E+03  0.15894822359E+03  0.47000000000E+01 0.  1.
         -5    1    1    2    0  502  0.36389583266E+02  0.16385043401E+02  0.34584272943E+03  0.34816943421E+03  0.47000000000E+01 0.  1.
        -11    1    3    3    0    0 -0.73953244511E+01 -0.24413575114E+02  0.38354389477E+02  0.46062703630E+02  0.00000000000E+00 0. -1.
         11    1    3    3    0    0 -0.91298616708E+02  0.67017445407E+02  0.28128053510E+03  0.30322518831E+03  0.00000000000E+00 0.  1.
<mgrwt>
<rscale>  0 0.15851630E+03</rscale>
<asrwt>0</asrwt>
<pdfrwt beam="2">  1        1 0.44006412E-02 0.16488882E+03</pdfrwt>
<pdfrwt beam="1">  1       -1 0.12735404E+00 0.16488882E+03</pdfrwt>
<totfact> 0.11241011E+03</totfact>
</mgrwt>
</event>
<event>
 7    1  0.1330601E-005  0.1460060E+03  0.7546771E-02  0.1215600E+00
          1   -1    0    0  501    0  0.00000000000E+00  0.00000000000E+00  0.23162306921E+02  0.23162306921E+02  0.00000000000E+00 0. -1.
         -1   -1    0    0    0  501 -0.00000000000E+00 -0.00000000000E+00 -0.76820782269E+03  0.76820782269E+03  0.00000000000E+00 0.  1.
         23    2    1    2    0    0  0.30305135176E+02 -0.69148992339E+02 -0.27304568612E+03  0.29730376062E+03  0.90197533270E+02 0.  0.
          5    1    1    2  502    0 -0.59639993495E+02  0.78713756462E+02 -0.43285255700E+03  0.44400023692E+03  0.47000000000E+01 0. -1.
         -5    1    1    2    0  502  0.29334858319E+02 -0.95647641231E+01 -0.39147272642E+02  0.50066132072E+02  0.47000000000E+01 0. -1.
        -11    1    3    3    0    0  0.44042644927E+02 -0.26047825672E+02 -0.22722307084E+03  0.23291321928E+03  0.00000000000E+00 0.  1.
         11    1    3    3    0    0 -0.13737509751E+02 -0.43101166667E+02 -0.45822615284E+02  0.64390541337E+02  0.00000000000E+00 0. -1.
<mgrwt>
<rscale>  0 0.13832561E+03</rscale>
<asrwt>0</asrwt>
<pdfrwt beam="1">  1        1 0.35634322E-02 0.14600595E+03</pdfrwt>
<pdfrwt beam="2">  1       -1 0.11818581E+00 0.14600595E+03</pdfrwt>
<totfact> 0.17894920E+03</totfact>
</mgrwt>
</event>
<event>
 7    1  0.1330601E-005  0.1485192E+03  0.7546771E-02  0.1214395E+00
         -1   -1    0    0    0  501 -0.00000000000E+00  0.00000000000E+00  0.30541757727E+03  0.30541757727E+03  0.00000000000E+00 0.  1.
          1   -1    0    0  501    0  0.00000000000E+00 -0.00000000000E+00 -0.12739143917E+03  0.12739143917E+03  0.00000000000E+00 0. -1.
         23    2    1    2    0    0  0.67906563883E+02  0.11469981278E+02 -0.76709416470E+02  0.13793926967E+03  0.91651762962E+02 0.  0.
          5    1    1    2  502    0  0.31895475220E+02 -0.14958038435E+01  0.13402773503E+03  0.13785892254E+03  0.47000000000E+01 0. -1.
         -5    1    1    2    0  502 -0.99802039103E+02 -0.99741774350E+01  0.12070781954E+03  0.15701082422E+03  0.47000000000E+01 0.  1.
        -11    1    3    3    0    0  0.78639713648E+01 -0.14600371781E+02  0.16923568316E+02  0.23694304512E+02  0.00000000000E+00 0.  1.
         11    1    3    3    0    0  0.60042592518E+02  0.26070353060E+02 -0.93632984786E+02  0.11424496516E+03  0.00000000000E+00 0. -1.
<mgrwt>
<rscale>  0 0.13921097E+03</rscale>
<asrwt>0</asrwt>
<pdfrwt beam="2">  1        1 0.19598683E-01 0.14851924E+03</pdfrwt>
<pdfrwt beam="1">  1       -1 0.46987319E-01 0.14851924E+03</pdfrwt>
<totfact> 0.11932448E+03</totfact>
</mgrwt>
</event>
<event>
 7    1  0.1330601E-005  0.1402238E+03  0.7546771E-02  0.1233036E+00
          3   -1    0    0  501    0  0.00000000000E+00  0.00000000000E+00  0.14056324305E+03  0.14056324305E+03  0.00000000000E+00 0. -1.
         -3   -1    0    0    0  501 -0.00000000000E+00 -0.00000000000E+00 -0.10838724625E+03  0.10838724625E+03  0.00000000000E+00 0.  1.
         23    2    1    2    0    0  0.99498263479E+01 -0.11752068006E+02  0.54131920644E+02  0.10701818486E+03  0.91024814809E+02 0.  0.
          5    1    1    2  502    0  0.37150522467E+02  0.53644571858E+02  0.17113030224E+02  0.67622830559E+02  0.47000000000E+01 0. -1.
         -5    1    1    2    0  502 -0.47100348815E+02 -0.41892503852E+02 -0.39068954061E+02  0.74309473884E+02  0.47000000000E+01 0.  1.
        -11    1    3    3    0    0 -0.31416668589E+02 -0.47413032341E+00 -0.71525124321E+01  0.32224063972E+02  0.00000000000E+00 0.  1.
         11    1    3    3    0    0  0.41366494937E+02 -0.11277937682E+02  0.61284433076E+02  0.74794120886E+02  0.00000000000E+00 0. -1.
<mgrwt>
<rscale>  0 0.12631008E+03</rscale>
<asrwt>0</asrwt>
<pdfrwt beam="1">  1        3 0.21625114E-01 0.14022381E+03</pdfrwt>
<pdfrwt beam="2">  1       -3 0.16674961E-01 0.14022381E+03</pdfrwt>
<totfact> 0.13944162E+03</totfact>
</mgrwt>
</event>
<event>
 7    1  0.1330601E-005  0.1769669E+03  0.7546771E-02  0.1193195E+00
         -1   -1    0    0    0  501 -0.00000000000E+00  0.00000000000E+00  0.13131375773E+03  0.13131375773E+03  0.00000000000E+00 0.  1.
          1   -1    0    0  501    0  0.00000000000E+00 -0.00000000000E+00 -0.35176645423E+03  0.35176645423E+03  0.00000000000E+00 0. -1.
         23    2    1    2    0    0  0.10924269080E+02  0.55624023341E+02 -0.27726001577E+03  0.29721912466E+03  0.90844482999E+02 0.  0.
          5    1    1    2  502    0  0.54530345530E+02  0.30104651708E+02 -0.28165810849E+01  0.62528967424E+02  0.47000000000E+01 0. -1.
         -5    1    1    2    0  502 -0.65454614609E+02 -0.85728675049E+02  0.59623900349E+02  0.12333211987E+03  0.47000000000E+01 0.  1.
        -11    1    3    3    0    0  0.18976469053E+02  0.72554447340E+02 -0.26349802514E+03  0.27396252200E+03  0.00000000000E+00 0. -1.
         11    1    3    3    0    0 -0.80521999731E+01 -0.16930423999E+02 -0.13761990624E+02  0.23256602657E+02  0.00000000000E+00 0.  1.
<mgrwt>
<rscale>  0 0.15607951E+03</rscale>
<asrwt>0</asrwt>
<pdfrwt beam="2">  1        1 0.54117916E-01 0.17696687E+03</pdfrwt>
<pdfrwt beam="1">  1       -1 0.20202117E-01 0.17696687E+03</pdfrwt>
<totfact> 0.14076926E+03</totfact>
</mgrwt>
</event>
<event>
 7    1  0.1330601E-005  0.1378178E+03  0.7546771E-02  0.1226859E+00
          2   -1    0    0  501    0  0.00000000000E+00  0.00000000000E+00  0.63398966874E+03  0.63398966874E+03  0.00000000000E+00 0.  1.
         -2   -1    0    0    0  501 -0.00000000000E+00 -0.00000000000E+00 -0.24825519591E+02  0.24825519591E+02  0.00000000000E+00 0. -1.
         23    2    1    2    0    0 -0.29575044284E+02 -0.49933042763E+02  0.31897434822E+03  0.33756159844E+03  0.93995776058E+02 0.  0.
          5    1    1    2  502    0 -0.29937586206E+02  0.29809490665E+02  0.23077491726E+03  0.23465723351E+03  0.47000000000E+01 0.  1.
         -5    1    1    2    0  502  0.59512630491E+02  0.20123552097E+02  0.59414883671E+02  0.86596356382E+02  0.47000000000E+01 0.  1.
        -11    1    3    3    0    0  0.21903157384E+02  0.14250225324E+01  0.19418559671E+02  0.29306303969E+02  0.00000000000E+00 0.  1.
         11    1    3    3    0    0 -0.51478201669E+02 -0.51358065295E+02  0.29955578855E+03  0.30825529447E+03  0.00000000000E+00 0. -1.
<mgrwt>
<rscale>  0 0.13040319E+03</rscale>
<asrwt>0</asrwt>
<pdfrwt beam="1">  1        2 0.97536860E-01 0.13781781E+03</pdfrwt>
<pdfrwt beam="2">  1       -2 0.38193112E-02 0.13781781E+03</pdfrwt>
<totfact> 0.13267739E+04</totfact>
</mgrwt>
</event>
<event>
 7    1  0.1330601E-005  0.1409033E+03  0.7546771E-02  0.1223044E+00
         -3   -1    0    0    0  501 -0.00000000000E+00  0.00000000000E+00  0.47298699033E+02  0.47298699033E+02  0.00000000000E+00 0.  1.
          3   -1    0    0  501    0  0.00000000000E+00 -0.00000000000E+00 -0.36018266546E+03  0.36018266546E+03  0.00000000000E+00 0. -1.
         23    2    1    2    0    0 -0.57731648227E+02 -0.29935219613E+02 -0.19005270960E+03  0.22055552090E+03  0.91080430357E+02 0.  0.
          5    1    1    2  502    0 -0.32898647220E+02 -0.85726630992E+01 -0.62620931712E+02  0.71409261514E+02  0.47000000000E+01 0. -1.
         -5    1    1    2    0  502  0.90630295448E+02  0.38507882712E+02 -0.60210325115E+02  0.11551658208E+03  0.47000000000E+01 0. -1.
        -11    1    3    3    0    0 -0.11237522420E+02 -0.20447712340E+02  0.13375196002E+01  0.23370490127E+02  0.00000000000E+00 0.  1.
         11    1    3    3    0    0 -0.46494125807E+02 -0.94875072726E+01 -0.19139022920E+03  0.19718503077E+03  0.00000000000E+00 0. -1.
<mgrwt>
<rscale>  0 0.13301846E+03</rscale>
<asrwt>0</asrwt>
<pdfrwt beam="2">  1        3 0.55412718E-01 0.14090335E+03</pdfrwt>
<pdfrwt beam="1">  1       -3 0.72767229E-02 0.14090335E+03</pdfrwt>
<totfact> 0.93811546E+02</totfact>
</mgrwt>
</event>
<event>
 7    1  0.1330601E-005  0.1881993E+03  0.7546771E-02  0.1168362E+00
          1   -1    0    0  501    0  0.00000000000E+00  0.00000000000E+00  0.31005855535E+02  0.31005855535E+02  0.00000000000E+00 0. -1.
         -1   -1    0    0    0  501 -0.00000000000E+00 -0.00000000000E+00 -0.97463916796E+03  0.97463916796E+03  0.00000000000E+00 0.  1.
         23    2    1    2    0    0 -0.41617741246E+02  0.11606198365E+03 -0.35220145192E+03  0.38499163086E+03  0.94711523378E+02 0.  0.
          5    1    1    2  502    0 -0.22851595895E+02 -0.16447463213E+02 -0.15252419799E+02  0.32364189945E+02  0.47000000000E+01 0. -1.
         -5    1    1    2    0  502  0.64469337141E+02 -0.99614520436E+02 -0.57617944070E+03  0.58828920269E+03  0.47000000000E+01 0.  1.
        -11    1    3    3    0    0 -0.43184989678E+02  0.76373480332E+02 -0.11583989491E+03  0.14531597670E+03  0.00000000000E+00 0. -1.
         11    1    3    3    0    0  0.15672484316E+01  0.39688503317E+02 -0.23636155702E+03  0.23967565416E+03  0.00000000000E+00 0.  1.
<mgrwt>
<rscale>  0 0.17942344E+03</rscale>
<asrwt>0</asrwt>
<pdfrwt beam="1">  1        1 0.47701322E-02 0.18819933E+03</pdfrwt>
<pdfrwt beam="2">  1       -1 0.14994447E+00 0.18819933E+03</pdfrwt>
<totfact> 0.66950808E+02</totfact>
</mgrwt>
</event>
<event>
 7    1  0.1330601E-005  0.1322685E+03  0.7546771E-02  0.1238338E+00
         -2   -1    0    0    0  501 -0.00000000000E+00  0.00000000000E+00  0.28977880163E+02  0.28977880163E+02  0.00000000000E+00 0. -1.
          2   -1    0    0  501    0  0.00000000000E+00 -0.00000000000E+00 -0.46042190222E+03  0.46042190222E+03  0.00000000000E+00 0.  1.
         23    2    1    2    0    0 -0.14788098166E+02  0.40648899112E+02 -0.18968911490E+03  0.21382693714E+03  0.88707259499E+02 0.  0.
          5    1    1    2  502    0  0.66881582408E+01 -0.78081180940E+02 -0.92083819454E+02  0.12100794223E+03  0.47000000000E+01 0.  1.
         -5    1    1    2    0  502  0.80999399256E+01  0.37432281828E+02 -0.14967108770E+03  0.15456490301E+03  0.47000000000E+01 0.  1.
        -11    1    3    3    0    0  0.23843407817E+02 -0.28720906549E+01 -0.12297788697E+03  0.12530090856E+03  0.00000000000E+00 0.  1.
         11    1    3    3    0    0 -0.38631505983E+02  0.43520989767E+02 -0.66711227933E+02  0.88526028586E+02  0.00000000000E+00 0. -1.
<mgrwt>
<rscale>  0 0.12293122E+03</rscale>
<asrwt>0</asrwt>
<pdfrwt beam="2">  1        2 0.70834133E-01 0.13226851E+03</pdfrwt>
<pdfrwt beam="1">  1       -2 0.44581357E-02 0.13226851E+03</pdfrwt>
<totfact> 0.15010099E+04</totfact>
</mgrwt>
</event>
<event>
 7    1  0.1330601E-005  0.1325978E+03  0.7546771E-02  0.1235431E+00
         -1   -1    0    0    0  501 -0.00000000000E+00  0.00000000000E+00  0.34417810686E+03  0.34417810686E+03  0.00000000000E+00 0.  1.
          1   -1    0    0  501    0  0.00000000000E+00 -0.00000000000E+00 -0.44310458855E+02  0.44310458855E+02  0.00000000000E+00 0. -1.
         23    2    1    2    0    0 -0.41904237728E+02  0.14225904298E+02  0.18878026342E+03  0.21550711949E+03  0.94058435037E+02 0.  0.
          5    1    1    2  502    0  0.50086223400E+02 -0.60360437260E+02  0.41232108738E+02  0.88736626889E+02  0.47000000000E+01 0. -1.
         -5    1    1    2    0  502 -0.81819856729E+01  0.46134532961E+02  0.69855275846E+02  0.84244819335E+02  0.47000000000E+01 0. -1.
        -11    1    3    3    0    0 -0.56143724320E+02 -0.12568553320E+02  0.17081631217E+03  0.18024510761E+03  0.00000000000E+00 0.  1.
         11    1    3    3    0    0  0.14239486593E+02  0.26794457618E+02  0.17963951247E+02  0.35262011881E+02  0.00000000000E+00 0. -1.
<mgrwt>
<rscale>  0 0.12476908E+03</rscale>
<asrwt>0</asrwt>
<pdfrwt beam="2">  1        1 0.68169939E-02 0.13259779E+03</pdfrwt>
<pdfrwt beam="1">  1       -1 0.52950476E-01 0.13259779E+03</pdfrwt>
<totfact> 0.38286840E+03</totfact>
</mgrwt>
</event>
<event>
 7    1  0.1330601E-005  0.1357264E+03  0.7546771E-02  0.1231075E+00
         -2   -1    0    0    0  501 -0.00000000000E+00  0.00000000000E+00  0.32083120750E+03  0.32083120750E+03  0.00000000000E+00 0.  1.
          2   -1    0    0  501    0  0.00000000000E+00 -0.00000000000E+00 -0.46067687793E+02  0.46067687793E+02  0.00000000000E+00 0. -1.
         23    2    1    2    0    0  0.43991116832E+02 -0.29358451074E+02  0.10100450131E+03  0.14641339015E+03  0.91857686241E+02 0.  0.
          5    1    1    2  502    0  0.36879797746E+02  0.38723550456E+02  0.59875662554E+02  0.80416526958E+02  0.47000000000E+01 0. -1.
         -5    1    1    2    0  502 -0.80870914578E+02 -0.93650993826E+01  0.11388335585E+03  0.14006897819E+03  0.47000000000E+01 0. -1.
        -11    1    3    3    0    0  0.28975942946E+02  0.14896620109E+02  0.93586166801E+02  0.99095333779E+02  0.00000000000E+00 0.  1.
         11    1    3    3    0    0  0.15015173886E+02 -0.44255071183E+02  0.74183345112E+01  0.47318056375E+02  0.00000000000E+00 0. -1.
<mgrwt>
<rscale>  0 0.12759093E+03</rscale>
<asrwt>0</asrwt>
<pdfrwt beam="2">  1        2 0.70873368E-02 0.13572642E+03</pdfrwt>
<pdfrwt beam="1">  1       -2 0.49358646E-01 0.13572642E+03</pdfrwt>
<totfact> 0.37394656E+03</totfact>
</mgrwt>
</event>
<event>
 7    1  0.1330601E-005  0.1302533E+03  0.7546771E-02  0.1240850E+00
          3   -1    0    0  501    0  0.00000000000E+00  0.00000000000E+00  0.47746962243E+02  0.47746962243E+02  0.00000000000E+00 0. -1.
         -3   -1    0    0    0  501 -0.00000000000E+00 -0.00000000000E+00 -0.27989674711E+03  0.27989674711E+03  0.00000000000E+00 0.  1.
         23    2    1    2    0    0 -0.28398642927E+02  0.23111899943E+02 -0.75209807618E+02  0.12369253349E+03  0.91119069579E+02 0.  0.
          5    1    1    2  502    0  0.23346576310E+02  0.36555539581E+02 -0.13180675570E+03  0.13883976717E+03  0.47000000000E+01 0.  1.
         -5    1    1    2    0  502  0.50520666170E+01 -0.59667439524E+02 -0.25133221549E+02  0.65111408692E+02  0.47000000000E+01 0.  1.
        -11    1    3    3    0    0 -0.26476036859E+02  0.55146418667E+02 -0.29689461315E+02  0.67996853844E+02  0.00000000000E+00 0. -1.
         11    1    3    3    0    0 -0.19226060678E+01 -0.32034518724E+02 -0.45520346303E+02  0.55695679649E+02  0.00000000000E+00 0.  1.
<mgrwt>
<rscale>  0 0.12137240E+03</rscale>
<asrwt>0</asrwt>
<pdfrwt beam="1">  1        3 0.73456864E-02 0.13025331E+03</pdfrwt>
<pdfrwt beam="2">  1       -3 0.43061038E-01 0.13025331E+03</pdfrwt>
<totfact> 0.15053479E+03</totfact>
</mgrwt>
</event>
<event>
 7    1  0.1330601E-005  0.1263565E+03  0.7546771E-02  0.1248085E+00
          1   -1    0    0  501    0  0.00000000000E+00  0.00000000000E+00  0.82425839749E+03  0.82425839749E+03  0.00000000000E+00 0. -1.
         -1   -1    0    0    0  501 -0.00000000000E+00 -0.00000000000E+00 -0.14659496641E+02  0.14659496641E+02  0.00000000000E+00 0.  1.
         23    2    1    2    0    0  0.10225159932E+02  0.15408017591E+02  0.31490857834E+03  0.32834519484E+03  0.91110884942E+02 0.  0.
          5    1    1    2  502    0  0.23947006897E+02  0.35855326874E+02  0.35736268959E+03  0.35998506291E+03  0.47000000000E+01 0.  1.
         -5    1    1    2    0  502 -0.34172166829E+02 -0.51263344465E+02  0.13732763292E+03  0.15058763639E+03  0.47000000000E+01 0.  1.
        -11    1    3    3    0    0 -0.26721201315E+02  0.40034802611E+02  0.17956968535E+03  0.18590879462E+03  0.00000000000E+00 0. -1.
         11    1    3    3    0    0  0.36946361246E+02 -0.24626785021E+02  0.13533889299E+03  0.14243640022E+03  0.00000000000E+00 0.  1.
<mgrwt>
<rscale>  0 0.11702597E+03</rscale>
<asrwt>0</asrwt>
<pdfrwt beam="1">  1        1 0.12680895E+00 0.12635650E+03</pdfrwt>
<pdfrwt beam="2">  1       -1 0.22553078E-02 0.12635650E+03</pdfrwt>
<totfact> 0.12046945E+04</totfact>
</mgrwt>
</event>
<event>
 7    1  0.1330601E-005  0.1441297E+03  0.7546771E-02  0.1217282E+00
          2   -1    0    0  501    0  0.00000000000E+00  0.00000000000E+00  0.40311884893E+03  0.40311884893E+03  0.00000000000E+00 0. -1.
         -2   -1    0    0    0  501 -0.00000000000E+00 -0.00000000000E+00 -0.57462857387E+02  0.57462857387E+02  0.00000000000E+00 0.  1.
         23    2    1    2    0    0 -0.62416520187E+02 -0.38684873504E+02  0.27668349438E+03  0.30079883562E+03  0.92378796340E+02 0.  0.
          5    1    1    2  502    0  0.22156445657E+02  0.38030140701E-01  0.95259900282E+02  0.97915515279E+02  0.47000000000E+01 0. -1.
         -5    1    1    2    0  502  0.40260074531E+02  0.38646843363E+02 -0.26287403128E+02  0.61867355418E+02  0.47000000000E+01 0.  1.
        -11    1    3    3    0    0 -0.19872938601E+02  0.24755399373E+02  0.34628807912E+02  0.46977843971E+02  0.00000000000E+00 0.  1.
         11    1    3    3    0    0 -0.42543581586E+02 -0.63440272876E+02  0.24205468647E+03  0.25382099165E+03  0.00000000000E+00 0. -1.
<mgrwt>
<rscale>  0 0.13710208E+03</rscale>
<asrwt>0</asrwt>
<pdfrwt beam="1">  1        2 0.62018283E-01 0.14412967E+03</pdfrwt>
<pdfrwt beam="2">  1       -2 0.88404399E-02 0.14412967E+03</pdfrwt>
<totfact> 0.61449773E+03</totfact>
</mgrwt>
</event>
<event>
 7    1  0.1330601E-005  0.1417728E+03  0.7546771E-02  0.1225872E+00
          1   -1    0    0  501    0  0.00000000000E+00  0.00000000000E+00  0.13976759849E+03  0.13976759849E+03  0.00000000000E+00 0. -1.
         -1   -1    0    0    0  501 -0.00000000000E+00 -0.00000000000E+00 -0.18724993101E+03  0.18724993101E+03  0.00000000000E+00 0.  1.
         23    2    1    2    0    0 -0.26376892580E+02 -0.41170285009E+02  0.84229448606E+02  0.13350393353E+03  0.91312471359E+02 0.  0.
          5    1    1    2  502    0 -0.37611665808E+02  0.22023844609E+02  0.20961341532E+01  0.43888163719E+02  0.47000000000E+01 0. -1.
         -5    1    1    2    0  502  0.63988558388E+02  0.19146440400E+02 -0.13380791527E+03  0.14962543225E+03  0.47000000000E+01 0.  1.
        -11    1    3    3    0    0 -0.32809231456E+00  0.24350422588E+02  0.93107202244E+00  0.24370425107E+02  0.00000000000E+00 0.  1.
         11    1    3    3    0    0 -0.26048800265E+02 -0.65520707597E+02  0.83298376584E+02  0.10913350842E+03  0.00000000000E+00 0. -1.
<mgrwt>
<rscale>  0 0.13107293E+03</rscale>
<asrwt>0</asrwt>
<pdfrwt beam="1">  1        1 0.21502708E-01 0.14177277E+03</pdfrwt>
<pdfrwt beam="2">  1       -1 0.28807682E-01 0.14177277E+03</pdfrwt>
<totfact> 0.24743038E+03</totfact>
</mgrwt>
</event>
<event>
 7    1  0.2744882E-005  0.2347168E+03  0.7546771E-02  0.1126297E+00
         -2   -1    0    0    0  501 -0.00000000000E+00  0.00000000000E+00  0.27177291955E+02  0.27177291955E+02  0.00000000000E+00 0.  1.
          2   -1    0    0  501    0  0.00000000000E+00 -0.00000000000E+00 -0.18880510955E+04  0.18880510955E+04  0.00000000000E+00 0. -1.
         23    2    1    2    0    0 -0.14435012448E+03 -0.13649045376E+03 -0.91419076529E+03  0.93988190971E+03  0.90369499641E+02 0.  0.
          5    1    1    2  502    0 -0.10175767311E+02  0.60806643200E+02 -0.21708720111E+03  0.22572092722E+03  0.47000000000E+01 0.  1.
         -5    1    1    2    0  502  0.15452589179E+03  0.75683810564E+02 -0.72959583712E+03  0.74962555050E+03  0.47000000000E+01 0.  1.
        -11    1    3    3    0    0 -0.77270161214E+02 -0.15316185119E+02 -0.37522580598E+03  0.38340535836E+03  0.00000000000E+00 0. -1.
         11    1    3    3    0    0 -0.67079963264E+02 -0.12117426864E+03 -0.53896495930E+03  0.55647655136E+03  0.00000000000E+00 0.  1.
<mgrwt>
<rscale>  0 0.23048725E+03</rscale>
<asrwt>0</asrwt>
<pdfrwt beam="2">  1        2 0.29046937E+00 0.23471680E+03</pdfrwt>
<pdfrwt beam="1">  1       -2 0.41811223E-02 0.23471680E+03</pdfrwt>
<totfact> 0.21897067E+03</totfact>
</mgrwt>
</event>
<event>
 7    1  0.1330601E-005  0.2294525E+03  0.7546771E-02  0.1127026E+00
         -2   -1    0    0    0  501 -0.00000000000E+00  0.00000000000E+00  0.17758531251E+02  0.17758531251E+02  0.00000000000E+00 0.  1.
          2   -1    0    0  501    0  0.00000000000E+00 -0.00000000000E+00 -0.74117126725E+03  0.74117126725E+03  0.00000000000E+00 0. -1.
         23    2    1    2    0    0 -0.85845743741E+01 -0.34764368625E+02 -0.26490923631E+03  0.28234479333E+03  0.90881365495E+02 0.  0.
          5    1    1    2  502    0  0.34204642836E+02 -0.38273722136E+02 -0.15571022397E+03  0.16402011842E+03  0.47000000000E+01 0. -1.
         -5    1    1    2    0  502 -0.25620068462E+02  0.73038090760E+02 -0.30279327572E+03  0.31256488675E+03  0.47000000000E+01 0. -1.
        -11    1    3    3    0    0  0.31300486190E+02 -0.10143204780E+02 -0.19761492962E+03  0.20033538242E+03  0.00000000000E+00 0. -1.
         11    1    3    3    0    0 -0.39885060564E+02 -0.24621163845E+02 -0.67294306689E+02  0.82009410911E+02  0.00000000000E+00 0.  1.
<mgrwt>
<rscale>  0 0.22945251E+03</rscale>
<asrwt>0</asrwt>
<pdfrwt beam="2">  1        2 0.11402636E+00 0.22945251E+03</pdfrwt>
<pdfrwt beam="1">  1       -2 0.27320814E-02 0.22945251E+03</pdfrwt>
<totfact> 0.18742097E+04</totfact>
</mgrwt>
</event>
<event>
 7    1  0.1330601E-005  0.2582125E+03  0.7546771E-02  0.1110381E+00
         -1   -1    0    0    0  501 -0.00000000000E+00  0.00000000000E+00  0.25880525647E+03  0.25880525647E+03  0.00000000000E+00 0.  1.
          1   -1    0    0  501    0  0.00000000000E+00 -0.00000000000E+00 -0.40647232447E+03  0.40647232447E+03  0.00000000000E+00 0. -1.
         23    2    1    2    0    0  0.17112701643E+03  0.14752864646E+03 -0.28286852653E+03  0.37381041027E+03  0.93115316936E+02 0.  0.
          5    1    1    2  502    0 -0.32966834908E+02 -0.17111710586E+02 -0.23213604969E+02  0.44052063501E+02  0.47000000000E+01 0.  1.
         -5    1    1    2    0  502 -0.13816018152E+03 -0.13041693587E+03  0.15841506349E+03  0.24741510718E+03  0.47000000000E+01 0.  1.
        -11    1    3    3    0    0  0.59592932821E+02  0.83974562680E+02 -0.67618510241E+02  0.12318809905E+03  0.00000000000E+00 0.  1.
         11    1    3    3    0    0  0.11153408360E+03  0.63554083777E+02 -0.21525001628E+03  0.25062231122E+03  0.00000000000E+00 0. -1.
<mgrwt>
<rscale>  0 0.25468158E+03</rscale>
<asrwt>0</asrwt>
<pdfrwt beam="2">  1        1 0.62534204E-01 0.25821247E+03</pdfrwt>
<pdfrwt beam="1">  1       -1 0.39816193E-01 0.25821247E+03</pdfrwt>
<totfact> 0.37217658E+02</totfact>
</mgrwt>
</event>
<event>
 7    1  0.1330601E-005  0.1409484E+03  0.7546771E-02  0.1222838E+00
          2   -1    0    0  501    0  0.00000000000E+00  0.00000000000E+00  0.23517265620E+03  0.23517265620E+03  0.00000000000E+00 0. -1.
         -2   -1    0    0    0  501 -0.00000000000E+00 -0.00000000000E+00 -0.73339645964E+02  0.73339645964E+02  0.00000000000E+00 0.  1.
         23    2    1    2    0    0 -0.19819744374E+01  0.65114853636E+02  0.11310255019E+03  0.15937778157E+03  0.91461565763E+02 0.  0.
          5    1    1    2  502    0 -0.34085573323E+02 -0.81288152845E+02  0.27445334880E+01  0.88313150582E+02  0.47000000000E+01 0.  1.
         -5    1    1    2    0  502  0.36067547761E+02  0.16173299209E+02  0.45985926561E+02  0.60821370014E+02  0.47000000000E+01 0.  1.
        -11    1    3    3    0    0  0.37216038530E+02  0.52391083999E+02  0.40699955130E+02  0.76068032405E+02  0.00000000000E+00 0.  1.
         11    1    3    3    0    0 -0.39198012968E+02  0.12723769637E+02  0.72402595060E+02  0.83309749164E+02  0.00000000000E+00 0. -1.
<mgrwt>
<rscale>  0 0.13316207E+03</rscale>
<asrwt>0</asrwt>
<pdfrwt beam="1">  1        2 0.36180408E-01 0.14094839E+03</pdfrwt>
<pdfrwt beam="2">  1       -2 0.11283023E-01 0.14094839E+03</pdfrwt>
<totfact> 0.74192398E+03</totfact>
</mgrwt>
</event>
<event>
 7    1  0.1330601E-005  0.1957524E+03  0.7546771E-02  0.1157896E+00
          2   -1    0    0  501    0  0.00000000000E+00  0.00000000000E+00  0.16859477390E+03  0.16859477390E+03  0.00000000000E+00 0. -1.
         -2   -1    0    0    0  501 -0.00000000000E+00 -0.00000000000E+00 -0.23192966828E+03  0.23192966828E+03  0.00000000000E+00 0.  1.
         23    2    1    2    0    0 -0.14876087489E+03  0.24061708552E+02 -0.98362085908E+02  0.20166290404E+03  0.91016829253E+02 0.  0.
          5    1    1    2  502    0  0.14967812702E+03 -0.44731452936E+02  0.58811435481E+02  0.16698898028E+03  0.47000000000E+01 0.  1.
         -5    1    1    2    0  502 -0.91725213339E+00  0.20669744384E+02 -0.23784243953E+02  0.31872557864E+02  0.47000000000E+01 0.  1.
        -11    1    3    3    0    0 -0.94005662544E+02 -0.17991032518E+01 -0.10014784057E+02  0.94554731571E+02  0.00000000000E+00 0. -1.
         11    1    3    3    0    0 -0.54755212344E+02  0.25860811803E+02 -0.88347301851E+02  0.10710817247E+03  0.00000000000E+00 0.  1.
<mgrwt>
<rscale>  0 0.19062857E+03</rscale>
<asrwt>0</asrwt>
<pdfrwt beam="1">  1        2 0.25937658E-01 0.19575241E+03</pdfrwt>
<pdfrwt beam="2">  1       -2 0.35681487E-01 0.19575241E+03</pdfrwt>
<totfact> 0.15130758E+03</totfact>
</mgrwt>
</event>
<event>
 7    1  0.1330601E-005  0.1299467E+03  0.7546771E-02  0.1239490E+00
          2   -1    0    0  501    0  0.00000000000E+00  0.00000000000E+00  0.20598746070E+02  0.20598746070E+02  0.00000000000E+00 0. -1.
         -2   -1    0    0    0  501 -0.00000000000E+00 -0.00000000000E+00 -0.10511803189E+04  0.10511803189E+04  0.00000000000E+00 0.  1.
         23    2    1    2    0    0  0.23832440358E+02  0.26317194692E+02 -0.14723216050E+03  0.17892278919E+03  0.95265289883E+02 0.  0.
          5    1    1    2  502    0 -0.71536414435E+02 -0.70565006599E+01 -0.37251312636E+03  0.37941451225E+03  0.47000000000E+01 0.  1.
         -5    1    1    2    0  502  0.47703974077E+02 -0.19260694032E+02 -0.51083628599E+03  0.51344176355E+03  0.47000000000E+01 0.  1.
        -11    1    3    3    0    0 -0.23168720468E+02 -0.66281663321E+00 -0.11179111055E+03  0.11416865302E+03  0.00000000000E+00 0.  1.
         11    1    3    3    0    0  0.47001160826E+02  0.26980011325E+02 -0.35441049955E+02  0.64754136177E+02  0.00000000000E+00 0. -1.
<mgrwt>
<rscale>  0 0.12221325E+03</rscale>
<asrwt>0</asrwt>
<pdfrwt beam="1">  1        2 0.31690371E-02 0.12994670E+03</pdfrwt>
<pdfrwt beam="2">  1       -2 0.16172009E+00 0.12994670E+03</pdfrwt>
<totfact> 0.73433247E+02</totfact>
</mgrwt>
</event>
<event>
 7    1  0.1330601E-005  0.1845291E+03  0.7546771E-02  0.1168987E+00
          1   -1    0    0  501    0  0.00000000000E+00  0.00000000000E+00  0.41940395916E+03  0.41940395916E+03  0.00000000000E+00 0. -1.
         -1   -1    0    0    0  501 -0.00000000000E+00 -0.00000000000E+00 -0.99627483978E+02  0.99627483978E+02  0.00000000000E+00 0.  1.
         23    2    1    2    0    0 -0.11599554793E+03  0.70498791691E+02  0.28950090038E+03  0.33203520717E+03  0.89507322090E+02 0.  0.
          5    1    1    2  502    0  0.13598720493E+03 -0.33060588092E+02  0.34114850183E+02  0.14412298704E+03  0.47000000000E+01 0. -1.
         -5    1    1    2    0  502 -0.19991657002E+02 -0.37438203599E+02 -0.38392753818E+01  0.42873248930E+02  0.47000000000E+01 0. -1.
        -11    1    3    3    0    0 -0.37286986456E+02  0.72491153260E+02  0.17526021831E+03  0.19329105199E+03  0.00000000000E+00 0.  1.
         11    1    3    3    0    0 -0.78708561475E+02 -0.19923615692E+01  0.11424068207E+03  0.13874415517E+03  0.00000000000E+00 0. -1.
<mgrwt>
<rscale>  0 0.17878222E+03</rscale>
<asrwt>0</asrwt>
<pdfrwt beam="1">  1        1 0.64523685E-01 0.18452908E+03</pdfrwt>
<pdfrwt beam="2">  1       -1 0.15327305E-01 0.18452908E+03</pdfrwt>
<totfact> 0.17529368E+03</totfact>
</mgrwt>
</event>
<event>
 7    1  0.1330601E-005  0.1331104E+03  0.7546771E-02  0.1231792E+00
          2   -1    0    0  501    0  0.00000000000E+00  0.00000000000E+00  0.63712933896E+03  0.63712933896E+03  0.00000000000E+00 0. -1.
         -2   -1    0    0    0  501 -0.00000000000E+00 -0.00000000000E+00 -0.24926399337E+02  0.24926399337E+02  0.00000000000E+00 0.  1.
         23    2    1    2    0    0  0.44733836171E+02  0.96175408705E+01  0.36327338053E+03  0.37977166646E+03  0.10082339238E+03 0.  0.
          5    1    1    2  502    0 -0.53907923212E+02  0.47110697031E+02  0.10438218041E+03  0.12666179987E+03  0.47000000000E+01 0. -1.
         -5    1    1    2    0  502  0.91740870413E+01 -0.56728237902E+02  0.14454737869E+03  0.15562227197E+03  0.47000000000E+01 0. -1.
        -11    1    3    3    0    0  0.47121789155E+02  0.45195416026E+02  0.15081693857E+03  0.16434365702E+03  0.00000000000E+00 0. -1.
         11    1    3    3    0    0 -0.23879529842E+01 -0.35577875155E+02  0.21245644196E+03  0.21542800944E+03  0.00000000000E+00 0.  1.
<mgrwt>
<rscale>  0 0.12712052E+03</rscale>
<asrwt>0</asrwt>
<pdfrwt beam="1">  1        2 0.98019886E-01 0.13311037E+03</pdfrwt>
<pdfrwt beam="2">  1       -2 0.38348311E-02 0.13311037E+03</pdfrwt>
<totfact> 0.13080845E+04</totfact>
</mgrwt>
</event>
<event>
 7    1  0.1330601E-005  0.1358773E+03  0.7546771E-02  0.1231020E+00
         -2   -1    0    0    0  501 -0.00000000000E+00  0.00000000000E+00  0.31233271825E+02  0.31233271825E+02  0.00000000000E+00 0.  1.
          2   -1    0    0  501    0  0.00000000000E+00 -0.00000000000E+00 -0.48628408641E+03  0.48628408641E+03  0.00000000000E+00 0. -1.
         23    2    1    2    0    0 -0.50291502233E+02  0.17569661308E+02 -0.25092466817E+03  0.27230293578E+03  0.91366140014E+02 0.  0.
          5    1    1    2  502    0  0.19086013561E+02  0.33457089628E+02 -0.73484393381E+01  0.39493573157E+02  0.47000000000E+01 0. -1.
         -5    1    1    2    0  502  0.31205488671E+02 -0.51026750936E+02 -0.19677770708E+03  0.20572084930E+03  0.47000000000E+01 0. -1.
        -11    1    3    3    0    0 -0.48495163585E+02 -0.19134818126E+02 -0.21380633911E+03  0.22007060867E+03  0.00000000000E+00 0. -1.
         11    1    3    3    0    0 -0.17963386478E+01  0.36704479434E+02 -0.37118329062E+02  0.52232327111E+02  0.00000000000E+00 0.  1.
<mgrwt>
<rscale>  0 0.12762712E+03</rscale>
<asrwt>0</asrwt>
<pdfrwt beam="2">  1        2 0.74812934E-01 0.13587726E+03</pdfrwt>
<pdfrwt beam="1">  1       -2 0.48051189E-02 0.13587726E+03</pdfrwt>
<totfact> 0.12669805E+04</totfact>
</mgrwt>
</event>
<event>
 7    1  0.1330601E-005  0.1509182E+03  0.7546771E-02  0.1208495E+00
          2   -1    0    0  501    0  0.00000000000E+00  0.00000000000E+00  0.23031130618E+03  0.23031130618E+03  0.00000000000E+00 0. -1.
         -2   -1    0    0    0  501 -0.00000000000E+00 -0.00000000000E+00 -0.85043795655E+02  0.85043795655E+02  0.00000000000E+00 0.  1.
         23    2    1    2    0    0 -0.19608723138E+01  0.84544213592E+02  0.95549961812E+02  0.15645852240E+03  0.90542282699E+02 0.  0.
          5    1    1    2  502    0  0.44065115886E+02 -0.58764132051E+01  0.53187958577E+02  0.69478886057E+02  0.47000000000E+01 0.  1.
         -5    1    1    2    0  502 -0.42104243573E+02 -0.78667800387E+02 -0.34704098654E+01  0.89417693379E+02  0.47000000000E+01 0.  1.
        -11    1    3    3    0    0  0.29992928145E+02  0.13250376154E+02  0.64559962597E+02  0.72409508889E+02  0.00000000000E+00 0.  1.
         11    1    3    3    0    0 -0.31953800459E+02  0.71293837439E+02  0.30989999215E+02  0.84049013509E+02  0.00000000000E+00 0. -1.
<mgrwt>
<rscale>  0 0.14365402E+03</rscale>
<asrwt>0</asrwt>
<pdfrwt beam="1">  1        2 0.35432508E-01 0.15091815E+03</pdfrwt>
<pdfrwt beam="2">  1       -2 0.13083661E-01 0.15091815E+03</pdfrwt>
<totfact> 0.60122636E+03</totfact>
</mgrwt>
</event>
<event>
 7    1  0.1330601E-005  0.1617901E+03  0.7546771E-02  0.1193846E+00
         -2   -1    0    0    0  501 -0.00000000000E+00  0.00000000000E+00  0.77191154219E+02  0.77191154219E+02  0.00000000000E+00 0.  1.
          2   -1    0    0  501    0  0.00000000000E+00 -0.00000000000E+00 -0.29252263726E+03  0.29252263726E+03  0.00000000000E+00 0. -1.
         23    2    1    2    0    0  0.20867765458E+02  0.10055694825E+03 -0.87534283978E+02  0.16353868281E+03  0.92387696288E+02 0.  0.
          5    1    1    2  502    0 -0.32066443277E+02  0.34524046024E+01 -0.88529849949E+02  0.94338752451E+02  0.47000000000E+01 0. -1.
         -5    1    1    2    0  502  0.11198677819E+02 -0.10400935286E+03 -0.39267349116E+02  0.11183635622E+03  0.47000000000E+01 0. -1.
        -11    1    3    3    0    0  0.40097837630E+02  0.60386665440E+01 -0.16633466755E+02  0.43828920732E+02  0.00000000000E+00 0.  1.
         11    1    3    3    0    0 -0.19230072172E+02  0.94518281710E+02 -0.70900817223E+02  0.11970976207E+03  0.00000000000E+00 0. -1.
<mgrwt>
<rscale>  0 0.15552274E+03</rscale>
<asrwt>0</asrwt>
<pdfrwt beam="2">  1        2 0.45003482E-01 0.16179015E+03</pdfrwt>
<pdfrwt beam="1">  1       -2 0.11875562E-01 0.16179015E+03</pdfrwt>
<totfact> 0.54643235E+03</totfact>
</mgrwt>
</event>
<event>
 7    1  0.3168976E-005  0.2631897E+03  0.7546771E-02  0.1107524E+00
          2   -1    0    0  501    0  0.00000000000E+00  0.00000000000E+00  0.19825982854E+03  0.19825982854E+03  0.00000000000E+00 0.  1.
         -2   -1    0    0    0  501 -0.00000000000E+00 -0.00000000000E+00 -0.37085830096E+03  0.37085830096E+03  0.00000000000E+00 0. -1.
         23    2    1    2    0    0  0.12864554683E+03 -0.19259753516E+03  0.10582976112E+02  0.24845593363E+03  0.89302095744E+02 0.  0.
          5    1    1    2  502    0 -0.10454077149E+03  0.12475473877E+03 -0.18755622150E+03  0.24837863027E+03  0.47000000000E+01 0. -1.
         -5    1    1    2    0  502 -0.24104775334E+02  0.67842796395E+02  0.43747729789E+01  0.72283565596E+02  0.47000000000E+01 0. -1.
        -11    1    3    3    0    0  0.91237760467E+02 -0.64556507447E+02  0.24238864055E+02  0.11436517879E+03  0.00000000000E+00 0. -1.
         11    1    3    3    0    0  0.37407786360E+02 -0.12804102772E+03 -0.13655887943E+02  0.13409075484E+03  0.00000000000E+00 0.  1.
<mgrwt>
<rscale>  0 0.25936740E+03</rscale>
<asrwt>0</asrwt>
<pdfrwt beam="1">  1        2 0.30501512E-01 0.26318967E+03</pdfrwt>
<pdfrwt beam="2">  1       -2 0.57055123E-01 0.26318967E+03</pdfrwt>
<totfact> 0.50702730E+02</totfact>
</mgrwt>
</event>
<event>
 7    1  0.1330601E-005  0.1500832E+03  0.7546771E-02  0.1209633E+00
         -2   -1    0    0    0  501 -0.00000000000E+00  0.00000000000E+00  0.14266189814E+03  0.14266189814E+03  0.00000000000E+00 0.  1.
          2   -1    0    0  501    0  0.00000000000E+00 -0.00000000000E+00 -0.13539154443E+03  0.13539154443E+03  0.00000000000E+00 0. -1.
         23    2    1    2    0    0  0.47878022085E+02 -0.67881514369E+02 -0.22664502785E+02  0.12501406603E+03  0.90634607232E+02 0.  0.
          5    1    1    2  502    0 -0.12404028958E+02 -0.32969270480E+02  0.29248540874E+02  0.46026078191E+02  0.47000000000E+01 0.  1.
         -5    1    1    2    0  502 -0.35473993127E+02  0.10085078485E+03  0.68631561893E+00  0.10701329834E+03  0.47000000000E+01 0.  1.
        -11    1    3    3    0    0  0.36646893724E+02 -0.55229585513E+02  0.27735122305E+02  0.71850810328E+02  0.00000000000E+00 0.  1.
         11    1    3    3    0    0  0.11231128361E+02 -0.12651928856E+02 -0.50399625090E+02  0.53163255706E+02  0.00000000000E+00 0. -1.
<mgrwt>
<rscale>  0 0.14278231E+03</rscale>
<asrwt>0</asrwt>
<pdfrwt beam="2">  1        2 0.20829468E-01 0.15008316E+03</pdfrwt>
<pdfrwt beam="1">  1       -2 0.21947984E-01 0.15008316E+03</pdfrwt>
<totfact> 0.45577272E+03</totfact>
</mgrwt>
</event>
<event>
 7    1  0.1330601E-005  0.5693997E+03  0.7546771E-02  0.9971008E-01
         -1   -1    0    0    0  501 -0.00000000000E+00  0.00000000000E+00  0.44037452162E+03  0.44037452162E+03  0.00000000000E+00 0.  1.
          1   -1    0    0  501    0  0.00000000000E+00 -0.00000000000E+00 -0.18405696562E+03  0.18405696562E+03  0.00000000000E+00 0. -1.
         23    2    1    2    0    0  0.13376884917E+02  0.83020180504E+02  0.53481080297E+02  0.13389710902E+03  0.89425490965E+02 0.  0.
          5    1    1    2  502    0 -0.15855577010E+03 -0.18988055057E+03  0.46242350525E+02  0.25170419285E+03  0.47000000000E+01 0. -1.
         -5    1    1    2    0  502  0.14517888519E+03  0.10686037007E+03  0.15659412518E+03  0.23883018535E+03  0.47000000000E+01 0.  1.
        -11    1    3    3    0    0  0.17539063460E+02  0.41375490298E+02  0.74545019784E+02  0.87043149754E+02  0.00000000000E+00 0.  1.
         11    1    3    3    0    0 -0.41621785430E+01  0.41644690206E+02 -0.21063939487E+02  0.46853959270E+02  0.00000000000E+00 0. -1.
<mgrwt>
<rscale>  0 0.56939968E+03</rscale>
<asrwt>0</asrwt>
<pdfrwt beam="2">  1        1 0.28316456E-01 0.56939968E+03</pdfrwt>
<pdfrwt beam="1">  1       -1 0.67749926E-01 0.56939968E+03</pdfrwt>
<totfact> 0.37096325E+02</totfact>
</mgrwt>
</event>
<event>
 7    1  0.1330601E-005  0.2564073E+03  0.7546771E-02  0.1111628E+00
          1   -1    0    0  501    0  0.00000000000E+00  0.00000000000E+00  0.15143497630E+04  0.15143497630E+04  0.00000000000E+00 0. -1.
         -1   -1    0    0    0  501 -0.00000000000E+00 -0.00000000000E+00 -0.42109064215E+02  0.42109064215E+02  0.00000000000E+00 0.  1.
         23    2    1    2    0    0  0.12536384648E+03  0.18548675877E+03  0.84277649306E+03  0.87677515823E+03  0.91329234906E+02 0.  0.
          5    1    1    2  502    0 -0.11565140182E+03 -0.15058163863E+03  0.35331338646E+03  0.40112655820E+03  0.47000000000E+01 0.  1.
         -5    1    1    2    0  502 -0.97124446585E+01 -0.34905120131E+02  0.27615081927E+03  0.27855711080E+03  0.47000000000E+01 0.  1.
        -11    1    3    3    0    0  0.78090444442E+02  0.11512772154E+03  0.34773970943E+03  0.37453359702E+03  0.00000000000E+00 0.  1.
         11    1    3    3    0    0  0.47273402041E+02  0.70359037222E+02  0.49503678364E+03  0.50224156122E+03  0.00000000000E+00 0. -1.
<mgrwt>
<rscale>  0 0.25267218E+03</rscale>
<asrwt>0</asrwt>
<pdfrwt beam="1">  1        1 0.23297685E+00 0.25640730E+03</pdfrwt>
<pdfrwt beam="2">  1       -1 0.64783187E-02 0.25640730E+03</pdfrwt>
<totfact> 0.83412132E+02</totfact>
</mgrwt>
</event>
<event>
 7    1  0.1330601E-005  0.2239777E+03  0.7546771E-02  0.1141648E+00
          1   -1    0    0  501    0  0.00000000000E+00  0.00000000000E+00  0.78663082114E+03  0.78663082114E+03  0.00000000000E+00 0. -1.
         -1   -1    0    0    0  501 -0.00000000000E+00 -0.00000000000E+00 -0.84514116903E+02  0.84514116903E+02  0.00000000000E+00 0.  1.
         23    2    1    2    0    0  0.78595877255E+01  0.14663424831E+03  0.60112002676E+03  0.62544927994E+03  0.90984280558E+02 0.  0.
          5    1    1    2  502    0 -0.39458610783E+01 -0.51895981967E+02  0.13507319841E+03  0.14482962989E+03  0.47000000000E+01 0. -1.
         -5    1    1    2    0  502 -0.39137266473E+01 -0.94738266346E+02 -0.34076520945E+02  0.10086602821E+03  0.47000000000E+01 0.  1.
        -11    1    3    3    0    0 -0.12277278585E+02  0.15152741630E+03  0.52874735917E+03  0.55016821000E+03  0.00000000000E+00 0. -1.
         11    1    3    3    0    0  0.20136866311E+02 -0.48931679923E+01  0.72372667594E+02  0.75281069947E+02  0.00000000000E+00 0.  1.
<mgrwt>
<rscale>  0 0.20989701E+03</rscale>
<asrwt>0</asrwt>
<pdfrwt beam="1">  1        1 0.12102012E+00 0.22397774E+03</pdfrwt>
<pdfrwt beam="2">  1       -1 0.13002172E-01 0.22397774E+03</pdfrwt>
<totfact> 0.95717470E+02</totfact>
</mgrwt>
</event>
<event>
 7    1  0.1330601E-005  0.1887974E+03  0.7546771E-02  0.1183287E+00
          1   -1    0    0  501    0  0.00000000000E+00  0.00000000000E+00  0.57933412384E+02  0.57933412384E+02  0.00000000000E+00 0. -1.
         -1   -1    0    0    0  501 -0.00000000000E+00 -0.00000000000E+00 -0.21774266001E+04  0.21774266001E+04  0.00000000000E+00 0.  1.
         23    2    1    2    0    0  0.38916861144E+02 -0.49406693007E+02 -0.24003610601E+01  0.10986559819E+03  0.90050788652E+02 0.  0.
          5    1    1    2  502    0 -0.74527002886E+02 -0.30551265967E+02 -0.54285323597E+03  0.54881634434E+03  0.47000000000E+01 0. -1.
         -5    1    1    2    0  502  0.35610141742E+02  0.79957958974E+02 -0.15742395907E+04  0.15766780700E+04  0.47000000000E+01 0.  1.
        -11    1    3    3    0    0  0.22353117156E+02  0.10832090908E+02 -0.32184073458E+02  0.40654773698E+02  0.00000000000E+00 0.  1.
         11    1    3    3    0    0  0.16563743987E+02 -0.60238783915E+02  0.29783712398E+02  0.69210824490E+02  0.00000000000E+00 0. -1.
<mgrwt>
<rscale>  0 0.16488706E+03</rscale>
<asrwt>0</asrwt>
<pdfrwt beam="1">  1        1 0.89128334E-02 0.18879743E+03</pdfrwt>
<pdfrwt beam="2">  1       -1 0.33498868E+00 0.18879743E+03</pdfrwt>
<totfact> 0.17960595E+01</totfact>
</mgrwt>
</event>
<event>
 7    1  0.1330601E-005  0.2810038E+03  0.7546771E-02  0.1095142E+00
         -2   -1    0    0    0  501 -0.00000000000E+00  0.00000000000E+00  0.62568441550E+03  0.62568441550E+03  0.00000000000E+00 0.  1.
          2   -1    0    0  501    0  0.00000000000E+00 -0.00000000000E+00 -0.31550710146E+02  0.31550710146E+02  0.00000000000E+00 0. -1.
         23    2    1    2    0    0 -0.58506230087E+02 -0.25365039775E+02  0.72279978456E+02  0.11384715537E+03  0.60583952479E+02 0.  0.
          5    1    1    2  502    0  0.68945863331E+02  0.10594619609E+02  0.51992073900E+03  0.52460026961E+03  0.47000000000E+01 0. -1.
         -5    1    1    2    0  502 -0.10439633243E+02  0.14770420166E+02  0.19329878984E+01  0.18787700667E+02  0.47000000000E+01 0.  1.
        -11    1    3    3    0    0 -0.27461639411E+02 -0.83304441322E+00 -0.41466782678E+01  0.27785437603E+02  0.00000000000E+00 0. -1.
         11    1    3    3    0    0 -0.31044590677E+02 -0.24531995361E+02  0.76426656724E+02  0.86061717765E+02  0.00000000000E+00 0.  1.
<mgrwt>
<rscale>  0 0.28100383E+03</rscale>
<asrwt>0</asrwt>
<pdfrwt beam="2">  1        2 0.48539559E-02 0.28100383E+03</pdfrwt>
<pdfrwt beam="1">  1       -2 0.96259132E-01 0.28100383E+03</pdfrwt>
<totfact> 0.15321413E+03</totfact>
</mgrwt>
</event>
<event>
 7    1  0.1330601E-005  0.1296012E+03  0.7546771E-02  0.1241981E+00
          2   -1    0    0  501    0  0.00000000000E+00  0.00000000000E+00  0.12361723100E+03  0.12361723100E+03  0.00000000000E+00 0. -1.
         -2   -1    0    0    0  501 -0.00000000000E+00 -0.00000000000E+00 -0.10515200234E+03  0.10515200234E+03  0.00000000000E+00 0.  1.
         23    2    1    2    0    0 -0.32065880687E+02  0.11961726470E+02  0.18471998734E+02  0.99168051879E+02  0.91223813622E+02 0.  0.
          5    1    1    2  502    0 -0.56800804373E+01  0.53129333896E+02  0.59949418585E+01  0.53972388885E+02  0.47000000000E+01 0.  1.
         -5    1    1    2    0  502  0.37745961125E+02 -0.65091060366E+02 -0.60017119395E+01  0.75628792579E+02  0.47000000000E+01 0.  1.
        -11    1    3    3    0    0  0.23690057630E+02 -0.96023707219E+01 -0.16003643790E+02  0.30158596926E+02  0.00000000000E+00 0.  1.
         11    1    3    3    0    0 -0.55755938318E+02  0.21564097191E+02  0.34475642524E+02  0.69009454952E+02  0.00000000000E+00 0. -1.
<mgrwt>
<rscale>  0 0.12067927E+03</rscale>
<asrwt>0</asrwt>
<pdfrwt beam="1">  1        2 0.19018035E-01 0.12960118E+03</pdfrwt>
<pdfrwt beam="2">  1       -2 0.16177231E-01 0.12960118E+03</pdfrwt>
<totfact> 0.83518306E+03</totfact>
</mgrwt>
</event>
<event>
 7    1  0.1330601E-005  0.1935113E+03  0.7546771E-02  0.1159901E+00
         -1   -1    0    0    0  501 -0.00000000000E+00  0.00000000000E+00  0.74147085546E+03  0.74147085546E+03  0.00000000000E+00 0.  1.
          1   -1    0    0  501    0  0.00000000000E+00 -0.00000000000E+00 -0.67284578234E+02  0.67284578234E+02  0.00000000000E+00 0. -1.
         23    2    1    2    0    0  0.64608735281E+02 -0.13284531266E+03  0.95139837795E+02  0.19822992250E+03  0.91767901063E+02 0.  0.
          5    1    1    2  502    0 -0.72646150886E+02  0.11637658175E+03  0.28985964252E+03  0.32072055497E+03  0.47000000000E+01 0. -1.
         -5    1    1    2    0  502  0.80374156051E+01  0.16468730917E+02  0.28918679691E+03  0.28980495623E+03  0.47000000000E+01 0. -1.
        -11    1    3    3    0    0  0.82057985495E+02 -0.10544438109E+03  0.97882522520E+02  0.16562916018E+03  0.00000000000E+00 0.  1.
         11    1    3    3    0    0 -0.17449250214E+02 -0.27400931570E+02 -0.27426847241E+01  0.32600762313E+02  0.00000000000E+00 0. -1.
<mgrwt>
<rscale>  0 0.18841209E+03</rscale>
<asrwt>0</asrwt>
<pdfrwt beam="2">  1        1 0.10351474E-01 0.19351129E+03</pdfrwt>
<pdfrwt beam="1">  1       -1 0.11407243E+00 0.19351129E+03</pdfrwt>
<totfact> 0.45694271E+02</totfact>
</mgrwt>
</event>
<event>
 7    1  0.1330601E-005  0.1259357E+03  0.7546771E-02  0.1248314E+00
          2   -1    0    0  501    0  0.00000000000E+00  0.00000000000E+00  0.58618467074E+03  0.58618467074E+03  0.00000000000E+00 0. -1.
         -2   -1    0    0    0  501 -0.00000000000E+00 -0.00000000000E+00 -0.21065253312E+02  0.21065253312E+02  0.00000000000E+00 0.  1.
         23    2    1    2    0    0  0.14573906949E+02 -0.46865199507E+01  0.28963254978E+03  0.30434267237E+03  0.92212179776E+02 0.  0.
          5    1    1    2  502    0  0.12784838068E+02 -0.47232271117E+02  0.51021142997E+02  0.70849040586E+02  0.47000000000E+01 0. -1.
         -5    1    1    2    0  502 -0.27358745018E+02  0.51918791067E+02  0.22446572465E+03  0.23205821110E+03  0.47000000000E+01 0. -1.
        -11    1    3    3    0    0  0.11238119597E+02  0.38855130799E+02  0.20664882432E+03  0.21057006699E+03  0.00000000000E+00 0.  1.
         11    1    3    3    0    0  0.33357873524E+01 -0.43541650749E+02  0.82983725462E+02  0.93772605375E+02  0.00000000000E+00 0. -1.
<mgrwt>
<rscale>  0 0.11689195E+03</rscale>
<asrwt>0</asrwt>
<pdfrwt beam="1">  1        2 0.90182244E-01 0.12593565E+03</pdfrwt>
<pdfrwt beam="2">  1       -2 0.32408087E-02 0.12593565E+03</pdfrwt>
<totfact> 0.18363937E+04</totfact>
</mgrwt>
</event>
<event>
 7    1  0.1330601E-005  0.1816194E+03  0.7546771E-02  0.1171646E+00
         -2   -1    0    0    0  501 -0.00000000000E+00  0.00000000000E+00  0.19450038132E+02  0.19450038132E+02  0.00000000000E+00 0.  1.
          2   -1    0    0  501    0  0.00000000000E+00 -0.00000000000E+00 -0.15050046763E+04  0.15050046763E+04  0.00000000000E+00 0. -1.
         23    2    1    2    0    0  0.48318707577E+02  0.12257851567E+03 -0.67974101524E+03  0.69842735983E+03  0.91611894140E+02 0.  0.
          5    1    1    2  502    0  0.31413247826E+02 -0.79334517899E+02 -0.49068951536E+03  0.49807534405E+03  0.47000000000E+01 0. -1.
         -5    1    1    2    0  502 -0.79731955403E+02 -0.43243997770E+02 -0.31512410758E+03  0.32795201057E+03  0.47000000000E+01 0. -1.
        -11    1    3    3    0    0  0.53569702521E+02  0.21603800169E+02 -0.20155804273E+03  0.20967136619E+03  0.00000000000E+00 0.  1.
         11    1    3    3    0    0 -0.52509949446E+01  0.10097471550E+03 -0.47818297251E+03  0.48875599364E+03  0.00000000000E+00 0. -1.
<mgrwt>
<rscale>  0 0.17608605E+03</rscale>
<asrwt>0</asrwt>
<pdfrwt beam="2">  1        2 0.23153914E+00 0.18161937E+03</pdfrwt>
<pdfrwt beam="1">  1       -2 0.29923141E-02 0.18161937E+03</pdfrwt>
<totfact> 0.57159444E+03</totfact>
</mgrwt>
</event>
<event>
 7    1  0.1330601E-005  0.1423839E+03  0.7546771E-02  0.1220653E+00
          1   -1    0    0  501    0  0.00000000000E+00  0.00000000000E+00  0.48711472969E+03  0.48711472969E+03  0.00000000000E+00 0. -1.
         -1   -1    0    0    0  501 -0.00000000000E+00 -0.00000000000E+00 -0.56326373986E+02  0.56326373986E+02  0.00000000000E+00 0.  1.
         23    2    1    2    0    0 -0.66391836044E+02  0.15499587430E+02  0.37254658563E+03  0.38960588738E+03  0.91398445896E+02 0.  0.
          5    1    1    2  502    0  0.13917261250E+02 -0.63404907174E+02  0.56850101343E+01  0.65332088246E+02  0.47000000000E+01 0. -1.
         -5    1    1    2    0  502  0.52474574794E+02  0.47905319744E+02  0.52556759942E+02  0.88503128053E+02  0.47000000000E+01 0. -1.
        -11    1    3    3    0    0 -0.34353013990E+02 -0.28057123630E+02  0.74577921328E+02  0.86770951973E+02  0.00000000000E+00 0.  1.
         11    1    3    3    0    0 -0.32038822054E+02  0.43556711060E+02  0.29796866430E+03  0.30283493540E+03  0.00000000000E+00 0. -1.
<mgrwt>
<rscale>  0 0.13469331E+03</rscale>
<asrwt>0</asrwt>
<pdfrwt beam="1">  1        1 0.74940725E-01 0.14238388E+03</pdfrwt>
<pdfrwt beam="2">  1       -1 0.86655963E-02 0.14238388E+03</pdfrwt>
<totfact> 0.34630632E+03</totfact>
</mgrwt>
</event>
<event>
 7    1  0.1330601E-005  0.1738486E+03  0.7546771E-02  0.1180001E+00
          2   -1    0    0  501    0  0.00000000000E+00  0.00000000000E+00  0.16990429622E+04  0.16990429622E+04  0.00000000000E+00 0. -1.
         -2   -1    0    0    0  501 -0.00000000000E+00 -0.00000000000E+00 -0.15574835414E+02  0.15574835414E+02  0.00000000000E+00 0.  1.
         23    2    1    2    0    0  0.11943461680E+03  0.18237911100E+02  0.80036331203E+03  0.81456366943E+03  0.91297816107E+02 0.  0.
          5    1    1    2  502    0 -0.15249079139E+02  0.26931008520E+02  0.48356398112E+02  0.57604208812E+02  0.47000000000E+01 0. -1.
         -5    1    1    2    0  502 -0.10418553766E+03 -0.45168919620E+02  0.83474841667E+03  0.84244991940E+03  0.47000000000E+01 0. -1.
        -11    1    3    3    0    0 -0.13187367553E+02 -0.89499560428E+01  0.74939264546E+02  0.76615284029E+02  0.00000000000E+00 0.  1.
         11    1    3    3    0    0  0.13262198435E+03  0.27187867143E+02  0.72542404748E+03  0.73794838540E+03  0.00000000000E+00 0. -1.
<mgrwt>
<rscale>  0 0.16795187E+03</rscale>
<asrwt>0</asrwt>
<pdfrwt beam="1">  1        2 0.26139108E+00 0.17384855E+03</pdfrwt>
<pdfrwt beam="2">  1       -2 0.23961299E-02 0.17384855E+03</pdfrwt>
<totfact> 0.62752739E+03</totfact>
</mgrwt>
</event>
<event>
 7    1  0.1330601E-005  0.1302194E+03  0.7546771E-02  0.1240727E+00
          1   -1    0    0  501    0  0.00000000000E+00  0.00000000000E+00  0.20726434856E+02  0.20726434856E+02  0.00000000000E+00 0. -1.
         -1   -1    0    0    0  501 -0.00000000000E+00 -0.00000000000E+00 -0.84247679778E+03  0.84247679778E+03  0.00000000000E+00 0.  1.
         23    2    1    2    0    0 -0.35988564822E+02  0.60797566094E+01 -0.15360170999E+03  0.18248323259E+03  0.91512319539E+02 0.  0.
          5    1    1    2  502    0  0.30171776937E+02  0.23521613780E+02 -0.63295937102E+03  0.63413189307E+03  0.47000000000E+01 0.  1.
         -5    1    1    2    0  502  0.58167878849E+01 -0.29601370389E+02 -0.35189281914E+02  0.46588106979E+02  0.47000000000E+01 0.  1.
        -11    1    3    3    0    0 -0.57457796052E+01  0.33006441304E+02 -0.13279790475E+03  0.13695883563E+03  0.00000000000E+00 0.  1.
         11    1    3    3    0    0 -0.30242785217E+02 -0.26926684695E+02 -0.20803805235E+02  0.45524396960E+02  0.00000000000E+00 0. -1.
<mgrwt>
<rscale>  0 0.12144802E+03</rscale>
<asrwt>0</asrwt>
<pdfrwt beam="1">  1        1 0.31886819E-02 0.13021941E+03</pdfrwt>
<pdfrwt beam="2">  1       -1 0.12961183E+00 0.13021941E+03</pdfrwt>
<totfact> 0.16661582E+03</totfact>
</mgrwt>
</event>
<event>
 7    1  0.1330601E-005  0.1714901E+03  0.7546771E-02  0.1182676E+00
         -2   -1    0    0    0  501 -0.00000000000E+00  0.00000000000E+00  0.78863340634E+02  0.78863340634E+02  0.00000000000E+00 0. -1.
          2   -1    0    0  501    0  0.00000000000E+00 -0.00000000000E+00 -0.32481022202E+03  0.32481022202E+03  0.00000000000E+00 0.  1.
         23    2    1    2    0    0  0.10733134821E+03 -0.47589353569E+02 -0.11676440364E+03  0.18897150997E+03  0.91057897734E+02 0.  0.
          5    1    1    2  502    0 -0.10778096621E+03 -0.94193511033E+01 -0.11001468666E+03  0.15437221944E+03  0.47000000000E+01 0. -1.
         -5    1    1    2    0  502  0.44961799996E+00  0.57008704673E+02 -0.19167791079E+02  0.60329833247E+02  0.47000000000E+01 0. -1.
        -11    1    3    3    0    0  0.32988943097E+02 -0.56637058583E+02 -0.24116335467E+02  0.69839991466E+02  0.00000000000E+00 0. -1.
         11    1    3    3    0    0  0.74342405114E+02  0.90477050138E+01 -0.92648068172E+02  0.11913151850E+03  0.00000000000E+00 0.  1.
<mgrwt>
<rscale>  0 0.16545127E+03</rscale>
<asrwt>0</asrwt>
<pdfrwt beam="2">  1        2 0.49970802E-01 0.17149011E+03</pdfrwt>
<pdfrwt beam="1">  1       -2 0.12132822E-01 0.17149011E+03</pdfrwt>
<totfact> 0.47361312E+03</totfact>
</mgrwt>
</event>
<event>
 7    1  0.1330601E-005  0.1790308E+03  0.7546771E-02  0.1174268E+00
          2   -1    0    0  501    0  0.00000000000E+00  0.00000000000E+00  0.14689453590E+03  0.14689453590E+03  0.00000000000E+00 0.  1.
         -2   -1    0    0    0  501 -0.00000000000E+00 -0.00000000000E+00 -0.20430129530E+03  0.20430129530E+03  0.00000000000E+00 0. -1.
         23    2    1    2    0    0  0.10953585730E+03 -0.66549289510E+02  0.13993392656E+02  0.15845248875E+03  0.92111151260E+02 0.  0.
          5    1    1    2  502    0 -0.22720959302E+02  0.86460476826E+02 -0.30020563267E+02  0.94419173177E+02  0.47000000000E+01 0.  1.
         -5    1    1    2    0  502 -0.86814897993E+02 -0.19911187316E+02 -0.41379588784E+02  0.98324169266E+02  0.47000000000E+01 0.  1.
        -11    1    3    3    0    0  0.71950060886E+02 -0.63544444892E+02  0.48313933700E+02  0.10746601290E+03  0.00000000000E+00 0.  1.
         11    1    3    3    0    0  0.37585796409E+02 -0.30048446179E+01 -0.34320541043E+02  0.50986475857E+02  0.00000000000E+00 0. -1.
<mgrwt>
<rscale>  0 0.17347842E+03</rscale>
<asrwt>0</asrwt>
<pdfrwt beam="1">  1        2 0.22599160E-01 0.17903076E+03</pdfrwt>
<pdfrwt beam="2">  1       -2 0.31430968E-01 0.17903076E+03</pdfrwt>
<totfact> 0.22229688E+03</totfact>
</mgrwt>
</event>
<event>
 7    1  0.1330601E-005  0.3382080E+03  0.7546771E-02  0.1068771E+00
          2   -1    0    0  501    0  0.00000000000E+00  0.00000000000E+00  0.13628375785E+04  0.13628375785E+04  0.00000000000E+00 0. -1.
         -2   -1    0    0    0  501 -0.00000000000E+00 -0.00000000000E+00 -0.87400142115E+02  0.87400142115E+02  0.00000000000E+00 0.  1.
         23    2    1    2    0    0  0.70411341538E+02 -0.30627075477E+03  0.82091155076E+03  0.88368811061E+03  0.90826044838E+02 0.  0.
          5    1    1    2  502    0 -0.55877599320E+02  0.31355563272E+03  0.44460655451E+03  0.54693374300E+03  0.47000000000E+01 0. -1.
         -5    1    1    2    0  502 -0.14533742218E+02 -0.72848779511E+01  0.99193311611E+01  0.19615867055E+02  0.47000000000E+01 0. -1.
        -11    1    3    3    0    0 -0.16303203877E+02 -0.76598277218E+02  0.14890897156E+03  0.16824676027E+03  0.00000000000E+00 0.  1.
         11    1    3    3    0    0  0.86714545415E+02 -0.22967247755E+03  0.67200257919E+03  0.71544135034E+03  0.00000000000E+00 0. -1.
<mgrwt>
<rscale>  0 0.33540184E+03</rscale>
<asrwt>0</asrwt>
<pdfrwt beam="1">  1        2 0.20966730E+00 0.33820804E+03</pdfrwt>
<pdfrwt beam="2">  1       -2 0.13446177E-01 0.33820804E+03</pdfrwt>
<totfact> 0.66272643E+02</totfact>
</mgrwt>
</event>
<event>
 7    1  0.1330601E-005  0.2484717E+03  0.7546771E-02  0.1116671E+00
          2   -1    0    0  501    0  0.00000000000E+00  0.00000000000E+00  0.13797182335E+04  0.13797182335E+04  0.00000000000E+00 0. -1.
         -2   -1    0    0    0  501 -0.00000000000E+00 -0.00000000000E+00 -0.58417768460E+02  0.58417768460E+02  0.00000000000E+00 0.  1.
         23    2    1    2    0    0  0.21463277578E+03 -0.67524124984E+01  0.10254488041E+04  0.10517859221E+04  0.92712202938E+02 0.  0.
          5    1    1    2  502    0 -0.19860833556E+03 -0.24971153044E+02  0.28608561407E+03  0.34919321015E+03  0.47000000000E+01 0. -1.
         -5    1    1    2    0  502 -0.16024440216E+02  0.31723565542E+02  0.97660468612E+01  0.37156869704E+02  0.47000000000E+01 0. -1.
        -11    1    3    3    0    0  0.68387294522E+02  0.69241078116E+00  0.15951517256E+03  0.17355803572E+03  0.00000000000E+00 0.  1.
         11    1    3    3    0    0  0.14624548125E+03 -0.74448232796E+01  0.86593363154E+03  0.87822788638E+03  0.00000000000E+00 0. -1.
<mgrwt>
<rscale>  0 0.24474533E+03</rscale>
<asrwt>0</asrwt>
<pdfrwt beam="1">  1        2 0.21226432E+00 0.24847169E+03</pdfrwt>
<pdfrwt beam="2">  1       -2 0.89873500E-02 0.24847169E+03</pdfrwt>
<totfact> 0.12502872E+03</totfact>
</mgrwt>
</event>
<event>
 7    1  0.1330601E-005  0.1451426E+03  0.7546771E-02  0.1216083E+00
          1   -1    0    0  501    0  0.00000000000E+00  0.00000000000E+00  0.11635047442E+03  0.11635047442E+03  0.00000000000E+00 0. -1.
         -1   -1    0    0    0  501 -0.00000000000E+00 -0.00000000000E+00 -0.15176737248E+03  0.15176737248E+03  0.00000000000E+00 0.  1.
         23    2    1    2    0    0 -0.43165623079E+02  0.59814303748E+02  0.81179244776E+00  0.11852212159E+03  0.92767517762E+02 0.  0.
          5    1    1    2  502    0 -0.36820001503E+02 -0.36480001047E+02 -0.40632702857E+02  0.66027339251E+02  0.47000000000E+01 0.  1.
         -5    1    1    2    0  502  0.79985624583E+02 -0.23334302700E+02  0.44040123555E+01  0.83568386051E+02  0.47000000000E+01 0.  1.
        -11    1    3    3    0    0 -0.35601499123E+02  0.51318339904E+02  0.42344876276E+02  0.75459441405E+02  0.00000000000E+00 0. -1.
         11    1    3    3    0    0 -0.75641239562E+01  0.84959638442E+01 -0.41533083828E+02  0.43062680190E+02  0.00000000000E+00 0.  1.
<mgrwt>
<rscale>  0 0.13797277E+03</rscale>
<asrwt>0</asrwt>
<pdfrwt beam="1">  1        1 0.17900073E-01 0.14514256E+03</pdfrwt>
<pdfrwt beam="2">  1       -1 0.23348826E-01 0.14514256E+03</pdfrwt>
<totfact> 0.44284030E+03</totfact>
</mgrwt>
</event>
<event>
 7    1  0.1330601E-005  0.1625115E+03  0.7546771E-02  0.1193189E+00
          1   -1    0    0  501    0  0.00000000000E+00  0.00000000000E+00  0.54915473856E+02  0.54915473856E+02  0.00000000000E+00 0. -1.
         -1   -1    0    0    0  501 -0.00000000000E+00 -0.00000000000E+00 -0.48692108390E+03  0.48692108390E+03  0.00000000000E+00 0.  1.
         23    2    1    2    0    0 -0.34779071328E+02  0.97849310404E+02 -0.95247704509E+02  0.16791693666E+03  0.91323058715E+02 0.  0.
          5    1    1    2  502    0 -0.30341064546E+02 -0.14500907032E+02 -0.18969107896E+03  0.19270612844E+03  0.47000000000E+01 0.  1.
         -5    1    1    2    0  502  0.65120135875E+02 -0.83348403372E+02 -0.14706682657E+03  0.18121349265E+03  0.47000000000E+01 0.  1.
        -11    1    3    3    0    0 -0.32859958044E+02 -0.30191108445E-01 -0.50563643340E+02  0.60303066107E+02  0.00000000000E+00 0.  1.
         11    1    3    3    0    0 -0.19191132844E+01  0.97879501513E+02 -0.44684061169E+02  0.10761387055E+03  0.00000000000E+00 0. -1.
<mgrwt>
<rscale>  0 0.15608472E+03</rscale>
<asrwt>0</asrwt>
<pdfrwt beam="1">  1        1 0.84485346E-02 0.16251153E+03</pdfrwt>
<pdfrwt beam="2">  1       -1 0.74910935E-01 0.16251153E+03</pdfrwt>
<totfact> 0.14833802E+03</totfact>
</mgrwt>
</event>
<event>
 7    1  0.1330601E-005  0.1555759E+03  0.7546771E-02  0.1201702E+00
         -1   -1    0    0    0  501 -0.00000000000E+00  0.00000000000E+00  0.10190376903E+03  0.10190376903E+03  0.00000000000E+00 0.  1.
          1   -1    0    0  501    0  0.00000000000E+00 -0.00000000000E+00 -0.20791631390E+03  0.20791631390E+03  0.00000000000E+00 0. -1.
         23    2    1    2    0    0  0.59073246106E+02 -0.71155856369E+02 -0.76013789797E+02  0.15137838703E+03  0.92652660609E+02 0.  0.
          5    1    1    2  502    0  0.37129425967E+02  0.41344251156E+01 -0.13222178459E+02  0.39907439743E+02  0.47000000000E+01 0. -1.
         -5    1    1    2    0  502 -0.96202672072E+02  0.67021431253E+02 -0.16776576612E+02  0.11853425616E+03  0.47000000000E+01 0. -1.
        -11    1    3    3    0    0  0.31602628668E+02  0.18614693962E+02 -0.16451143523E+02  0.40197923992E+02  0.00000000000E+00 0.  1.
         11    1    3    3    0    0  0.27470617438E+02 -0.89770550331E+02 -0.59562646275E+02  0.11118046303E+03  0.00000000000E+00 0. -1.
<mgrwt>
<rscale>  0 0.14900454E+03</rscale>
<asrwt>0</asrwt>
<pdfrwt beam="2">  1        1 0.31987125E-01 0.15557585E+03</pdfrwt>
<pdfrwt beam="1">  1       -1 0.15677503E-01 0.15557585E+03</pdfrwt>
<totfact> 0.40464566E+03</totfact>
</mgrwt>
</event>
<event>
 7    1  0.1330601E-005  0.1256843E+03  0.7546771E-02  0.1249954E+00
          4   -1    0    0  501    0  0.00000000000E+00  0.00000000000E+00  0.11183978714E+03  0.11183978714E+03  0.00000000000E+00 0. -1.
         -4   -1    0    0    0  501 -0.00000000000E+00 -0.00000000000E+00 -0.12483231822E+03  0.12483231822E+03  0.00000000000E+00 0.  1.
         23    2    1    2    0    0 -0.51602771959E+01 -0.12058825757E+02  0.41088114560E+02  0.99846415704E+02  0.90050151757E+02 0.  0.
          5    1    1    2  502    0  0.31680820914E+02 -0.11342685023E+02  0.30102361975E+02  0.45393536036E+02  0.47000000000E+01 0. -1.
         -5    1    1    2    0  502 -0.26520543718E+02  0.23401510780E+02 -0.84183007607E+02  0.91432153620E+02  0.47000000000E+01 0. -1.
        -11    1    3    3    0    0  0.11585214795E+02 -0.21317912008E+02  0.64906991786E+02  0.69293492890E+02  0.00000000000E+00 0. -1.
         11    1    3    3    0    0 -0.16745491991E+02  0.92590862513E+01 -0.23818877225E+02  0.30552922814E+02  0.00000000000E+00 0.  1.
<mgrwt>
<rscale>  0 0.11593691E+03</rscale>
<asrwt>0</asrwt>
<pdfrwt beam="1">  1        4 0.17206121E-01 0.12568434E+03</pdfrwt>
<pdfrwt beam="2">  1       -4 0.19204972E-01 0.12568434E+03</pdfrwt>
<totfact> 0.11639207E+03</totfact>
</mgrwt>
</event>
<event>
 7    1  0.1330601E-005  0.1266153E+03  0.7546771E-02  0.1245993E+00
         -1   -1    0    0    0  501 -0.00000000000E+00  0.00000000000E+00  0.80320146674E+02  0.80320146674E+02  0.00000000000E+00 0.  1.
          1   -1    0    0  501    0  0.00000000000E+00 -0.00000000000E+00 -0.15638361133E+03  0.15638361133E+03  0.00000000000E+00 0. -1.
         23    2    1    2    0    0  0.71994120756E+01  0.19056754510E+02 -0.20961669100E+02  0.98618164487E+02  0.94186832247E+02 0.  0.
          5    1    1    2  502    0 -0.23631560799E+02  0.15119992030E+02 -0.84957493137E+02  0.89593138492E+02  0.47000000000E+01 0.  1.
         -5    1    1    2    0  502  0.16432148724E+02 -0.34176746540E+02  0.29855697585E+02  0.48492455021E+02  0.47000000000E+01 0.  1.
        -11    1    3    3    0    0 -0.31340826832E+02 -0.11069750758E+02 -0.34454291411E+02  0.47873635802E+02  0.00000000000E+00 0. -1.
         11    1    3    3    0    0  0.38540238907E+02  0.30126505267E+02  0.13492622310E+02  0.50744528685E+02  0.00000000000E+00 0.  1.
<mgrwt>
<rscale>  0 0.11826167E+03</rscale>
<asrwt>0</asrwt>
<pdfrwt beam="2">  1        1 0.24059017E-01 0.12661526E+03</pdfrwt>
<pdfrwt beam="1">  1       -1 0.12356946E-01 0.12661526E+03</pdfrwt>
<totfact> 0.82643802E+03</totfact>
</mgrwt>
</event>
<event>
 7    1  0.1330601E-005  0.2114980E+03  0.7546771E-02  0.1163742E+00
          4   -1    0    0  501    0  0.00000000000E+00  0.00000000000E+00  0.46839145439E+03  0.46839145439E+03  0.00000000000E+00 0. -1.
         -4   -1    0    0    0  501 -0.00000000000E+00 -0.00000000000E+00 -0.77259460796E+02  0.77259460796E+02  0.00000000000E+00 0.  1.
         23    2    1    2    0    0 -0.76552115436E+02  0.90074652502E+01  0.28299417909E+03  0.30811106534E+03  0.94368227589E+02 0.  0.
          5    1    1    2  502    0  0.73903722461E+02 -0.66817753256E+02 -0.15507979973E+02  0.10094037738E+03  0.47000000000E+01 0. -1.
         -5    1    1    2    0  502  0.26483929752E+01  0.57810288005E+02  0.12364579448E+03  0.13659947246E+03  0.47000000000E+01 0.  1.
        -11    1    3    3    0    0 -0.93791657726E+00 -0.10036197817E+02 -0.39007826301E+01  0.10808379122E+02  0.00000000000E+00 0. -1.
         11    1    3    3    0    0 -0.75614198859E+02  0.19043663067E+02  0.28689496172E+03  0.29730268622E+03  0.00000000000E+00 0.  1.
<mgrwt>
<rscale>  0 0.18426103E+03</rscale>
<asrwt>0</asrwt>
<pdfrwt beam="1">  1        4 0.72060221E-01 0.21149797E+03</pdfrwt>
<pdfrwt beam="2">  1       -4 0.11886071E-01 0.21149797E+03</pdfrwt>
<totfact> 0.18121899E+02</totfact>
</mgrwt>
</event>
<event>
 7    1  0.2363978E-005  0.3418807E+03  0.7546771E-02  0.1067138E+00
         -2   -1    0    0    0  501 -0.00000000000E+00  0.00000000000E+00  0.88837964283E+02  0.88837964283E+02  0.00000000000E+00 0.  1.
          2   -1    0    0  501    0  0.00000000000E+00 -0.00000000000E+00 -0.14475764448E+04  0.14475764448E+04  0.00000000000E+00 0. -1.
         23    2    1    2    0    0 -0.15567138264E+02 -0.31782784477E+03 -0.93501164645E+03  0.99196347246E+03  0.92129674960E+02 0.  0.
          5    1    1    2  502    0  0.23443638592E+02  0.20107493107E+03 -0.16772990522E+03  0.26293752718E+03  0.47000000000E+01 0. -1.
         -5    1    1    2    0  502 -0.78765003278E+01  0.11675291370E+03 -0.25599692889E+03  0.28151340948E+03  0.47000000000E+01 0. -1.
        -11    1    3    3    0    0  0.30507654279E+02 -0.19153342427E+03 -0.48641408558E+03  0.52365487894E+03  0.00000000000E+00 0. -1.
         11    1    3    3    0    0 -0.46074792543E+02 -0.12629442049E+03 -0.44859756086E+03  0.46830859352E+03  0.00000000000E+00 0.  1.
<mgrwt>
<rscale>  0 0.33919847E+03</rscale>
<asrwt>0</asrwt>
<pdfrwt beam="2">  1        2 0.22270406E+00 0.34188067E+03</pdfrwt>
<pdfrwt beam="1">  1       -2 0.13667379E-01 0.34188067E+03</pdfrwt>
<totfact> 0.57941398E+02</totfact>
</mgrwt>
</event>
<event>
 7    1  0.1330601E-005  0.3077052E+03  0.7546771E-02  0.1107059E+00
         -2   -1    0    0    0  501 -0.00000000000E+00  0.00000000000E+00  0.24558601715E+03  0.24558601715E+03  0.00000000000E+00 0.  1.
          2   -1    0    0  501    0  0.00000000000E+00 -0.00000000000E+00 -0.36800023561E+03  0.36800023561E+03  0.00000000000E+00 0. -1.
         23    2    1    2    0    0 -0.12636242163E+03  0.12611161246E+02 -0.23771695888E+03  0.28498739920E+03  0.92638880494E+02 0.  0.
          5    1    1    2  502    0  0.84771136966E+02  0.42622511253E+02 -0.78209649108E+02  0.12305146623E+03  0.47000000000E+01 0. -1.
         -5    1    1    2    0  502  0.41591284660E+02 -0.55233672500E+02  0.19351238953E+03  0.20554738733E+03  0.47000000000E+01 0.  1.
        -11    1    3    3    0    0 -0.25680191598E+02 -0.36168847221E+02 -0.82271823959E+02  0.93468234002E+02  0.00000000000E+00 0.  1.
         11    1    3    3    0    0 -0.10068223003E+03  0.48780008468E+02 -0.15544513492E+03  0.19151916520E+03  0.00000000000E+00 0. -1.
<mgrwt>
<rscale>  0 0.26013982E+03</rscale>
<asrwt>0</asrwt>
<pdfrwt beam="2">  1        2 0.56615421E-01 0.30770519E+03</pdfrwt>
<pdfrwt beam="1">  1       -2 0.37782464E-01 0.30770519E+03</pdfrwt>
<totfact> 0.58362415E+02</totfact>
</mgrwt>
</event>
<event>
 7    1  0.1330601E-005  0.1870446E+03  0.7546771E-02  0.1166284E+00
          4   -1    0    0  501    0  0.00000000000E+00  0.00000000000E+00  0.93349058173E+02  0.93349058173E+02  0.00000000000E+00 0. -1.
         -4   -1    0    0    0  501 -0.00000000000E+00 -0.00000000000E+00 -0.35879323936E+03  0.35879323936E+03  0.00000000000E+00 0.  1.
         23    2    1    2    0    0  0.37595454613E+02 -0.13396356080E+03 -0.66109169497E+02  0.17879245755E+03  0.90756083846E+02 0.  0.
          5    1    1    2  502    0 -0.43451955690E+01  0.14176687754E+03 -0.19087963661E+03  0.23785258873E+03  0.47000000000E+01 0.  1.
         -5    1    1    2    0  502 -0.33250259044E+02 -0.78033167362E+01 -0.84553750769E+01  0.35497251249E+02  0.47000000000E+01 0.  1.
        -11    1    3    3    0    0 -0.95333278680E+01  0.95967485116E+01  0.78243885824E+00  0.13549691244E+02  0.00000000000E+00 0. -1.
         11    1    3    3    0    0  0.47128782481E+02 -0.14356030932E+03 -0.66891608356E+02  0.16524276631E+03  0.00000000000E+00 0.  1.
<mgrwt>
<rscale>  0 0.18157887E+03</rscale>
<asrwt>0</asrwt>
<pdfrwt beam="1">  1        4 0.14361394E-01 0.18704462E+03</pdfrwt>
<pdfrwt beam="2">  1       -4 0.55198958E-01 0.18704462E+03</pdfrwt>
<totfact> 0.22635819E+02</totfact>
</mgrwt>
</event>
<event>
 7    1  0.1425725E-005  0.1403375E+03  0.7546771E-02  0.1223876E+00
         -4   -1    0    0    0  501 -0.00000000000E+00  0.00000000000E+00  0.38148585622E+03  0.38148585622E+03  0.00000000000E+00 0.  1.
          4   -1    0    0  501    0  0.00000000000E+00 -0.00000000000E+00 -0.44338301519E+02  0.44338301519E+02  0.00000000000E+00 0. -1.
         23    2    1    2    0    0  0.63775390848E+02 -0.15178271540E+01  0.96889599516E+02  0.14758233749E+03  0.91232382230E+02 0.  0.
          5    1    1    2  502    0 -0.58044765331E+02 -0.55932301667E+02  0.11833720792E+03  0.14325991041E+03  0.47000000000E+01 0. -1.
         -5    1    1    2    0  502 -0.57306255171E+01  0.57450128822E+02  0.12192074726E+03  0.13498190984E+03  0.47000000000E+01 0. -1.
        -11    1    3    3    0    0  0.52894248303E+02 -0.30626943455E+02  0.99094105715E+02  0.11642788737E+03  0.00000000000E+00 0.  1.
         11    1    3    3    0    0  0.10881142545E+02  0.29109116301E+02 -0.22045061993E+01  0.31154450123E+02  0.00000000000E+00 0. -1.
<mgrwt>
<rscale>  0 0.13244246E+03</rscale>
<asrwt>0</asrwt>
<pdfrwt beam="2">  1        4 0.68212774E-02 0.14033754E+03</pdfrwt>
<pdfrwt beam="1">  1       -4 0.58690130E-01 0.14033754E+03</pdfrwt>
<totfact> 0.66682161E+02</totfact>
</mgrwt>
</event>
<event>
 7    1  0.1330601E-005  0.1314677E+03  0.7546771E-02  0.1238697E+00
          1   -1    0    0  501    0  0.00000000000E+00  0.00000000000E+00  0.14977617264E+03  0.14977617264E+03  0.00000000000E+00 0. -1.
         -1   -1    0    0    0  501 -0.00000000000E+00 -0.00000000000E+00 -0.10844360170E+03  0.10844360170E+03  0.00000000000E+00 0.  1.
         23    2    1    2    0    0 -0.23259222415E+02  0.33430756254E+02  0.72223178962E+02  0.12317168008E+03  0.91084951022E+02 0.  0.
          5    1    1    2  502    0  0.55958213036E+02 -0.42435653209E+02  0.20486302980E+02  0.73306786038E+02  0.47000000000E+01 0.  1.
         -5    1    1    2    0  502 -0.32698990621E+02  0.90048969551E+01 -0.51376911008E+02  0.61741308227E+02  0.47000000000E+01 0.  1.
        -11    1    3    3    0    0  0.39353008459E+01  0.27489477730E+02  0.87233209946E+02  0.91546659666E+02  0.00000000000E+00 0. -1.
         11    1    3    3    0    0 -0.27194523261E+02  0.59412785237E+01 -0.15010030983E+02  0.31625020411E+02  0.00000000000E+00 0.  1.
<mgrwt>
<rscale>  0 0.12270715E+03</rscale>
<asrwt>0</asrwt>
<pdfrwt beam="1">  1        1 0.23042488E-01 0.13146771E+03</pdfrwt>
<pdfrwt beam="2">  1       -1 0.16683631E-01 0.13146771E+03</pdfrwt>
<totfact> 0.54768899E+03</totfact>
</mgrwt>
</event>
<event>
 7    1  0.1330601E-005  0.1251409E+03  0.7546771E-02  0.1250828E+00
         -1   -1    0    0    0  501 -0.00000000000E+00  0.00000000000E+00  0.91250170552E+02  0.91250170552E+02  0.00000000000E+00 0.  1.
          1   -1    0    0  501    0  0.00000000000E+00 -0.00000000000E+00 -0.12796196996E+03  0.12796196996E+03  0.00000000000E+00 0. -1.
         23    2    1    2    0    0 -0.27193438819E+01  0.52528532145E+01 -0.21825452940E+02  0.93188952010E+02  0.90403778033E+02 0.  0.
          5    1    1    2  502    0  0.57281434024E+02  0.21277777686E+02  0.62517015109E+01  0.61604222898E+02  0.47000000000E+01 0. -1.
         -5    1    1    2    0  502 -0.54562090142E+02 -0.26530630901E+02 -0.21138047974E+02  0.64418965599E+02  0.47000000000E+01 0. -1.
        -11    1    3    3    0    0  0.21336960806E+02  0.25807159857E+02 -0.43455874725E+02  0.54860627452E+02  0.00000000000E+00 0. -1.
         11    1    3    3    0    0 -0.24056304688E+02 -0.20554306643E+02  0.21630421785E+02  0.38328324558E+02  0.00000000000E+00 0.  1.
<mgrwt>
<rscale>  0 0.11543246E+03</rscale>
<asrwt>0</asrwt>
<pdfrwt beam="2">  1        1 0.19686457E-01 0.12514088E+03</pdfrwt>
<pdfrwt beam="1">  1       -1 0.14038488E-01 0.12514088E+03</pdfrwt>
<totfact> 0.87273111E+03</totfact>
</mgrwt>
</event>
<event>
 7    1  0.1330601E-005  0.2001862E+03  0.7546771E-02  0.1153722E+00
         -2   -1    0    0    0  501 -0.00000000000E+00  0.00000000000E+00  0.11436977423E+03  0.11436977423E+03  0.00000000000E+00 0.  1.
          2   -1    0    0  501    0  0.00000000000E+00 -0.00000000000E+00 -0.51102585362E+03  0.51102585362E+03  0.00000000000E+00 0. -1.
         23    2    1    2    0    0 -0.41409222271E+02  0.15076733295E+03 -0.38407377034E+03  0.42481438851E+03  0.92244735644E+02 0.  0.
          5    1    1    2  502    0  0.15546171706E+02 -0.45446810431E+02  0.54639155719E+02  0.72901463434E+02  0.47000000000E+01 0.  1.
         -5    1    1    2    0  502  0.25863050566E+02 -0.10532052252E+03 -0.67221464768E+02  0.12767977590E+03  0.47000000000E+01 0.  1.
        -11    1    3    3    0    0 -0.33344433361E+02  0.11769125285E+03 -0.17819758293E+03  0.21614222353E+03  0.00000000000E+00 0.  1.
         11    1    3    3    0    0 -0.80647889104E+01  0.33076080103E+02 -0.20587618741E+03  0.20867216498E+03  0.00000000000E+00 0. -1.
<mgrwt>
<rscale>  0 0.19535077E+03</rscale>
<asrwt>0</asrwt>
<pdfrwt beam="2">  1        2 0.78619361E-01 0.20018621E+03</pdfrwt>
<pdfrwt beam="1">  1       -2 0.17595350E-01 0.20018621E+03</pdfrwt>
<totfact> 0.15810549E+03</totfact>
</mgrwt>
</event>
<event>
 7    1  0.1330601E-005  0.2175191E+03  0.7546771E-02  0.1135746E+00
          4   -1    0    0  501    0  0.00000000000E+00  0.00000000000E+00  0.13085019541E+03  0.13085019541E+03  0.00000000000E+00 0. -1.
         -4   -1    0    0    0  501 -0.00000000000E+00 -0.00000000000E+00 -0.90398327733E+02  0.90398327733E+02  0.00000000000E+00 0.  1.
         23    2    1    2    0    0 -0.11158821144E+02  0.10820382249E+02  0.58298664421E+00  0.89130133502E+02  0.87762411449E+02 0.  0.
          5    1    1    2  502    0  0.92202300016E+01  0.36918907200E+02 -0.29065415972E+02  0.48113477901E+02  0.47000000000E+01 0. -1.
         -5    1    1    2    0  502  0.19385911427E+01 -0.47739289449E+02  0.68934297001E+02  0.84004911736E+02  0.47000000000E+01 0. -1.
        -11    1    3    3    0    0 -0.23102501226E+02 -0.13456784113E+02  0.35823974203E+02  0.44700869446E+02  0.00000000000E+00 0. -1.
         11    1    3    3    0    0  0.11943680082E+02  0.24277166362E+02 -0.35240987559E+02  0.44429264056E+02  0.00000000000E+00 0.  1.
<mgrwt>
<rscale>  0 0.21751909E+03</rscale>
<asrwt>0</asrwt>
<pdfrwt beam="1">  1        4 0.20130799E-01 0.21751909E+03</pdfrwt>
<pdfrwt beam="2">  1       -4 0.13907435E-01 0.21751909E+03</pdfrwt>
<totfact> 0.17360658E+03</totfact>
</mgrwt>
</event>
<event>
 7    1  0.1330601E-005  0.1388446E+03  0.7546771E-02  0.1225502E+00
         -4   -1    0    0    0  501 -0.00000000000E+00  0.00000000000E+00  0.13213015212E+03  0.13213015212E+03  0.00000000000E+00 0.  1.
          4   -1    0    0  501    0  0.00000000000E+00 -0.00000000000E+00 -0.15820709921E+03  0.15820709921E+03  0.00000000000E+00 0. -1.
         23    2    1    2    0    0 -0.53700526070E+02  0.27747008536E+02 -0.84599139042E+02  0.13966323078E+03  0.93247845677E+02 0.  0.
          5    1    1    2  502    0  0.62262579603E+02 -0.63370170443E+02  0.68651697277E+02  0.11237238477E+03  0.47000000000E+01 0.  1.
         -5    1    1    2    0  502 -0.85620535337E+01  0.35623161907E+02 -0.10129505323E+02  0.38301635775E+02  0.47000000000E+01 0.  1.
        -11    1    3    3    0    0 -0.44811998158E+02 -0.24704349652E+02 -0.65546884285E+02  0.83155361283E+02  0.00000000000E+00 0. -1.
         11    1    3    3    0    0 -0.88885279115E+01  0.52451358188E+02 -0.19052254758E+02  0.56507869501E+02  0.00000000000E+00 0.  1.
<mgrwt>
<rscale>  0 0.13132572E+03</rscale>
<asrwt>0</asrwt>
<pdfrwt beam="2">  1        4 0.24339554E-01 0.13884457E+03</pdfrwt>
<pdfrwt beam="1">  1       -4 0.20327716E-01 0.13884457E+03</pdfrwt>
<totfact> 0.57412972E+02</totfact>
</mgrwt>
</event>
<event>
 7    1  0.1330601E-005  0.1701024E+03  0.7546771E-02  0.1184104E+00
         -2   -1    0    0    0  501 -0.00000000000E+00  0.00000000000E+00  0.29309374895E+02  0.29309374895E+02  0.00000000000E+00 0.  1.
          2   -1    0    0  501    0  0.00000000000E+00 -0.00000000000E+00 -0.10811308571E+04  0.10811308571E+04  0.00000000000E+00 0. -1.
         23    2    1    2    0    0  0.16855509409E+02  0.11412914253E+03 -0.74655650720E+03  0.76098133526E+03  0.91849903591E+02 0.  0.
          5    1    1    2  502    0 -0.54949400561E+02 -0.11828938553E+03 -0.25039089660E+03  0.28236413804E+03  0.47000000000E+01 0.  1.
         -5    1    1    2    0  502  0.38093891152E+02  0.41602430002E+01 -0.54874078434E+02  0.67094758729E+02  0.47000000000E+01 0.  1.
        -11    1    3    3    0    0  0.53133582688E+02  0.56644403112E+02 -0.45706080547E+03  0.46361227972E+03  0.00000000000E+00 0. -1.
         11    1    3    3    0    0 -0.36278073280E+02  0.57484739422E+02 -0.28949570173E+03  0.29736905553E+03  0.00000000000E+00 0.  1.
<mgrwt>
<rscale>  0 0.16413648E+03</rscale>
<asrwt>0</asrwt>
<pdfrwt beam="2">  1        2 0.16632783E+00 0.17010237E+03</pdfrwt>
<pdfrwt beam="1">  1       -2 0.45091345E-02 0.17010237E+03</pdfrwt>
<totfact> 0.52912629E+03</totfact>
</mgrwt>
</event>
<event>
 7    1  0.1330601E-005  0.1284779E+03  0.7546771E-02  0.1245566E+00
         -2   -1    0    0    0  501 -0.00000000000E+00  0.00000000000E+00  0.24358663506E+03  0.24358663506E+03  0.00000000000E+00 0.  1.
          2   -1    0    0  501    0  0.00000000000E+00 -0.00000000000E+00 -0.53336314401E+02  0.53336314401E+02  0.00000000000E+00 0. -1.
         23    2    1    2    0    0  0.13093944862E+02  0.26653632755E+02  0.46093308916E+02  0.10382240146E+03  0.88162522577E+02 0.  0.
          5    1    1    2  502    0 -0.37498438315E+02  0.27050829601E+02  0.11550585705E+02  0.47889312883E+02  0.47000000000E+01 0.  1.
         -5    1    1    2    0  502  0.24404493453E+02 -0.53704462356E+02  0.13260642603E+03  0.14521123511E+03  0.47000000000E+01 0.  1.
        -11    1    3    3    0    0  0.41808127904E+02  0.33772622866E+02  0.61193434416E+01  0.54092106432E+02  0.00000000000E+00 0. -1.
         11    1    3    3    0    0 -0.28714183042E+02 -0.71189901108E+01  0.39973965475E+02  0.49730295029E+02  0.00000000000E+00 0.  1.
<mgrwt>
<rscale>  0 0.11851590E+03</rscale>
<asrwt>0</asrwt>
<pdfrwt beam="2">  1        2 0.82055870E-02 0.12847793E+03</pdfrwt>
<pdfrwt beam="1">  1       -2 0.37474866E-01 0.12847793E+03</pdfrwt>
<totfact> 0.52532994E+03</totfact>
</mgrwt>
</event>
<event>
 7    1  0.1330601E-005  0.3536150E+03  0.7546771E-02  0.1062260E+00
         -2   -1    0    0    0  501 -0.00000000000E+00  0.00000000000E+00  0.25878582465E+03  0.25878582465E+03  0.00000000000E+00 0.  1.
          2   -1    0    0  501    0  0.00000000000E+00 -0.00000000000E+00 -0.62339558999E+03  0.62339558999E+03  0.00000000000E+00 0. -1.
         23    2    1    2    0    0  0.53592542316E+02  0.32641450660E+03 -0.40004927059E+03  0.52679494285E+03  0.89749106966E+02 0.  0.
          5    1    1    2  502    0 -0.59692378741E+02 -0.33336974925E+03  0.23428172812E+02  0.33951368025E+03  0.47000000000E+01 0.  1.
         -5    1    1    2    0  502  0.60998364252E+01  0.69552426501E+01  0.12011332439E+02  0.15872791554E+02  0.47000000000E+01 0.  1.
        -11    1    3    3    0    0  0.71157617995E+02  0.17222417250E+03 -0.24017607164E+03  0.30398868002E+03  0.00000000000E+00 0.  1.
         11    1    3    3    0    0 -0.17565075679E+02  0.15419033410E+03 -0.15987319896E+03  0.22280626283E+03  0.00000000000E+00 0. -1.
<mgrwt>
<rscale>  0 0.35086538E+03</rscale>
<asrwt>0</asrwt>
<pdfrwt beam="2">  1        2 0.95907014E-01 0.35361502E+03</pdfrwt>
<pdfrwt beam="1">  1       -2 0.39813204E-01 0.35361502E+03</pdfrwt>
<totfact> 0.29049084E+02</totfact>
</mgrwt>
</event>
<event>
 7    1  0.1330601E-005  0.1374690E+03  0.7546771E-02  0.1228642E+00
          2   -1    0    0  501    0  0.00000000000E+00  0.00000000000E+00  0.29013362259E+03  0.29013362259E+03  0.00000000000E+00 0. -1.
         -2   -1    0    0    0  501 -0.00000000000E+00 -0.00000000000E+00 -0.57283537432E+02  0.57283537432E+02  0.00000000000E+00 0.  1.
         23    2    1    2    0    0 -0.52394179252E+02  0.22980729714E+02  0.15776000628E+03  0.19077668696E+03  0.90742827515E+02 0.  0.
          5    1    1    2  502    0  0.41152720357E+02 -0.73817320026E+02  0.53142492993E+02  0.99943772643E+02  0.47000000000E+01 0. -1.
         -5    1    1    2    0  502  0.11241458895E+02  0.50836590312E+02  0.21947585878E+02  0.56696700420E+02  0.47000000000E+01 0. -1.
        -11    1    3    3    0    0  0.10814810585E+01  0.14411977656E+02 -0.79125577390E+01  0.16476749413E+02  0.00000000000E+00 0.  1.
         11    1    3    3    0    0 -0.53475660311E+02  0.85687520578E+01  0.16567256402E+03  0.17429993754E+03  0.00000000000E+00 0. -1.
<mgrwt>
<rscale>  0 0.12920409E+03</rscale>
<asrwt>0</asrwt>
<pdfrwt beam="1">  1        2 0.44635941E-01 0.13746897E+03</pdfrwt>
<pdfrwt beam="2">  1       -2 0.88128521E-02 0.13746897E+03</pdfrwt>
<totfact> 0.87347180E+03</totfact>
</mgrwt>
</event>
<event>
 7    1  0.1330601E-005  0.1349608E+03  0.7546771E-02  0.1232643E+00
         -1   -1    0    0    0  501 -0.00000000000E+00  0.00000000000E+00  0.14601263364E+03  0.14601263364E+03  0.00000000000E+00 0.  1.
          1   -1    0    0  501    0  0.00000000000E+00 -0.00000000000E+00 -0.15308468963E+03  0.15308468963E+03  0.00000000000E+00 0. -1.
         23    2    1    2    0    0  0.20486521009E+02  0.45838375787E+02 -0.92416541532E+02  0.13941612096E+03  0.91516028092E+02 0.  0.
          5    1    1    2  502    0  0.41677894519E+02 -0.56005921854E+02  0.31724819985E+02  0.76826195906E+02  0.47000000000E+01 0.  1.
         -5    1    1    2    0  502 -0.62164415528E+02  0.10167546068E+02  0.53619665555E+02  0.82855006398E+02  0.47000000000E+01 0.  1.
        -11    1    3    3    0    0  0.14328044642E+02  0.59073783224E+02 -0.17734542076E+02  0.63320760500E+02  0.00000000000E+00 0.  1.
         11    1    3    3    0    0  0.61584763670E+01 -0.13235407437E+02 -0.74681999456E+02  0.76095360463E+02  0.00000000000E+00 0. -1.
<mgrwt>
<rscale>  0 0.12656517E+03</rscale>
<asrwt>0</asrwt>
<pdfrwt beam="2">  1        1 0.23551491E-01 0.13496075E+03</pdfrwt>
<pdfrwt beam="1">  1       -1 0.22463482E-01 0.13496075E+03</pdfrwt>
<totfact> 0.33151059E+03</totfact>
</mgrwt>
</event>
<event>
 7    1  0.1330601E-005  0.2093233E+03  0.7546771E-02  0.1145948E+00
         -1   -1    0    0    0  501 -0.00000000000E+00  0.00000000000E+00  0.76202806450E+03  0.76202806450E+03  0.00000000000E+00 0.  1.
          1   -1    0    0  501    0  0.00000000000E+00 -0.00000000000E+00 -0.57189137578E+02  0.57189137578E+02  0.00000000000E+00 0. -1.
         23    2    1    2    0    0 -0.71685700968E+01 -0.16775468384E+03  0.22101180161E+03  0.29205030252E+03  0.90852299945E+02 0.  0.
          5    1    1    2  502    0 -0.28875932025E-01  0.18628657020E+03  0.40632519943E+03  0.44701783495E+03  0.47000000000E+01 0.  1.
         -5    1    1    2    0  502  0.71974460289E+01 -0.18531886360E+02  0.77501925888E+02  0.80149064610E+02  0.47000000000E+01 0.  1.
        -11    1    3    3    0    0 -0.25859681180E+02 -0.96534966676E+02  0.64120398090E+02  0.11873983474E+03  0.00000000000E+00 0. -1.
         11    1    3    3    0    0  0.18691111083E+02 -0.71219717165E+02  0.15689140352E+03  0.17331046778E+03  0.00000000000E+00 0.  1.
<mgrwt>
<rscale>  0 0.20456022E+03</rscale>
<asrwt>0</asrwt>
<pdfrwt beam="2">  1        1 0.87983294E-02 0.20932332E+03</pdfrwt>
<pdfrwt beam="1">  1       -1 0.11723508E+00 0.20932332E+03</pdfrwt>
<totfact> 0.53347605E+02</totfact>
</mgrwt>
</event>
<event>
 7    1  0.1330601E-005  0.1851359E+03  0.7546771E-02  0.1168040E+00
          2   -1    0    0  501    0  0.00000000000E+00  0.00000000000E+00  0.21647553589E+03  0.21647553589E+03  0.00000000000E+00 0.  1.
         -2   -1    0    0    0  501 -0.00000000000E+00 -0.00000000000E+00 -0.14724728088E+03  0.14724728088E+03  0.00000000000E+00 0. -1.
         23    2    1    2    0    0 -0.11773986991E+03 -0.69190345597E+02  0.69443465139E+02  0.17858680370E+03  0.91765302355E+02 0.  0.
          5    1    1    2  502    0  0.26366863951E+02 -0.13465177147E+02  0.44775312977E+02  0.53883588989E+02  0.47000000000E+01 0. -1.
         -5    1    1    2    0  502  0.91373005955E+02  0.82655522745E+02 -0.44990523113E+02  0.13125242408E+03  0.47000000000E+01 0. -1.
        -11    1    3    3    0    0 -0.32618869397E+02 -0.45886032512E+02 -0.13039676385E+02  0.57788855159E+02  0.00000000000E+00 0. -1.
         11    1    3    3    0    0 -0.85121000509E+02 -0.23304313085E+02  0.82483141524E+02  0.12079794854E+03  0.00000000000E+00 0.  1.
<mgrwt>
<rscale>  0 0.17975488E+03</rscale>
<asrwt>0</asrwt>
<pdfrwt beam="1">  1        2 0.33303929E-01 0.18513589E+03</pdfrwt>
<pdfrwt beam="2">  1       -2 0.22653428E-01 0.18513589E+03</pdfrwt>
<totfact> 0.25967576E+03</totfact>
</mgrwt>
</event>
<event>
 7    1  0.1330601E-005  0.1753245E+03  0.7546771E-02  0.1178402E+00
          3   -1    0    0  501    0  0.00000000000E+00  0.00000000000E+00  0.44553958112E+03  0.44553958112E+03  0.00000000000E+00 0. -1.
         -3   -1    0    0    0  501 -0.00000000000E+00 -0.00000000000E+00 -0.61859977215E+02  0.61859977215E+02  0.00000000000E+00 0.  1.
         23    2    1    2    0    0  0.23009769203E+02  0.12076665788E+03  0.21656520954E+03  0.26518912260E+03  0.91163291009E+02 0.  0.
          5    1    1    2  502    0 -0.27735517267E+02 -0.23451281763E+02  0.13444120726E+03  0.13934040959E+03  0.47000000000E+01 0. -1.
         -5    1    1    2    0  502  0.47257480646E+01 -0.97315376117E+02  0.32673187099E+02  0.10287002614E+03  0.47000000000E+01 0. -1.
        -11    1    3    3    0    0  0.14961341360E+02  0.62995083100E+02  0.33186089867E+02  0.72756709593E+02  0.00000000000E+00 0.  1.
         11    1    3    3    0    0  0.80484278424E+01  0.57771574780E+02  0.18337911968E+03  0.19243241301E+03  0.00000000000E+00 0. -1.
<mgrwt>
<rscale>  0 0.16946943E+03</rscale>
<asrwt>0</asrwt>
<pdfrwt beam="1">  1        3 0.68544549E-01 0.17532448E+03</pdfrwt>
<pdfrwt beam="2">  1       -3 0.95169198E-02 0.17532448E+03</pdfrwt>
<totfact> 0.40104639E+02</totfact>
</mgrwt>
</event>
<event>
 7    1  0.1330601E-005  0.1806592E+03  0.7546771E-02  0.1172793E+00
         -1   -1    0    0    0  501 -0.00000000000E+00  0.00000000000E+00  0.83642136002E+02  0.83642136002E+02  0.00000000000E+00 0.  1.
          1   -1    0    0  501    0  0.00000000000E+00 -0.00000000000E+00 -0.57871202768E+03  0.57871202768E+03  0.00000000000E+00 0. -1.
         23    2    1    2    0    0  0.12408981777E+03 -0.40232642075E+02 -0.44848870270E+03  0.47578632240E+03  0.90628691778E+02 0.  0.
          5    1    1    2  502    0 -0.12381152550E+03  0.75489202729E+02 -0.36948905269E+02  0.14971715058E+03  0.47000000000E+01 0. -1.
         -5    1    1    2    0  502 -0.27829226532E+00 -0.35256560653E+02 -0.96322837045E+01  0.36850690700E+02  0.47000000000E+01 0. -1.
        -11    1    3    3    0    0  0.80959106515E+02 -0.29933391915E+02 -0.40345646721E+03  0.41258636164E+03  0.00000000000E+00 0.  1.
         11    1    3    3    0    0  0.43130711253E+02 -0.10299250160E+02 -0.45032235495E+02  0.63199960765E+02  0.00000000000E+00 0. -1.
<mgrwt>
<rscale>  0 0.17493868E+03</rscale>
<asrwt>0</asrwt>
<pdfrwt beam="2">  1        1 0.89032617E-01 0.18065922E+03</pdfrwt>
<pdfrwt beam="1">  1       -1 0.12868021E-01 0.18065922E+03</pdfrwt>
<totfact> 0.15095641E+03</totfact>
</mgrwt>
</event>
<event>
 7    1  0.1330601E-005  0.1315151E+03  0.7546771E-02  0.1238743E+00
          2   -1    0    0  501    0  0.00000000000E+00  0.00000000000E+00  0.48096695573E+02  0.48096695573E+02  0.00000000000E+00 0. -1.
         -2   -1    0    0    0  501 -0.00000000000E+00 -0.00000000000E+00 -0.34106511415E+03  0.34106511415E+03  0.00000000000E+00 0.  1.
         23    2    1    2    0    0  0.38967485289E+02  0.12361175642E+02 -0.46707347945E+02  0.10998311138E+03  0.90793418615E+02 0.  0.
          5    1    1    2  502    0 -0.66206527636E+02  0.41228045579E+01 -0.58164709051E+02  0.88348883400E+02  0.47000000000E+01 0.  1.
         -5    1    1    2    0  502  0.27239042347E+02 -0.16483980200E+02 -0.18809636158E+03  0.19082981495E+03  0.47000000000E+01 0.  1.
        -11    1    3    3    0    0  0.48168080147E+02 -0.18619173164E+02  0.18266720534E+01  0.51673729159E+02  0.00000000000E+00 0. -1.
         11    1    3    3    0    0 -0.92005948580E+01  0.30980348806E+02 -0.48534019998E+02  0.58309382222E+02  0.00000000000E+00 0.  1.
<mgrwt>
<rscale>  0 0.12267803E+03</rscale>
<asrwt>0</asrwt>
<pdfrwt beam="1">  1        2 0.73994916E-02 0.13151513E+03</pdfrwt>
<pdfrwt beam="2">  1       -2 0.52471556E-01 0.13151513E+03</pdfrwt>
<totfact> 0.31296743E+03</totfact>
</mgrwt>
</event>
<event>
 7    1  0.1330601E-005  0.1500574E+03  0.7546771E-02  0.1211800E+00
          2   -1    0    0  501    0  0.00000000000E+00  0.00000000000E+00  0.43899253690E+03  0.43899253690E+03  0.00000000000E+00 0. -1.
         -2   -1    0    0    0  501 -0.00000000000E+00 -0.00000000000E+00 -0.77968159653E+02  0.77968159653E+02  0.00000000000E+00 0.  1.
         23    2    1    2    0    0 -0.12624739111E+02 -0.82059793760E+02  0.34689579358E+03  0.36623962986E+03  0.83075755075E+02 0.  0.
          5    1    1    2  502    0  0.16947938678E+01 -0.30338692395E+02 -0.14693260458E+02  0.34077712443E+02  0.47000000000E+01 0.  1.
         -5    1    1    2    0  502  0.10929945243E+02  0.11239848615E+03  0.28821844120E+02  0.11664335425E+03  0.47000000000E+01 0.  1.
        -11    1    3    3    0    0  0.33374613656E+02 -0.47851142360E+02  0.20673318753E+03  0.21480737299E+03  0.00000000000E+00 0.  1.
         11    1    3    3    0    0 -0.45999352767E+02 -0.34208651400E+02  0.14016260605E+03  0.15143225687E+03  0.00000000000E+00 0. -1.
<mgrwt>
<rscale>  0 0.14114236E+03</rscale>
<asrwt>0</asrwt>
<pdfrwt beam="1">  1        2 0.67537312E-01 0.15005740E+03</pdfrwt>
<pdfrwt beam="2">  1       -2 0.11995102E-01 0.15005740E+03</pdfrwt>
<totfact> 0.34699841E+03</totfact>
</mgrwt>
</event>
<event>
 7    1  0.1330601E-005  0.2000885E+03  0.7546771E-02  0.1153943E+00
         -2   -1    0    0    0  501 -0.00000000000E+00  0.00000000000E+00  0.40133801884E+02  0.40133801884E+02  0.00000000000E+00 0.  1.
          2   -1    0    0  501    0  0.00000000000E+00 -0.00000000000E+00 -0.90452269479E+03  0.90452269479E+03  0.00000000000E+00 0. -1.
         23    2    1    2    0    0  0.15557344857E+03  0.14385991414E+02 -0.39863548696E+03  0.43774263851E+03  0.91095068235E+02 0.  0.
          5    1    1    2  502    0 -0.77430340029E+02  0.30690969878E+02 -0.35149363041E+03  0.36125787937E+03  0.47000000000E+01 0. -1.
         -5    1    1    2    0  502 -0.78143108544E+02 -0.45076961292E+02 -0.11425977553E+03  0.14565597879E+03  0.47000000000E+01 0. -1.
        -11    1    3    3    0    0 -0.71330910279E+01  0.16536971782E+02 -0.44803274588E+02  0.48287532937E+02  0.00000000000E+00 0.  1.
         11    1    3    3    0    0  0.16270653960E+03 -0.21509803681E+01 -0.35383221237E+03  0.38945510558E+03  0.00000000000E+00 0. -1.
<mgrwt>
<rscale>  0 0.19509629E+03</rscale>
<asrwt>0</asrwt>
<pdfrwt beam="2">  1        2 0.13915732E+00 0.20008854E+03</pdfrwt>
<pdfrwt beam="1">  1       -2 0.61744319E-02 0.20008854E+03</pdfrwt>
<totfact> 0.42275767E+03</totfact>
</mgrwt>
</event>
<event>
 7    1  0.1330601E-005  0.2048791E+03  0.7546771E-02  0.1149755E+00
         -2   -1    0    0    0  501 -0.00000000000E+00  0.00000000000E+00  0.73554634194E+02  0.73554634194E+02  0.00000000000E+00 0.  1.
          2   -1    0    0  501    0  0.00000000000E+00 -0.00000000000E+00 -0.52672095835E+03  0.52672095835E+03  0.00000000000E+00 0. -1.
         23    2    1    2    0    0 -0.15502341144E+03 -0.48285612530E+02 -0.25152086522E+03  0.31281020828E+03  0.90684741252E+02 0.  0.
          5    1    1    2  502    0  0.24583942069E+02  0.35076588954E+02  0.42777721060E+01  0.43302732414E+02  0.47000000000E+01 0. -1.
         -5    1    1    2    0  502  0.13043946937E+03  0.13209023575E+02 -0.20592323104E+03  0.24416265185E+03  0.47000000000E+01 0. -1.
        -11    1    3    3    0    0 -0.23871654108E+02 -0.46320709395E+02 -0.49039618420E+02  0.71556608105E+02  0.00000000000E+00 0.  1.
         11    1    3    3    0    0 -0.13115175733E+03 -0.19649031350E+01 -0.20248124680E+03  0.24125360018E+03  0.00000000000E+00 0. -1.
<mgrwt>
<rscale>  0 0.19998073E+03</rscale>
<asrwt>0</asrwt>
<pdfrwt beam="2">  1        2 0.81033990E-01 0.20487913E+03</pdfrwt>
<pdfrwt beam="1">  1       -2 0.11316098E-01 0.20487913E+03</pdfrwt>
<totfact> 0.31525710E+03</totfact>
</mgrwt>
</event>
<event>
 7    1  0.1330601E-005  0.1552971E+03  0.7546771E-02  0.1202327E+00
          2   -1    0    0  501    0  0.00000000000E+00  0.00000000000E+00  0.25260101620E+03  0.25260101620E+03  0.00000000000E+00 0. -1.
         -2   -1    0    0    0  501 -0.00000000000E+00 -0.00000000000E+00 -0.80798028603E+02  0.80798028603E+02  0.00000000000E+00 0.  1.
         23    2    1    2    0    0 -0.90980836126E+02  0.14673524151E+02  0.67667285505E+02  0.14641926387E+03  0.91470839347E+02 0.  0.
          5    1    1    2  502    0  0.85638761879E+02  0.41321420256E+02  0.84267553833E+02  0.12713995413E+03  0.47000000000E+01 0. -1.
         -5    1    1    2    0  502  0.53420742477E+01 -0.55994944407E+02  0.19868148260E+02  0.59839826802E+02  0.47000000000E+01 0. -1.
        -11    1    3    3    0    0 -0.24255708423E+02 -0.36364745486E+02  0.10962813900E+02  0.45065700859E+02  0.00000000000E+00 0.  1.
         11    1    3    3    0    0 -0.66725127704E+02  0.51038269637E+02  0.56704471605E+02  0.10135356301E+03  0.00000000000E+00 0. -1.
<mgrwt>
<rscale>  0 0.14850084E+03</rscale>
<asrwt>0</asrwt>
<pdfrwt beam="1">  1        2 0.38861694E-01 0.15529712E+03</pdfrwt>
<pdfrwt beam="2">  1       -2 0.12430466E-01 0.15529712E+03</pdfrwt>
<totfact> 0.59242547E+03</totfact>
</mgrwt>
</event>
<event>
 7    1  0.1330601E-005  0.1256444E+03  0.7546771E-02  0.1249941E+00
          3   -1    0    0  501    0  0.00000000000E+00  0.00000000000E+00  0.28796789610E+02  0.28796789610E+02  0.00000000000E+00 0. -1.
         -3   -1    0    0    0  501 -0.00000000000E+00 -0.00000000000E+00 -0.62747299737E+03  0.62747299737E+03  0.00000000000E+00 0.  1.
         23    2    1    2    0    0 -0.12419847067E+02  0.27319344284E+01 -0.75832053093E+02  0.11854073645E+03  0.90220229744E+02 0.  0.
          5    1    1    2  502    0  0.52840505154E+01 -0.51644615563E+02 -0.42320657495E+03  0.42640471689E+03  0.47000000000E+01 0. -1.
         -5    1    1    2    0  502  0.71357965519E+01  0.48912681134E+02 -0.99637579711E+02  0.11132433363E+03  0.47000000000E+01 0. -1.
        -11    1    3    3    0    0 -0.40530117409E+02 -0.81680358219E+01 -0.78034569595E+02  0.88310821977E+02  0.00000000000E+00 0.  1.
         11    1    3    3    0    0  0.28110270341E+02  0.10899970250E+02  0.22025165021E+01  0.30229914473E+02  0.00000000000E+00 0. -1.
<mgrwt>
<rscale>  0 0.11594483E+03</rscale>
<asrwt>0</asrwt>
<pdfrwt beam="1">  1        3 0.44302758E-02 0.12564443E+03</pdfrwt>
<pdfrwt beam="2">  1       -3 0.96534297E-01 0.12564443E+03</pdfrwt>
<totfact> 0.62045936E+02</totfact>
</mgrwt>
</event>
<event>
 7    1  0.1330601E-005  0.1264494E+03  0.7546771E-02  0.1247285E+00
          1   -1    0    0  501    0  0.00000000000E+00  0.00000000000E+00  0.16041644355E+02  0.16041644355E+02  0.00000000000E+00 0. -1.
         -1   -1    0    0    0  501 -0.00000000000E+00 -0.00000000000E+00 -0.76874711071E+03  0.76874711071E+03  0.00000000000E+00 0.  1.
         23    2    1    2    0    0  0.84253872482E+01  0.17132767738E+02 -0.27888456426E+03  0.29438513687E+03  0.92311915526E+02 0.  0.
          5    1    1    2  502    0 -0.65288349037E+02 -0.20639848870E+02 -0.23354941703E+03  0.24342553703E+03  0.47000000000E+01 0. -1.
         -5    1    1    2    0  502  0.56862961789E+02  0.35070811326E+01 -0.24027148506E+03  0.24697808116E+03  0.47000000000E+01 0. -1.
        -11    1    3    3    0    0  0.36485258354E+02  0.28656308511E+02 -0.24303788612E+03  0.24742629646E+03  0.00000000000E+00 0.  1.
         11    1    3    3    0    0 -0.28059871106E+02 -0.11523540773E+02 -0.35846678144E+02  0.46958840407E+02  0.00000000000E+00 0. -1.
<mgrwt>
<rscale>  0 0.11749680E+03</rscale>
<asrwt>0</asrwt>
<pdfrwt beam="1">  1        1 0.24679452E-02 0.12644944E+03</pdfrwt>
<pdfrwt beam="2">  1       -1 0.11826879E+00 0.12644944E+03</pdfrwt>
<totfact> 0.29495373E+03</totfact>
</mgrwt>
</event>
<event>
 7    1  0.1330601E-005  0.1463775E+03  0.7546771E-02  0.1215029E+00
          4   -1    0    0  501    0  0.00000000000E+00  0.00000000000E+00  0.71954118939E+02  0.71954118939E+02  0.00000000000E+00 0. -1.
         -4   -1    0    0    0  501 -0.00000000000E+00 -0.00000000000E+00 -0.24826401141E+03  0.24826401141E+03  0.00000000000E+00 0.  1.
         23    2    1    2    0    0 -0.74748227832E+02  0.14657014913E+02 -0.56028343324E+02  0.13076092291E+03  0.90316765075E+02 0.  0.
          5    1    1    2  502    0  0.59426871928E+02 -0.41975371821E+02 -0.13584070335E+03  0.15416961968E+03  0.47000000000E+01 0.  1.
         -5    1    1    2    0  502  0.15321355904E+02  0.27318356908E+02  0.15559154197E+02  0.35287587765E+02  0.47000000000E+01 0.  1.
        -11    1    3    3    0    0 -0.32861854274E+02 -0.23692278002E+02 -0.61568049257E+02  0.73701086780E+02  0.00000000000E+00 0.  1.
         11    1    3    3    0    0 -0.41886373558E+02  0.38349292916E+02  0.55397059331E+01  0.57059836127E+02  0.00000000000E+00 0. -1.
<mgrwt>
<rscale>  0 0.13874379E+03</rscale>
<asrwt>0</asrwt>
<pdfrwt beam="1">  1        4 0.11069864E-01 0.14637753E+03</pdfrwt>
<pdfrwt beam="2">  1       -4 0.38194464E-01 0.14637753E+03</pdfrwt>
<totfact> 0.71447767E+02</totfact>
</mgrwt>
</event>
<event>
 7    1  0.1330601E-005  0.1629478E+03  0.7546771E-02  0.1192421E+00
         -3   -1    0    0    0  501 -0.00000000000E+00  0.00000000000E+00  0.15312760975E+03  0.15312760975E+03  0.00000000000E+00 0.  1.
          3   -1    0    0  501    0  0.00000000000E+00 -0.00000000000E+00 -0.15148381430E+03  0.15148381430E+03  0.00000000000E+00 0. -1.
         23    2    1    2    0    0  0.77700374403E+02  0.69922847517E+02  0.18732008467E+02  0.14077009735E+03  0.92405515957E+02 0.  0.
          5    1    1    2  502    0  0.25474378171E+02 -0.48199487875E+02  0.81525578112E+01  0.55323492058E+02  0.47000000000E+01 0. -1.
         -5    1    1    2    0  502 -0.10317475257E+03 -0.21723359642E+02 -0.25240770825E+02  0.10851783464E+03  0.47000000000E+01 0. -1.
        -11    1    3    3    0    0  0.32193049584E+02  0.83320548454E+00 -0.30620420815E+02  0.44437561182E+02  0.00000000000E+00 0. -1.
         11    1    3    3    0    0  0.45507324819E+02  0.69089642032E+02  0.49352429282E+02  0.96332536167E+02  0.00000000000E+00 0.  1.
<mgrwt>
<rscale>  0 0.15674512E+03</rscale>
<asrwt>0</asrwt>
<pdfrwt beam="2">  1        3 0.23305202E-01 0.16294776E+03</pdfrwt>
<pdfrwt beam="1">  1       -3 0.23558094E-01 0.16294776E+03</pdfrwt>
<totfact> 0.67837413E+02</totfact>
</mgrwt>
</event>
<event>
 7    1  0.1330601E-005  0.1589540E+03  0.7546771E-02  0.1197744E+00
         -1   -1    0    0    0  501 -0.00000000000E+00  0.00000000000E+00  0.28716185513E+02  0.28716185513E+02  0.00000000000E+00 0.  1.
          1   -1    0    0  501    0  0.00000000000E+00 -0.00000000000E+00 -0.75389621470E+03  0.75389621470E+03  0.00000000000E+00 0. -1.
         23    2    1    2    0    0 -0.68439528618E+02 -0.70412520502E+02 -0.29166410815E+03  0.32087391117E+03  0.90830736914E+02 0.  0.
          5    1    1    2  502    0 -0.20125471836E+02  0.66910529824E+02 -0.20170956101E+03  0.21352023469E+03  0.47000000000E+01 0. -1.
         -5    1    1    2    0  502  0.88565000453E+02  0.35019906789E+01 -0.23180636003E+03  0.24821825435E+03  0.47000000000E+01 0. -1.
        -11    1    3    3    0    0 -0.28020912509E+02 -0.66967258074E+02 -0.25843266508E+03  0.26843477341E+03  0.00000000000E+00 0. -1.
         11    1    3    3    0    0 -0.40418616109E+02 -0.34452624285E+01 -0.33231443061E+02  0.52439137762E+02  0.00000000000E+00 0.  1.
<mgrwt>
<rscale>  0 0.15224265E+03</rscale>
<asrwt>0</asrwt>
<pdfrwt beam="2">  1        1 0.11598403E+00 0.15895401E+03</pdfrwt>
<pdfrwt beam="1">  1       -1 0.44178748E-02 0.15895401E+03</pdfrwt>
<totfact> 0.52260898E+03</totfact>
</mgrwt>
</event>
<event>
 7    1  0.1330601E-005  0.1316206E+03  0.7546771E-02  0.1240598E+00
          2   -1    0    0  501    0  0.00000000000E+00  0.00000000000E+00  0.25356580208E+03  0.25356580208E+03  0.00000000000E+00 0. -1.
         -2   -1    0    0    0  501 -0.00000000000E+00 -0.00000000000E+00 -0.61125201084E+02  0.61125201084E+02  0.00000000000E+00 0.  1.
         23    2    1    2    0    0  0.39874176335E+02  0.10436992813E+02  0.14712254773E+03  0.17548713912E+03  0.86323873805E+02 0.  0.
          5    1    1    2  502    0 -0.76536014286E+02 -0.24182503471E+01 -0.42715438782E+01  0.76837136234E+02  0.47000000000E+01 0.  1.
         -5    1    1    2    0  502  0.36661837952E+02 -0.80187424662E+01  0.49589597147E+02  0.62366727811E+02  0.47000000000E+01 0.  1.
        -11    1    3    3    0    0  0.37528850083E+02 -0.13914711710E+02  0.17685724484E+02  0.43758640759E+02  0.00000000000E+00 0.  1.
         11    1    3    3    0    0  0.23453262512E+01  0.24351704523E+02  0.12943682325E+03  0.13172849836E+03  0.00000000000E+00 0. -1.
<mgrwt>
<rscale>  0 0.12152754E+03</rscale>
<asrwt>0</asrwt>
<pdfrwt beam="1">  1        2 0.39010123E-01 0.13162063E+03</pdfrwt>
<pdfrwt beam="2">  1       -2 0.94038772E-02 0.13162063E+03</pdfrwt>
<totfact> 0.90784034E+03</totfact>
</mgrwt>
</event>
<event>
 7    1  0.1330601E-005  0.1557975E+03  0.7546771E-02  0.1201750E+00
          2   -1    0    0  501    0  0.00000000000E+00  0.00000000000E+00  0.15169360316E+04  0.15169360316E+04  0.00000000000E+00 0. -1.
         -2   -1    0    0    0  501 -0.00000000000E+00 -0.00000000000E+00 -0.13485973611E+02  0.13485973611E+02  0.00000000000E+00 0.  1.
         23    2    1    2    0    0  0.91962826610E+02  0.10217520981E+02  0.67091653511E+03  0.68343621941E+03  0.91621557026E+02 0.  0.
          5    1    1    2  502    0 -0.61043034432E+02 -0.22570036914E+02  0.79035418106E+03  0.79304317672E+03  0.47000000000E+01 0. -1.
         -5    1    1    2    0  502 -0.30919792178E+02  0.12352515934E+02  0.42179341833E+02  0.53942609092E+02  0.47000000000E+01 0.  1.
        -11    1    3    3    0    0  0.70326150537E+02  0.49059883027E+02  0.43873325796E+03  0.44703412757E+03  0.00000000000E+00 0. -1.
         11    1    3    3    0    0  0.21636676073E+02 -0.38842362046E+02  0.23218327715E+03  0.23640209184E+03  0.00000000000E+00 0.  1.
<mgrwt>
<rscale>  0 0.14896559E+03</rscale>
<asrwt>0</asrwt>
<pdfrwt beam="1">  1        2 0.23337464E+00 0.15579748E+03</pdfrwt>
<pdfrwt beam="2">  1       -2 0.20747664E-02 0.15579748E+03</pdfrwt>
<totfact> 0.96028945E+03</totfact>
</mgrwt>
</event>
<event>
 7    1  0.1705501E-005  0.1314913E+03  0.7546771E-02  0.1239897E+00
         -4   -1    0    0    0  501 -0.00000000000E+00  0.00000000000E+00  0.24574809588E+03  0.24574809588E+03  0.00000000000E+00 0.  1.
          4   -1    0    0  501    0  0.00000000000E+00 -0.00000000000E+00 -0.55951319122E+02  0.55951319122E+02  0.00000000000E+00 0. -1.
         23    2    1    2    0    0 -0.27297139038E+02 -0.30342248454E+02  0.48670722576E+02  0.10880950451E+03  0.88345249981E+02 0.  0.
          5    1    1    2  502    0 -0.45745083190E+01  0.30534703514E+02  0.15477972845E+03  0.15789917221E+03  0.47000000000E+01 0.  1.
         -5    1    1    2    0  502  0.31871647357E+02 -0.19245505993E+00 -0.13653674275E+02  0.34990738280E+02  0.47000000000E+01 0.  1.
        -11    1    3    3    0    0  0.14196415984E+02  0.16249986867E+01  0.54281069429E+02  0.56130324655E+02  0.00000000000E+00 0. -1.
         11    1    3    3    0    0 -0.41493555022E+02 -0.31967247140E+02 -0.56103468528E+01  0.52679179852E+02  0.00000000000E+00 0.  1.
<mgrwt>
<rscale>  0 0.12196080E+03</rscale>
<asrwt>0</asrwt>
<pdfrwt beam="2">  1        4 0.86078954E-02 0.13149127E+03</pdfrwt>
<pdfrwt beam="1">  1       -4 0.37807399E-01 0.13149127E+03</pdfrwt>
<totfact> 0.10889055E+03</totfact>
</mgrwt>
</event>
<event>
 7    1  0.1379133E-005  0.1618345E+03  0.7546771E-02  0.1194713E+00
         -2   -1    0    0    0  501 -0.00000000000E+00  0.00000000000E+00  0.31094847443E+02  0.31094847443E+02  0.00000000000E+00 0.  1.
          2   -1    0    0  501    0  0.00000000000E+00 -0.00000000000E+00 -0.10048001153E+04  0.10048001153E+04  0.00000000000E+00 0. -1.
         23    2    1    2    0    0  0.79176564794E+02 -0.65548361327E+02 -0.73582822203E+03  0.74818696328E+03  0.88176207608E+02 0.  0.
          5    1    1    2  502    0 -0.17169956519E+02  0.25357587986E+01  0.12659042179E+02  0.21990425836E+02  0.47000000000E+01 0. -1.
         -5    1    1    2    0  502 -0.62006608274E+02  0.63012602528E+02 -0.25053608804E+03  0.26571757367E+03  0.47000000000E+01 0. -1.
        -11    1    3    3    0    0  0.45625682505E+02  0.14261823375E+02 -0.21886965734E+03  0.22402908163E+03  0.00000000000E+00 0.  1.
         11    1    3    3    0    0  0.33550882289E+02 -0.79810184702E+02 -0.51695856469E+03  0.52415788165E+03  0.00000000000E+00 0. -1.
<mgrwt>
<rscale>  0 0.15478537E+03</rscale>
<asrwt>0</asrwt>
<pdfrwt beam="2">  1        2 0.15458461E+00 0.16183450E+03</pdfrwt>
<pdfrwt beam="1">  1       -2 0.47838234E-02 0.16183450E+03</pdfrwt>
<totfact> 0.53621069E+03</totfact>
</mgrwt>
</event>
<event>
 7    1  0.1330601E-005  0.1290732E+03  0.7546771E-02  0.1240121E+00
          2   -1    0    0  501    0  0.00000000000E+00  0.00000000000E+00  0.40383030788E+02  0.40383030788E+02  0.00000000000E+00 0. -1.
         -2   -1    0    0    0  501 -0.00000000000E+00 -0.00000000000E+00 -0.35297588335E+03  0.35297588335E+03  0.00000000000E+00 0.  1.
         23    2    1    2    0    0 -0.26618177187E+02  0.18087961693E+02 -0.91474195673E+02  0.13732502409E+03  0.97236474906E+02 0.  0.
          5    1    1    2  502    0  0.72293808566E+02  0.35332048333E+01 -0.91016282987E+02  0.11638269658E+03  0.47000000000E+01 0.  1.
         -5    1    1    2    0  502 -0.45675631379E+02 -0.21621166526E+02 -0.13010237390E+03  0.13965119348E+03  0.47000000000E+01 0.  1.
        -11    1    3    3    0    0  0.65991740680E+01 -0.36692320075E+02 -0.24312139425E+02  0.44507927095E+02  0.00000000000E+00 0. -1.
         11    1    3    3    0    0 -0.33217351255E+02  0.54780281768E+02 -0.67162056248E+02  0.92817096994E+02  0.00000000000E+00 0.  1.
<mgrwt>
<rscale>  0 0.12182244E+03</rscale>
<asrwt>0</asrwt>
<pdfrwt beam="1">  1        2 0.62127742E-02 0.12907321E+03</pdfrwt>
<pdfrwt beam="2">  1       -2 0.54303980E-01 0.12907321E+03</pdfrwt>
<totfact> 0.36450703E+03</totfact>
</mgrwt>
</event>
<event>
 7    1  0.1330601E-005  0.1858808E+03  0.7546771E-02  0.1167376E+00
          1   -1    0    0  501    0  0.00000000000E+00  0.00000000000E+00  0.28489025604E+03  0.28489025604E+03  0.00000000000E+00 0. -1.
         -1   -1    0    0    0  501 -0.00000000000E+00 -0.00000000000E+00 -0.15141300421E+03  0.15141300421E+03  0.00000000000E+00 0.  1.
         23    2    1    2    0    0  0.13743359209E+03 -0.61661202527E+01  0.18047363876E+03  0.24457343449E+03  0.91210839792E+02 0.  0.
          5    1    1    2  502    0 -0.70614935595E+02 -0.74761562883E+01 -0.87099637711E+02  0.11247577042E+03  0.47000000000E+01 0.  1.
         -5    1    1    2    0  502 -0.66818656497E+02  0.13642276541E+02  0.40103250774E+02  0.79254055341E+02  0.47000000000E+01 0.  1.
        -11    1    3    3    0    0  0.11646180912E+03 -0.72177829179E+01  0.78911515318E+02  0.14086332604E+03  0.00000000000E+00 0.  1.
         11    1    3    3    0    0  0.20971782969E+02  0.10516626651E+01  0.10156212344E+03  0.10371010844E+03  0.00000000000E+00 0. -1.
<mgrwt>
<rscale>  0 0.18044198E+03</rscale>
<asrwt>0</asrwt>
<pdfrwt beam="1">  1        1 0.43829270E-01 0.18588078E+03</pdfrwt>
<pdfrwt beam="2">  1       -1 0.23294308E-01 0.18588078E+03</pdfrwt>
<totfact> 0.14548332E+03</totfact>
</mgrwt>
</event>
<event>
 7    1  0.1330601E-005  0.1181203E+03  0.7546771E-02  0.1268691E+00
         -2   -1    0    0    0  501 -0.00000000000E+00  0.00000000000E+00  0.20535611847E+02  0.20535611847E+02  0.00000000000E+00 0.  1.
          2   -1    0    0  501    0  0.00000000000E+00 -0.00000000000E+00 -0.46145832796E+03  0.46145832796E+03  0.00000000000E+00 0. -1.
         23    2    1    2    0    0 -0.39859322946E+02 -0.48084562433E-01 -0.19339721131E+03  0.20772896102E+03  0.64498619866E+02 0.  0.
          5    1    1    2  502    0 -0.22431643683E+02  0.78689240745E+01 -0.18121961285E+03  0.18283253727E+03  0.47000000000E+01 0. -1.
         -5    1    1    2    0  502  0.62290966629E+02 -0.78208395121E+01 -0.66305891955E+02  0.91432441519E+02  0.47000000000E+01 0.  1.
        -11    1    3    3    0    0 -0.57789298599E+02 -0.30599798687E+00 -0.15198287228E+03  0.16259917015E+03  0.00000000000E+00 0. -1.
         11    1    3    3    0    0  0.17929975653E+02  0.25791342444E+00 -0.41414339027E+02  0.45129790862E+02  0.00000000000E+00 0.  1.
<mgrwt>
<rscale>  0 0.10572822E+03</rscale>
<asrwt>0</asrwt>
<pdfrwt beam="2">  1        2 0.70993590E-01 0.11812029E+03</pdfrwt>
<pdfrwt beam="1">  1       -2 0.31593248E-02 0.11812029E+03</pdfrwt>
<totfact> 0.24668827E+04</totfact>
</mgrwt>
</event>
<event>
 7    1  0.1330601E-005  0.1583308E+03  0.7546771E-02  0.1198722E+00
         -2   -1    0    0    0  501 -0.00000000000E+00  0.00000000000E+00  0.41331256330E+03  0.41331256330E+03  0.00000000000E+00 0.  1.
          2   -1    0    0  501    0  0.00000000000E+00 -0.00000000000E+00 -0.76006983169E+02  0.76006983169E+02  0.00000000000E+00 0. -1.
         23    2    1    2    0    0  0.96288570707E+02 -0.13102859001E+02  0.19053662533E+02  0.13385798689E+03  0.90065225456E+02 0.  0.
          5    1    1    2  502    0 -0.12136947937E+03 -0.85764486474E+01  0.21713924610E+03  0.24894908755E+03  0.47000000000E+01 0.  1.
         -5    1    1    2    0  502  0.25080908666E+02  0.21679307648E+02  0.10111267149E+03  0.10651247202E+03  0.47000000000E+01 0.  1.
        -11    1    3    3    0    0  0.73007712146E+02 -0.19954922582E+02 -0.28174353380E+02  0.80759638164E+02  0.00000000000E+00 0. -1.
         11    1    3    3    0    0  0.23280858561E+02  0.68520635812E+01  0.47228015913E+02  0.53098348729E+02  0.00000000000E+00 0.  1.
<mgrwt>
<rscale>  0 0.15143417E+03</rscale>
<asrwt>0</asrwt>
<pdfrwt beam="2">  1        2 0.11693382E-01 0.15833078E+03</pdfrwt>
<pdfrwt beam="1">  1       -2 0.63586547E-01 0.15833078E+03</pdfrwt>
<totfact> 0.12115641E+03</totfact>
</mgrwt>
</event>
<event>
 7    1  0.1330601E-005  0.1614239E+03  0.7546771E-02  0.1194315E+00
         -2   -1    0    0    0  501 -0.00000000000E+00  0.00000000000E+00  0.22040026439E+03  0.22040026439E+03  0.00000000000E+00 0.  1.
          2   -1    0    0  501    0  0.00000000000E+00 -0.00000000000E+00 -0.10183479560E+03  0.10183479560E+03  0.00000000000E+00 0. -1.
         23    2    1    2    0    0 -0.10211078772E+03 -0.24077779128E+01  0.64267227390E+02  0.15192367391E+03  0.92293639085E+02 0.  0.
          5    1    1    2  502    0 -0.10202364335E+02 -0.46447897842E+01  0.56364174375E+02  0.57659972798E+02  0.47000000000E+01 0. -1.
         -5    1    1    2    0  502  0.11231315205E+03  0.70525676970E+01 -0.20659329757E+01  0.11265141328E+03  0.47000000000E+01 0. -1.
        -11    1    3    3    0    0 -0.86503828640E+02 -0.54227904229E+01  0.98876228563E+00  0.86679274779E+02  0.00000000000E+00 0. -1.
         11    1    3    3    0    0 -0.15606959076E+02  0.30150125101E+01  0.63278465105E+02  0.65244399132E+02  0.00000000000E+00 0.  1.
<mgrwt>
<rscale>  0 0.15512382E+03</rscale>
<asrwt>0</asrwt>
<pdfrwt beam="2">  1        2 0.15666892E-01 0.16142388E+03</pdfrwt>
<pdfrwt beam="1">  1       -2 0.33907733E-01 0.16142388E+03</pdfrwt>
<totfact> 0.29308320E+03</totfact>
</mgrwt>
</event>
<event>
 7    1  0.1330601E-005  0.1509196E+03  0.7546771E-02  0.1208036E+00
          4   -1    0    0  501    0  0.00000000000E+00  0.00000000000E+00  0.24563081781E+02  0.24563081781E+02  0.00000000000E+00 0. -1.
         -4   -1    0    0    0  501 -0.00000000000E+00 -0.00000000000E+00 -0.78187083469E+03  0.78187083469E+03  0.00000000000E+00 0.  1.
         23    2    1    2    0    0 -0.82292049157E+01 -0.84164810506E+02 -0.30729139401E+03  0.33178513926E+03  0.92205979527E+02 0.  0.
          5    1    1    2  502    0  0.16395825570E+02  0.10175146879E+03 -0.44072462606E+03  0.45263944869E+03  0.47000000000E+01 0. -1.
         -5    1    1    2    0  502 -0.81666206543E+01 -0.17586658288E+02 -0.92917328396E+01  0.22009328518E+02  0.47000000000E+01 0. -1.
        -11    1    3    3    0    0 -0.24697767066E+02 -0.68051558227E+02 -0.29845314850E+03  0.30710792261E+03  0.00000000000E+00 0.  1.
         11    1    3    3    0    0  0.16468562150E+02 -0.16113252279E+02 -0.88382455094E+01  0.24677216658E+02  0.00000000000E+00 0. -1.
<mgrwt>
<rscale>  0 0.14400757E+03</rscale>
<asrwt>0</asrwt>
<pdfrwt beam="1">  1        4 0.37789357E-02 0.15091964E+03</pdfrwt>
<pdfrwt beam="2">  1       -4 0.12028782E+00 0.15091964E+03</pdfrwt>
<totfact> 0.35088147E+02</totfact>
</mgrwt>
</event>
<event>
 7    1  0.1330601E-005  0.1395561E+03  0.7546771E-02  0.1226265E+00
          1   -1    0    0  501    0  0.00000000000E+00  0.00000000000E+00  0.19420880288E+03  0.19420880288E+03  0.00000000000E+00 0. -1.
         -1   -1    0    0    0  501 -0.00000000000E+00 -0.00000000000E+00 -0.78810069027E+02  0.78810069027E+02  0.00000000000E+00 0.  1.
         23    2    1    2    0    0  0.61237700305E+02 -0.10130304124E+02  0.45345816049E+02  0.11686728534E+03  0.88028633689E+02 0.  0.
          5    1    1    2  502    0 -0.53133056273E+02  0.63630028943E+02  0.28569388282E+02  0.87807757055E+02  0.47000000000E+01 0.  1.
         -5    1    1    2    0  502 -0.81046440320E+01 -0.53499724819E+02  0.41483529518E+02  0.68343829508E+02  0.47000000000E+01 0.  1.
        -11    1    3    3    0    0 -0.16012793311E+02 -0.14634830723E+02 -0.77337127675E+01  0.23030374141E+02  0.00000000000E+00 0.  1.
         11    1    3    3    0    0  0.77250493616E+02  0.45045265982E+01  0.53079528816E+02  0.93836911198E+02  0.00000000000E+00 0. -1.
<mgrwt>
<rscale>  0 0.13080578E+03</rscale>
<asrwt>0</asrwt>
<pdfrwt beam="1">  1        1 0.29878277E-01 0.13955611E+03</pdfrwt>
<pdfrwt beam="2">  1       -1 0.12124626E-01 0.13955611E+03</pdfrwt>
<totfact> 0.65370573E+03</totfact>
</mgrwt>
</event>
<event>
 7    1  0.1330601E-005  0.1467121E+03  0.7546771E-02  0.1214059E+00
         -4   -1    0    0    0  501 -0.00000000000E+00  0.00000000000E+00  0.21707903716E+02  0.21707903716E+02  0.00000000000E+00 0.  1.
          4   -1    0    0  501    0  0.00000000000E+00 -0.00000000000E+00 -0.88944343912E+03  0.88944343912E+03  0.00000000000E+00 0. -1.
         23    2    1    2    0    0  0.75021358751E+02  0.16465218428E+02 -0.52216219558E+03  0.53572441501E+03  0.91912907968E+02 0.  0.
          5    1    1    2  502    0  0.32335111588E+02  0.66744472086E+01 -0.50249314010E+02  0.60309130697E+02  0.47000000000E+01 0. -1.
         -5    1    1    2    0  502 -0.10735647034E+03 -0.23139665637E+02 -0.29532402582E+03  0.31511779714E+03  0.47000000000E+01 0. -1.
        -11    1    3    3    0    0 -0.16441102123E+02  0.15927445999E+02 -0.53035731668E+02  0.57764887333E+02  0.00000000000E+00 0. -1.
         11    1    3    3    0    0  0.91462460874E+02  0.53777242952E+00 -0.46912646391E+03  0.47795952767E+03  0.00000000000E+00 0.  1.
<mgrwt>
<rscale>  0 0.13945873E+03</rscale>
<asrwt>0</asrwt>
<pdfrwt beam="2">  1        4 0.13683744E+00 0.14671212E+03</pdfrwt>
<pdfrwt beam="1">  1       -4 0.33396778E-02 0.14671212E+03</pdfrwt>
<totfact> 0.30965656E+02</totfact>
</mgrwt>
</event>
<event>
 6    1  0.1330601E-005  0.3012113E+03  0.7546771E-02  0.1121337E+00
          2   -1    0    0  501    0  0.00000000000E+00  0.00000000000E+00  0.21567582226E+03  0.21567582226E+03  0.00000000000E+00 0. -1.
         -2   -1    0    0    0  501 -0.00000000000E+00 -0.00000000000E+00 -0.46593159168E+03  0.46593159168E+03  0.00000000000E+00 0.  1.
          5    1    1    2  502    0 -0.31172939762E+02  0.98151508884E+02 -0.13761248119E+01  0.10309924631E+03  0.47000000000E+01 0. -1.
         -5    1    1    2    0  502 -0.93662616600E+01  0.46520738483E+01 -0.39290362590E+03  0.39307088152E+03  0.47000000000E+01 0.  1.
        -11    1    1    2    0    0  0.86760699688E+01 -0.65940492305E+02  0.97820089382E+02  0.11828859878E+03  0.00000000000E+00 0. -1.
         11    1    1    2    0    0  0.31863131453E+02 -0.36863090427E+02  0.46203891918E+02  0.67148687330E+02  0.00000000000E+00 0.  1.
<mgrwt>
<rscale>  0 0.23769581E+03</rscale>
<asrwt>0</asrwt>
<pdfrwt beam="1">  1        2 0.33180896E-01 0.30121134E+03</pdfrwt>
<pdfrwt beam="2">  1       -2 0.71681782E-01 0.30121134E+03</pdfrwt>
<totfact> 0.28551504E+02</totfact>
</mgrwt>
</event>
<event>
 7    1  0.1330601E-005  0.4540146E+03  0.7546771E-02  0.1027126E+00
         -2   -1    0    0    0  501 -0.00000000000E+00  0.00000000000E+00  0.16681546132E+03  0.16681546132E+03  0.00000000000E+00 0.  1.
          2   -1    0    0  501    0  0.00000000000E+00 -0.00000000000E+00 -0.12337184251E+04  0.12337184251E+04  0.00000000000E+00 0. -1.
         23    2    1    2    0    0  0.12178496998E+03 -0.41913391848E+03 -0.61728009896E+03  0.76155817300E+03  0.91822163754E+02 0.  0.
          5    1    1    2  502    0 -0.67151517755E+02  0.31966825949E+03 -0.25821634923E+03  0.41640712706E+03  0.47000000000E+01 0. -1.
         -5    1    1    2    0  502 -0.54633452228E+02  0.99465658994E+02 -0.19140651555E+03  0.22256858632E+03  0.47000000000E+01 0. -1.
        -11    1    3    3    0    0  0.65233412603E+02 -0.33200375554E+03 -0.42733705397E+03  0.54506774763E+03  0.00000000000E+00 0.  1.
         11    1    3    3    0    0  0.56551557380E+02 -0.87130162940E+02 -0.18994304499E+03  0.21649042536E+03  0.00000000000E+00 0. -1.
<mgrwt>
<rscale>  0 0.45200325E+03</rscale>
<asrwt>0</asrwt>
<pdfrwt beam="2">  1        2 0.18980283E+00 0.45401458E+03</pdfrwt>
<pdfrwt beam="1">  1       -2 0.25663917E-01 0.45401458E+03</pdfrwt>
<totfact> 0.25561668E+02</totfact>
</mgrwt>
</event>
<event>
 7    1  0.1330601E-005  0.1610489E+03  0.7546771E-02  0.1197593E+00
         -4   -1    0    0    0  501 -0.00000000000E+00  0.00000000000E+00  0.17147199159E+03  0.17147199159E+03  0.00000000000E+00 0. -1.
          4   -1    0    0  501    0  0.00000000000E+00 -0.00000000000E+00 -0.12557606851E+03  0.12557606851E+03  0.00000000000E+00 0.  1.
         23    2    1    2    0    0 -0.46100013974E+02  0.90488117173E+02 -0.19285249425E+01  0.12904823370E+03  0.79601612886E+02 0.  0.
          5    1    1    2  502    0  0.75003239303E+02 -0.43163568831E+02  0.66565052650E+02  0.10927751742E+03  0.47000000000E+01 0. -1.
         -5    1    1    2    0  502 -0.28903225329E+02 -0.47324548342E+02 -0.18740604627E+02  0.58722308981E+02  0.47000000000E+01 0. -1.
        -11    1    3    3    0    0 -0.51830061863E+02  0.34445811765E+02  0.24425487976E+02  0.66854122713E+02  0.00000000000E+00 0. -1.
         11    1    3    3    0    0  0.57300478893E+01  0.56042305408E+02 -0.26354012918E+02  0.62194110984E+02  0.00000000000E+00 0.  1.
<mgrwt>
<rscale>  0 0.15236819E+03</rscale>
<asrwt>0</asrwt>
<pdfrwt beam="2">  1        4 0.19319395E-01 0.16104895E+03</pdfrwt>
<pdfrwt beam="1">  1       -4 0.26380306E-01 0.16104895E+03</pdfrwt>
<totfact> 0.55757088E+02</totfact>
</mgrwt>
</event>
<event>
 7    1  0.1330601E-005  0.1670590E+03  0.7546771E-02  0.1186853E+00
         -2   -1    0    0    0  501 -0.00000000000E+00  0.00000000000E+00  0.66896233172E+03  0.66896233172E+03  0.00000000000E+00 0.  1.
          2   -1    0    0  501    0  0.00000000000E+00 -0.00000000000E+00 -0.49741478053E+02  0.49741478053E+02  0.00000000000E+00 0. -1.
         23    2    1    2    0    0  0.10490264684E+02  0.11030615345E+03  0.11104936393E+03  0.18377673835E+03  0.95731056537E+02 0.  0.
          5    1    1    2  502    0  0.29990567475E+01 -0.12738521424E+03  0.48960644742E+03  0.50593729898E+03  0.47000000000E+01 0.  1.
         -5    1    1    2    0  502 -0.13489321432E+02  0.17079060784E+02  0.18565042322E+02  0.28989772444E+02  0.47000000000E+01 0.  1.
        -11    1    3    3    0    0 -0.37716447593E+02  0.18744829148E+02  0.23485631565E+02  0.48223167968E+02  0.00000000000E+00 0. -1.
         11    1    3    3    0    0  0.48206712278E+02  0.91561324306E+02  0.87563732361E+02  0.13555357038E+03  0.00000000000E+00 0.  1.
<mgrwt>
<rscale>  0 0.16164430E+03</rscale>
<asrwt>0</asrwt>
<pdfrwt beam="2">  1        2 0.76525356E-02 0.16705900E+03</pdfrwt>
<pdfrwt beam="1">  1       -2 0.10291728E+00 0.16705900E+03</pdfrwt>
<totfact> 0.71135907E+02</totfact>
</mgrwt>
</event>
<event>
 7    1  0.1330601E-005  0.1456157E+03  0.7546771E-02  0.1216073E+00
         -1   -1    0    0    0  501 -0.00000000000E+00  0.00000000000E+00  0.37093727889E+02  0.37093727889E+02  0.00000000000E+00 0.  1.
          1   -1    0    0  501    0  0.00000000000E+00 -0.00000000000E+00 -0.47980818594E+03  0.47980818594E+03  0.00000000000E+00 0. -1.
         23    2    1    2    0    0 -0.13040265429E+02 -0.73535984838E+02 -0.24154714160E+03  0.26856297784E+03  0.90572964304E+02 0.  0.
          5    1    1    2  502    0  0.63847397584E+02  0.64687978816E+02 -0.10374084470E+03  0.13800462905E+03  0.47000000000E+01 0. -1.
         -5    1    1    2    0  502 -0.50807132155E+02  0.88480060219E+01 -0.97426471755E+02  0.11033430694E+03  0.47000000000E+01 0. -1.
        -11    1    3    3    0    0 -0.23280074758E+02 -0.37686898261E+02 -0.22217426866E+03  0.22654727947E+03  0.00000000000E+00 0. -1.
         11    1    3    3    0    0  0.10239809329E+02 -0.35849086577E+02 -0.19372872940E+02  0.42015698369E+02  0.00000000000E+00 0.  1.
<mgrwt>
<rscale>  0 0.13798011E+03</rscale>
<asrwt>0</asrwt>
<pdfrwt beam="2">  1        1 0.73816639E-01 0.14561572E+03</pdfrwt>
<pdfrwt beam="1">  1       -1 0.57067278E-02 0.14561572E+03</pdfrwt>
<totfact> 0.66218703E+03</totfact>
</mgrwt>
</event>
<event>
 7    1  0.1330601E-005  0.1546024E+03  0.7546771E-02  0.1203350E+00
          2   -1    0    0  501    0  0.00000000000E+00  0.00000000000E+00  0.26058016116E+03  0.26058016116E+03  0.00000000000E+00 0. -1.
         -2   -1    0    0    0  501 -0.00000000000E+00 -0.00000000000E+00 -0.77217714753E+02  0.77217714753E+02  0.00000000000E+00 0.  1.
         23    2    1    2    0    0 -0.90752962759E+02 -0.64055852818E+01  0.91936139208E+02  0.15818530906E+03  0.91067044196E+02 0.  0.
          5    1    1    2  502    0  0.17417494355E+02  0.49371875208E+02 -0.27869553291E+01  0.52638467789E+02  0.47000000000E+01 0. -1.
         -5    1    1    2    0  502  0.73335468404E+02 -0.42966289927E+02  0.94213262530E+02  0.12697409906E+03  0.47000000000E+01 0. -1.
        -11    1    3    3    0    0 -0.54957811269E+02 -0.38488317392E+02  0.17097185233E+02  0.69238900469E+02  0.00000000000E+00 0.  1.
         11    1    3    3    0    0 -0.35795151489E+02  0.32082732110E+02  0.74838953975E+02  0.88946408594E+02  0.00000000000E+00 0. -1.
<mgrwt>
<rscale>  0 0.14768236E+03</rscale>
<asrwt>0</asrwt>
<pdfrwt beam="1">  1        2 0.40089255E-01 0.15460241E+03</pdfrwt>
<pdfrwt beam="2">  1       -2 0.11879649E-01 0.15460241E+03</pdfrwt>
<totfact> 0.61610014E+03</totfact>
</mgrwt>
</event>
<event>
 7    1  0.1330601E-005  0.1562137E+03  0.7546771E-02  0.1201481E+00
         -2   -1    0    0    0  501 -0.00000000000E+00  0.00000000000E+00  0.21661769052E+02  0.21661769052E+02  0.00000000000E+00 0. -1.
          2   -1    0    0  501    0  0.00000000000E+00 -0.00000000000E+00 -0.10372899148E+04  0.10372899148E+04  0.00000000000E+00 0.  1.
         23    2    1    2    0    0 -0.68589414182E+02 -0.63831703047E+02 -0.62267155866E+03  0.63608339855E+03  0.90017919877E+02 0.  0.
          5    1    1    2  502    0 -0.84610260479E+01 -0.68385488408E+00 -0.23750206039E+03  0.23770017945E+03  0.47000000000E+01 0.  1.
         -5    1    1    2    0  502  0.77050440230E+02  0.64515557931E+02 -0.15545452671E+03  0.18516810586E+03  0.47000000000E+01 0.  1.
        -11    1    3    3    0    0 -0.62955456455E+02 -0.80093411559E+02 -0.59376897605E+03  0.60244496927E+03  0.00000000000E+00 0. -1.
         11    1    3    3    0    0 -0.56339577270E+01  0.16261708512E+02 -0.28902582602E+02  0.33638429281E+02  0.00000000000E+00 0.  1.
<mgrwt>
<rscale>  0 0.14918252E+03</rscale>
<asrwt>0</asrwt>
<pdfrwt beam="2">  1        2 0.15958305E+00 0.15621366E+03</pdfrwt>
<pdfrwt beam="1">  1       -2 0.33325802E-02 0.15621366E+03</pdfrwt>
<totfact> 0.87819455E+03</totfact>
</mgrwt>
</event>
<event>
 7    1  0.1330601E-005  0.1779947E+03  0.7546771E-02  0.1175405E+00
         -2   -1    0    0    0  501 -0.00000000000E+00  0.00000000000E+00  0.65677707496E+02  0.65677707496E+02  0.00000000000E+00 0. -1.
          2   -1    0    0  501    0  0.00000000000E+00 -0.00000000000E+00 -0.47304323950E+03  0.47304323950E+03  0.00000000000E+00 0.  1.
         23    2    1    2    0    0  0.92928310169E+02 -0.86144316013E+02 -0.27675049262E+03  0.31794409857E+03  0.91875462677E+02 0.  0.
          5    1    1    2  502    0 -0.30248602670E+02  0.42105197064E+02  0.16698724107E+02  0.54669579933E+02  0.47000000000E+01 0. -1.
         -5    1    1    2    0  502 -0.62679707499E+02  0.44039118949E+02 -0.14731376350E+03  0.16610726849E+03  0.47000000000E+01 0. -1.
        -11    1    3    3    0    0 -0.18506601386E+02 -0.81993115727E+01 -0.42696107219E+02  0.47251249473E+02  0.00000000000E+00 0. -1.
         11    1    3    3    0    0  0.11143491155E+03 -0.77945004441E+02 -0.23405438540E+03  0.27069284910E+03  0.00000000000E+00 0.  1.
<mgrwt>
<rscale>  0 0.17236372E+03</rscale>
<asrwt>0</asrwt>
<pdfrwt beam="2">  1        2 0.72775886E-01 0.17799474E+03</pdfrwt>
<pdfrwt beam="1">  1       -2 0.10104262E-01 0.17799474E+03</pdfrwt>
<totfact> 0.42329618E+03</totfact>
</mgrwt>
</event>
<event>
 7    1  0.1330601E-005  0.1505599E+03  0.7546771E-02  0.1208698E+00
         -3   -1    0    0    0  501 -0.00000000000E+00  0.00000000000E+00  0.21931539168E+03  0.21931539168E+03  0.00000000000E+00 0.  1.
          3   -1    0    0  501    0  0.00000000000E+00 -0.00000000000E+00 -0.88153815643E+02  0.88153815643E+02  0.00000000000E+00 0. -1.
         23    2    1    2    0    0  0.63496760884E+02 -0.54877093320E+02  0.35970796493E+02  0.12934122348E+03  0.91607422607E+02 0.  0.
          5    1    1    2  502    0 -0.56678825278E+02  0.93478492712E+02  0.57781891134E+02  0.12373986737E+03  0.47000000000E+01 0. -1.
         -5    1    1    2    0  502 -0.68179356066E+01 -0.38601399393E+02  0.37408888405E+02  0.54388116466E+02  0.47000000000E+01 0. -1.
        -11    1    3    3    0    0  0.45565185083E+02  0.90648234312E+01 -0.11317082296E+02  0.47816665162E+02  0.00000000000E+00 0. -1.
         11    1    3    3    0    0  0.17931575801E+02 -0.63941916751E+02  0.47287878789E+02  0.81524558317E+02  0.00000000000E+00 0.  1.
<mgrwt>
<rscale>  0 0.14349814E+03</rscale>
<asrwt>0</asrwt>
<pdfrwt beam="2">  1        3 0.13562125E-01 0.15055994E+03</pdfrwt>
<pdfrwt beam="1">  1       -3 0.33740829E-01 0.15055994E+03</pdfrwt>
<totfact> 0.89077144E+02</totfact>
</mgrwt>
</event>
<event>
 7    1  0.1330601E-005  0.1478203E+03  0.7546771E-02  0.1213004E+00
         -1   -1    0    0    0  501 -0.00000000000E+00  0.00000000000E+00  0.21468934603E+03  0.21468934603E+03  0.00000000000E+00 0.  1.
          1   -1    0    0  501    0  0.00000000000E+00 -0.00000000000E+00 -0.94199215076E+02  0.94199215076E+02  0.00000000000E+00 0. -1.
         23    2    1    2    0    0 -0.59337507352E+02  0.51988651652E+02  0.25556326553E+01  0.11978702496E+03  0.90103498323E+02 0.  0.
          5    1    1    2  502    0  0.58461362402E+02 -0.27841145303E+02 -0.36740879601E+01  0.65026526802E+02  0.47000000000E+01 0.  1.
         -5    1    1    2    0  502  0.87614495049E+00 -0.24147506348E+02  0.12160858626E+03  0.12407500935E+03  0.47000000000E+01 0.  1.
        -11    1    3    3    0    0 -0.78409248991E+02  0.50546274804E+02 -0.14194266438E+02  0.94363199520E+02  0.00000000000E+00 0. -1.
         11    1    3    3    0    0  0.19071741639E+02  0.14423768480E+01  0.16749899094E+02  0.25423825435E+02  0.00000000000E+00 0.  1.
<mgrwt>
<rscale>  0 0.14024207E+03</rscale>
<asrwt>0</asrwt>
<pdfrwt beam="2">  1        1 0.14492187E-01 0.14782031E+03</pdfrwt>
<pdfrwt beam="1">  1       -1 0.33029130E-01 0.14782031E+03</pdfrwt>
<totfact> 0.32656414E+03</totfact>
</mgrwt>
</event>
<event>
 7    1  0.1330601E-005  0.1423084E+03  0.7546771E-02  0.1220728E+00
          2   -1    0    0  501    0  0.00000000000E+00  0.00000000000E+00  0.68442835261E+03  0.68442835261E+03  0.00000000000E+00 0. -1.
         -2   -1    0    0    0  501 -0.00000000000E+00 -0.00000000000E+00 -0.48149229895E+02  0.48149229895E+02  0.00000000000E+00 0.  1.
         23    2    1    2    0    0  0.42553423385E+02  0.53070657256E+02  0.55925507612E+03  0.57076166920E+03  0.91516962116E+02 0.  0.
          5    1    1    2  502    0 -0.78264179016E+02 -0.75992727390E+01  0.66003953354E+02  0.10276985220E+03  0.47000000000E+01 0.  1.
         -5    1    1    2    0  502  0.35710755632E+02 -0.45471384517E+02  0.11020093246E+02  0.59046061112E+02  0.47000000000E+01 0.  1.
        -11    1    3    3    0    0 -0.16906491575E+02 -0.15523154547E+02  0.97127159320E+02  0.99802218723E+02  0.00000000000E+00 0. -1.
         11    1    3    3    0    0  0.59459914959E+02  0.68593811803E+02  0.46212791680E+03  0.47095945047E+03  0.00000000000E+00 0.  1.
<mgrwt>
<rscale>  0 0.13464087E+03</rscale>
<asrwt>0</asrwt>
<pdfrwt beam="1">  1        2 0.10529666E+00 0.14230842E+03</pdfrwt>
<pdfrwt beam="2">  1       -2 0.74075743E-02 0.14230842E+03</pdfrwt>
<totfact> 0.44746903E+03</totfact>
</mgrwt>
</event>
<event>
 7    1  0.1330601E-005  0.1294048E+03  0.7546771E-02  0.1242220E+00
          2   -1    0    0  501    0  0.00000000000E+00  0.00000000000E+00  0.51986359808E+02  0.51986359808E+02  0.00000000000E+00 0. -1.
         -2   -1    0    0    0  501 -0.00000000000E+00 -0.00000000000E+00 -0.35217060320E+03  0.35217060320E+03  0.00000000000E+00 0.  1.
         23    2    1    2    0    0  0.37633890431E+01 -0.33261756154E+02 -0.25760013722E+02  0.10075251364E+03  0.91471215022E+02 0.  0.
          5    1    1    2  502    0 -0.49619159450E+02  0.57701067469E+02 -0.18089073416E+03  0.19630339242E+03  0.47000000000E+01 0.  1.
         -5    1    1    2    0  502  0.45855770407E+02 -0.24439311314E+02 -0.93533495516E+02  0.10710105695E+03  0.47000000000E+01 0.  1.
        -11    1    3    3    0    0 -0.14197256316E+02 -0.53884798369E+02 -0.41242959081E+02  0.69326151313E+02  0.00000000000E+00 0.  1.
         11    1    3    3    0    0  0.17960645359E+02  0.20623042214E+02  0.15482945360E+02  0.31426362324E+02  0.00000000000E+00 0. -1.
<mgrwt>
<rscale>  0 0.12053321E+03</rscale>
<asrwt>0</asrwt>
<pdfrwt beam="1">  1        2 0.79979013E-02 0.12940480E+03</pdfrwt>
<pdfrwt beam="2">  1       -2 0.54180094E-01 0.12940480E+03</pdfrwt>
<totfact> 0.26587239E+03</totfact>
</mgrwt>
</event>
<event>
 7    1  0.1330601E-005  0.1393469E+03  0.7546771E-02  0.1225090E+00
          2   -1    0    0  501    0  0.00000000000E+00  0.00000000000E+00  0.28271560118E+03  0.28271560118E+03  0.00000000000E+00 0. -1.
         -2   -1    0    0    0  501 -0.00000000000E+00 -0.00000000000E+00 -0.55580542586E+02  0.55580542586E+02  0.00000000000E+00 0.  1.
         23    2    1    2    0    0 -0.59773096623E+02  0.14857623440E+02  0.11115608622E+03  0.15699893781E+03  0.92192293153E+02 0.  0.
          5    1    1    2  502    0  0.87081610140E+02  0.25074313196E+02  0.75227562425E+02  0.11786943690E+03  0.47000000000E+01 0. -1.
         -5    1    1    2    0  502 -0.27308513517E+02 -0.39931936636E+02  0.40751409949E+02  0.63427769052E+02  0.47000000000E+01 0. -1.
        -11    1    3    3    0    0 -0.20051596112E+01 -0.10571545706E+02 -0.13506576645E+02  0.17268637941E+02  0.00000000000E+00 0.  1.
         11    1    3    3    0    0 -0.57767937012E+02  0.25429169146E+02  0.12466266287E+03  0.13973029987E+03  0.00000000000E+00 0. -1.
<mgrwt>
<rscale>  0 0.13160735E+03</rscale>
<asrwt>0</asrwt>
<pdfrwt beam="1">  1        2 0.43494707E-01 0.13934689E+03</pdfrwt>
<pdfrwt beam="2">  1       -2 0.85508529E-02 0.13934689E+03</pdfrwt>
<totfact> 0.94181343E+03</totfact>
</mgrwt>
</event>
<event>
 7    1  0.1330601E-005  0.1334092E+03  0.7546771E-02  0.1236995E+00
          3   -1    0    0  501    0  0.00000000000E+00  0.00000000000E+00  0.33448038432E+02  0.33448038432E+02  0.00000000000E+00 0. -1.
         -3   -1    0    0    0  501 -0.00000000000E+00 -0.00000000000E+00 -0.40464810794E+03  0.40464810794E+03  0.00000000000E+00 0.  1.
         23    2    1    2    0    0 -0.26216988754E+02 -0.38470700746E+02 -0.14514571592E+03  0.17561074007E+03  0.87203944074E+02 0.  0.
          5    1    1    2  502    0  0.34064289428E+02 -0.23592196570E+02 -0.18434308273E+02  0.45594750518E+02  0.47000000000E+01 0. -1.
         -5    1    1    2    0  502 -0.78473006746E+01  0.62062897316E+02 -0.20762004531E+03  0.21689065578E+03  0.47000000000E+01 0. -1.
        -11    1    3    3    0    0 -0.70974643120E+01 -0.62386226248E+02 -0.12206501671E+03  0.13726719758E+03  0.00000000000E+00 0.  1.
         11    1    3    3    0    0 -0.19119524442E+02  0.23915525503E+02 -0.23080699208E+02  0.38343542493E+02  0.00000000000E+00 0. -1.
<mgrwt>
<rscale>  0 0.12377601E+03</rscale>
<asrwt>0</asrwt>
<pdfrwt beam="1">  1        3 0.51458520E-02 0.13340921E+03</pdfrwt>
<pdfrwt beam="2">  1       -3 0.62253556E-01 0.13340921E+03</pdfrwt>
<totfact> 0.12743659E+03</totfact>
</mgrwt>
</event>
<event>
 7    1  0.1330601E-005  0.1950304E+03  0.7546771E-02  0.1158281E+00
          2   -1    0    0  501    0  0.00000000000E+00  0.00000000000E+00  0.85859950460E+02  0.85859950460E+02  0.00000000000E+00 0. -1.
         -2   -1    0    0    0  501 -0.00000000000E+00 -0.00000000000E+00 -0.48890973462E+03  0.48890973462E+03  0.00000000000E+00 0.  1.
         23    2    1    2    0    0 -0.13931133841E+03  0.54810064946E+02 -0.71998246484E+02  0.19054064104E+03  0.93328431703E+02 0.  0.
          5    1    1    2  502    0 -0.18546678493E+02 -0.22058134645E+02 -0.25703573064E+02  0.38901211490E+02  0.47000000000E+01 0. -1.
         -5    1    1    2    0  502  0.15785801690E+03 -0.32751930301E+02 -0.30534796462E+03  0.34532783255E+03  0.47000000000E+01 0. -1.
        -11    1    3    3    0    0 -0.94612163263E+02  0.47868423027E+02 -0.92656052492E+02  0.14081190086E+03  0.00000000000E+00 0.  1.
         11    1    3    3    0    0 -0.44699175145E+02  0.69416419185E+01  0.20657806008E+02  0.49728740184E+02  0.00000000000E+00 0. -1.
<mgrwt>
<rscale>  0 0.19019981E+03</rscale>
<asrwt>0</asrwt>
<pdfrwt beam="1">  1        2 0.13209223E-01 0.19503035E+03</pdfrwt>
<pdfrwt beam="2">  1       -2 0.75216882E-01 0.19503035E+03</pdfrwt>
<totfact> 0.73626615E+02</totfact>
</mgrwt>
</event>
<event>
 7    1  0.1330601E-005  0.1418353E+03  0.7546771E-02  0.1217336E+00
          2   -1    0    0  501    0  0.00000000000E+00  0.00000000000E+00  0.21269952470E+03  0.21269952470E+03  0.00000000000E+00 0. -1.
         -2   -1    0    0    0  501 -0.00000000000E+00 -0.00000000000E+00 -0.11956310389E+03  0.11956310389E+03  0.00000000000E+00 0.  1.
         23    2    1    2    0    0 -0.31016636311E+02 -0.77748122666E+02  0.13624990928E+03  0.18401949633E+03  0.91062258611E+02 0.  0.
          5    1    1    2  502    0  0.57426158911E+01  0.33370206739E+02  0.38729592964E+02  0.51658684713E+02  0.47000000000E+01 0. -1.
         -5    1    1    2    0  502  0.25274020420E+02  0.44377915926E+02 -0.81843081430E+02  0.96584447548E+02  0.47000000000E+01 0.  1.
        -11    1    3    3    0    0 -0.70670140650E+01 -0.24799695590E+02  0.12130495618E+03  0.12401556347E+03  0.00000000000E+00 0. -1.
         11    1    3    3    0    0 -0.23949622246E+02 -0.52948427076E+02  0.14944953107E+02  0.60003932862E+02  0.00000000000E+00 0.  1.
<mgrwt>
<rscale>  0 0.13706344E+03</rscale>
<asrwt>0</asrwt>
<pdfrwt beam="1">  1        2 0.32723004E-01 0.14183530E+03</pdfrwt>
<pdfrwt beam="2">  1       -2 0.18394324E-01 0.14183530E+03</pdfrwt>
<totfact> 0.37280585E+03</totfact>
</mgrwt>
</event>
<event>
 7    1  0.1330601E-005  0.2254442E+03  0.7546771E-02  0.1129888E+00
          3   -1    0    0  501    0  0.00000000000E+00  0.00000000000E+00  0.39075582027E+03  0.39075582027E+03  0.00000000000E+00 0. -1.
         -3   -1    0    0    0  501 -0.00000000000E+00 -0.00000000000E+00 -0.32517178315E+02  0.32517178315E+02  0.00000000000E+00 0.  1.
         23    2    1    2    0    0  0.60599361752E+01 -0.24534717674E+02  0.19460812942E+03  0.21579919523E+03  0.89767997783E+02 0.  0.
          5    1    1    2  502    0 -0.43790155808E+01 -0.41700334315E+02  0.12198382649E+03  0.12907454274E+03  0.47000000000E+01 0. -1.
         -5    1    1    2    0  502 -0.16809205944E+01  0.66235051989E+02  0.41646686037E+02  0.78399260608E+02  0.47000000000E+01 0. -1.
        -11    1    3    3    0    0 -0.54398345331E+01 -0.40405801192E+02  0.19169723681E+03  0.19598482382E+03  0.00000000000E+00 0. -1.
         11    1    3    3    0    0  0.11499770708E+02  0.15871083518E+02  0.29108926164E+01  0.19814371405E+02  0.00000000000E+00 0.  1.
<mgrwt>
<rscale>  0 0.22544424E+03</rscale>
<asrwt>0</asrwt>
<pdfrwt beam="1">  1        3 0.60116277E-01 0.22544424E+03</pdfrwt>
<pdfrwt beam="2">  1       -3 0.50026431E-02 0.22544424E+03</pdfrwt>
<totfact> 0.15530421E+03</totfact>
</mgrwt>
</event>
<event>
 7    1  0.1330601E-005  0.1366355E+03  0.7546771E-02  0.1219480E+00
          1   -1    0    0  501    0  0.00000000000E+00  0.00000000000E+00  0.50226766620E+03  0.50226766620E+03  0.00000000000E+00 0. -1.
         -1   -1    0    0    0  501 -0.00000000000E+00 -0.00000000000E+00 -0.36005505763E+02  0.36005505763E+02  0.00000000000E+00 0.  1.
         23    2    1    2    0    0 -0.50970765522E+02 -0.21122927144E+02  0.22313570258E+03  0.25938299699E+03  0.12019068338E+03 0.  0.
          5    1    1    2  502    0  0.70022622628E+02  0.32339365888E+02  0.69906413490E+02  0.10420172222E+03  0.47000000000E+01 0.  1.
         -5    1    1    2    0  502 -0.19051857105E+02 -0.11216438745E+02  0.17322004437E+03  0.17468845276E+03  0.47000000000E+01 0.  1.
        -11    1    3    3    0    0 -0.96544473764E+01 -0.58981156681E+02  0.51712208606E+02  0.79032510504E+02  0.00000000000E+00 0.  1.
         11    1    3    3    0    0 -0.41316318146E+02  0.37858229538E+02  0.17142349397E+03  0.18035048648E+03  0.00000000000E+00 0. -1.
<mgrwt>
<rscale>  0 0.13552560E+03</rscale>
<asrwt>0</asrwt>
<pdfrwt beam="1">  1        1 0.77271943E-01 0.13663548E+03</pdfrwt>
<pdfrwt beam="2">  1       -1 0.55393090E-02 0.13663548E+03</pdfrwt>
<totfact> 0.64976722E+03</totfact>
</mgrwt>
</event>
<event>
 7    1  0.1330601E-005  0.1491241E+03  0.7546771E-02  0.1210158E+00
         -2   -1    0    0    0  501 -0.00000000000E+00  0.00000000000E+00  0.42923499766E+02  0.42923499766E+02  0.00000000000E+00 0.  1.
          2   -1    0    0  501    0  0.00000000000E+00 -0.00000000000E+00 -0.43639967653E+03  0.43639967653E+03  0.00000000000E+00 0. -1.
         23    2    1    2    0    0 -0.45775970317E+02  0.67235725771E+02 -0.16197808956E+03  0.20395184236E+03  0.93505990338E+02 0.  0.
          5    1    1    2  502    0 -0.14664571898E+02 -0.53644400091E+02 -0.27686644671E+02  0.62300976101E+02  0.47000000000E+01 0. -1.
         -5    1    1    2    0  502  0.60440542215E+02 -0.13591325680E+02 -0.20381144254E+03  0.21307035783E+03  0.47000000000E+01 0. -1.
        -11    1    3    3    0    0 -0.85184958954E+01  0.64174579504E+02 -0.15207280618E+03  0.16527879419E+03  0.00000000000E+00 0. -1.
         11    1    3    3    0    0 -0.37257474421E+02  0.30611462665E+01 -0.99052833720E+01  0.38673048178E+02  0.00000000000E+00 0.  1.
<mgrwt>
<rscale>  0 0.14238293E+03</rscale>
<asrwt>0</asrwt>
<pdfrwt beam="2">  1        2 0.67138414E-01 0.14912413E+03</pdfrwt>
<pdfrwt beam="1">  1       -2 0.66036151E-02 0.14912413E+03</pdfrwt>
<totfact> 0.88671944E+03</totfact>
</mgrwt>
</event>
<event>
 7    1  0.1330601E-005  0.1420946E+03  0.7546771E-02  0.1218939E+00
         -2   -1    0    0    0  501 -0.00000000000E+00  0.00000000000E+00  0.42245434175E+02  0.42245434175E+02  0.00000000000E+00 0.  1.
          2   -1    0    0  501    0  0.00000000000E+00 -0.00000000000E+00 -0.40620230884E+03  0.40620230884E+03  0.00000000000E+00 0. -1.
         23    2    1    2    0    0 -0.30139643354E+02  0.71875625711E+02 -0.18513790906E+03  0.22004658725E+03  0.89832908883E+02 0.  0.
          5    1    1    2  502    0  0.62604069319E+02 -0.24783859168E+02 -0.40659248179E+02  0.78795771670E+02  0.47000000000E+01 0. -1.
         -5    1    1    2    0  502 -0.32464425965E+02 -0.47091766543E+02 -0.13815971743E+03  0.14960538409E+03  0.47000000000E+01 0.  1.
        -11    1    3    3    0    0 -0.72006641685E+01  0.84580090315E+02 -0.16936298582E+03  0.18944514300E+03  0.00000000000E+00 0. -1.
         11    1    3    3    0    0 -0.22938979186E+02 -0.12704464604E+02 -0.15774923240E+02  0.30601444250E+02  0.00000000000E+00 0.  1.
<mgrwt>
<rscale>  0 0.13591155E+03</rscale>
<asrwt>0</asrwt>
<pdfrwt beam="2">  1        2 0.62492662E-01 0.14209457E+03</pdfrwt>
<pdfrwt beam="1">  1       -2 0.64992976E-02 0.14209457E+03</pdfrwt>
<totfact> 0.97826170E+03</totfact>
</mgrwt>
</event>
<event>
 7    1  0.1330601E-005  0.1287808E+03  0.7546771E-02  0.1262883E+00
         -3   -1    0    0    0  501 -0.00000000000E+00  0.00000000000E+00  0.11140446814E+03  0.11140446814E+03  0.00000000000E+00 0.  1.
          3   -1    0    0  501    0  0.00000000000E+00 -0.00000000000E+00 -0.12123040824E+03  0.12123040824E+03  0.00000000000E+00 0. -1.
         23    2    1    2    0    0 -0.30967289692E+02 -0.14641939340E+01 -0.65223255984E+02  0.92444415636E+02  0.57712909876E+02 0.  0.
          5    1    1    2  502    0 -0.45043161849E+02 -0.16516933891E+02  0.34248379312E+02  0.59133214186E+02  0.47000000000E+01 0. -1.
         -5    1    1    2    0  502  0.76010451541E+02  0.17981127825E+02  0.21148936572E+02  0.81057246558E+02  0.47000000000E+01 0. -1.
        -11    1    3    3    0    0  0.30942223903E+01 -0.23409010957E+02 -0.33495160555E+02  0.40981481022E+02  0.00000000000E+00 0.  1.
         11    1    3    3    0    0 -0.34061512083E+02  0.21944817023E+02 -0.31728095429E+02  0.51462934614E+02  0.00000000000E+00 0. -1.
<mgrwt>
<rscale>  0 0.10876010E+03</rscale>
<asrwt>0</asrwt>
<pdfrwt beam="2">  1        3 0.18650832E-01 0.12878083E+03</pdfrwt>
<pdfrwt beam="1">  1       -3 0.17139149E-01 0.12878083E+03</pdfrwt>
<totfact> 0.17012317E+03</totfact>
</mgrwt>
</event>
<event>
 7    1  0.1330601E-005  0.1307537E+03  0.7546771E-02  0.1239720E+00
         -1   -1    0    0    0  501 -0.00000000000E+00  0.00000000000E+00  0.86786330001E+03  0.86786330001E+03  0.00000000000E+00 0.  1.
          1   -1    0    0  501    0  0.00000000000E+00 -0.00000000000E+00 -0.15634409241E+02  0.15634409241E+02  0.00000000000E+00 0. -1.
         23    2    1    2    0    0 -0.25418253052E+02 -0.28610446444E+02  0.30069614505E+03  0.31667772954E+03  0.91662246874E+02 0.  0.
          5    1    1    2  502    0  0.57029216582E+02 -0.25159169878E+02  0.35841025383E+03  0.36382044393E+03  0.47000000000E+01 0. -1.
         -5    1    1    2    0  502 -0.31610963529E+02  0.53769616322E+02  0.19312249189E+03  0.20299953578E+03  0.47000000000E+01 0. -1.
        -11    1    3    3    0    0 -0.29703407078E+02  0.16330432431E+02  0.41520572457E+02  0.53599751423E+02  0.00000000000E+00 0. -1.
         11    1    3    3    0    0  0.42851540258E+01 -0.44940878875E+02  0.25917557259E+03  0.26307797811E+03  0.00000000000E+00 0.  1.
<mgrwt>
<rscale>  0 0.12207069E+03</rscale>
<asrwt>0</asrwt>
<pdfrwt beam="2">  1        1 0.24052944E-02 0.13075366E+03</pdfrwt>
<pdfrwt beam="1">  1       -1 0.13351739E+00 0.13075366E+03</pdfrwt>
<totfact> 0.22913082E+03</totfact>
</mgrwt>
</event>
<event>
 7    1  0.1330601E-005  0.1574771E+03  0.7546771E-02  0.1199460E+00
          2   -1    0    0  501    0  0.00000000000E+00  0.00000000000E+00  0.76710007222E+03  0.76710007222E+03  0.00000000000E+00 0. -1.
         -2   -1    0    0    0  501 -0.00000000000E+00 -0.00000000000E+00 -0.27438407536E+02  0.27438407536E+02  0.00000000000E+00 0.  1.
         23    2    1    2    0    0 -0.77221400783E+02 -0.56678685857E+02  0.32464291525E+03  0.35064704350E+03  0.91568054029E+02 0.  0.
          5    1    1    2  502    0  0.45085716217E+02 -0.36209211308E+02  0.12981869513E+03  0.14219287041E+03  0.47000000000E+01 0.  1.
         -5    1    1    2    0  502  0.32135684566E+02  0.92887897165E+02  0.28520005429E+03  0.30169856584E+03  0.47000000000E+01 0.  1.
        -11    1    3    3    0    0 -0.96518228254E+02 -0.55488897455E+02  0.29445124137E+03  0.31479567924E+03  0.00000000000E+00 0.  1.
         11    1    3    3    0    0  0.19296827471E+02 -0.11897884024E+01  0.30191673888E+02  0.35851364257E+02  0.00000000000E+00 0. -1.
<mgrwt>
<rscale>  0 0.15082720E+03</rscale>
<asrwt>0</asrwt>
<pdfrwt beam="1">  1        2 0.11801538E+00 0.15747712E+03</pdfrwt>
<pdfrwt beam="2">  1       -2 0.42212940E-02 0.15747712E+03</pdfrwt>
<totfact> 0.91876061E+03</totfact>
</mgrwt>
</event>
<event>
 7    1  0.1330601E-005  0.1607257E+03  0.7546771E-02  0.1195305E+00
         -2   -1    0    0    0  501 -0.00000000000E+00  0.00000000000E+00  0.30022377134E+03  0.30022377134E+03  0.00000000000E+00 0.  1.
          2   -1    0    0  501    0  0.00000000000E+00 -0.00000000000E+00 -0.11429705223E+03  0.11429705223E+03  0.00000000000E+00 0. -1.
         23    2    1    2    0    0 -0.65217573360E+02 -0.77166982309E+02 -0.35406177134E+02  0.14098651999E+03  0.91736178289E+02 0.  0.
          5    1    1    2  502    0  0.60088163682E+02 -0.13043893807E+02  0.13526144260E+03  0.14865556981E+03  0.47000000000E+01 0.  1.
         -5    1    1    2    0  502  0.51294096778E+01  0.90210876116E+02  0.86071453647E+02  0.12487873376E+03  0.47000000000E+01 0.  1.
        -11    1    3    3    0    0 -0.66078205378E+02 -0.24195916288E+02 -0.49656771243E+02  0.86125295478E+02  0.00000000000E+00 0. -1.
         11    1    3    3    0    0  0.86063201765E+00 -0.52971066021E+02  0.14250594109E+02  0.54861224515E+02  0.00000000000E+00 0.  1.
<mgrwt>
<rscale>  0 0.15428441E+03</rscale>
<asrwt>0</asrwt>
<pdfrwt beam="2">  1        2 0.17584162E-01 0.16072574E+03</pdfrwt>
<pdfrwt beam="1">  1       -2 0.46188272E-01 0.16072574E+03</pdfrwt>
<totfact> 0.14261149E+03</totfact>
</mgrwt>
</event>
<event>
 7    1  0.1330601E-005  0.1370758E+03  0.7546771E-02  0.1228398E+00
          1   -1    0    0  501    0  0.00000000000E+00  0.00000000000E+00  0.16480787142E+03  0.16480787142E+03  0.00000000000E+00 0. -1.
         -1   -1    0    0    0  501 -0.00000000000E+00 -0.00000000000E+00 -0.11210275737E+03  0.11210275737E+03  0.00000000000E+00 0.  1.
         23    2    1    2    0    0  0.43040140457E+02  0.36262991185E+02  0.82666517622E+02  0.13659865595E+03  0.93048274848E+02 0.  0.
          5    1    1    2  502    0 -0.66261219801E+02 -0.67501879950E+02 -0.72043135126E+01  0.94979182874E+02  0.47000000000E+01 0.  1.
         -5    1    1    2    0  502  0.23221079344E+02  0.31238888765E+02 -0.22757090058E+02  0.45332789954E+02  0.47000000000E+01 0.  1.
        -11    1    3    3    0    0 -0.66415545313E+01  0.54428215260E+02  0.32755390562E+02  0.63870622933E+02  0.00000000000E+00 0.  1.
         11    1    3    3    0    0  0.49681694988E+02 -0.18165224075E+02  0.49911127060E+02  0.72728033020E+02  0.00000000000E+00 0. -1.
<mgrwt>
<rscale>  0 0.12936675E+03</rscale>
<asrwt>0</asrwt>
<pdfrwt beam="1">  1        1 0.25355057E-01 0.13707576E+03</pdfrwt>
<pdfrwt beam="2">  1       -1 0.17246578E-01 0.13707576E+03</pdfrwt>
<totfact> 0.46199429E+03</totfact>
</mgrwt>
</event>
<event>
 7    1  0.1330601E-005  0.1513367E+03  0.7546771E-02  0.1207635E+00
          1   -1    0    0  501    0  0.00000000000E+00  0.00000000000E+00  0.13087799156E+03  0.13087799156E+03  0.00000000000E+00 0. -1.
         -1   -1    0    0    0  501 -0.00000000000E+00 -0.00000000000E+00 -0.14691706951E+03  0.14691706951E+03  0.00000000000E+00 0.  1.
         23    2    1    2    0    0  0.70101365142E+02  0.48634396148E+02 -0.18029171526E+02  0.12644527769E+03  0.91563373352E+02 0.  0.
          5    1    1    2  502    0  0.70822320372E+01 -0.26124513127E+02 -0.48895407677E+02  0.56084749163E+02  0.47000000000E+01 0.  1.
         -5    1    1    2    0  502 -0.77183597179E+02 -0.22509883021E+02  0.50885501251E+02  0.95265034219E+02  0.47000000000E+01 0.  1.
        -11    1    3    3    0    0  0.80637748723E+01  0.46970293909E+02  0.22109443715E+02  0.52536277718E+02  0.00000000000E+00 0. -1.
         11    1    3    3    0    0  0.62037590270E+02  0.16641022392E+01 -0.40138615241E+02  0.73908999967E+02  0.00000000000E+00 0.  1.
<mgrwt>
<rscale>  0 0.14431743E+03</rscale>
<asrwt>0</asrwt>
<pdfrwt beam="1">  1        1 0.20135076E-01 0.15133670E+03</pdfrwt>
<pdfrwt beam="2">  1       -1 0.22602626E-01 0.15133670E+03</pdfrwt>
<totfact> 0.40267919E+03</totfact>
</mgrwt>
</event>
<event>
 7    1  0.1330601E-005  0.1601829E+03  0.7546771E-02  0.1196066E+00
          1   -1    0    0  501    0  0.00000000000E+00  0.00000000000E+00  0.13681466792E+03  0.13681466792E+03  0.00000000000E+00 0. -1.
         -1   -1    0    0    0  501 -0.00000000000E+00 -0.00000000000E+00 -0.16041293879E+03  0.16041293879E+03  0.00000000000E+00 0.  1.
         23    2    1    2    0    0 -0.88536348848E+02 -0.46836195771E+02 -0.20276551733E+01  0.13559884298E+03  0.91381729744E+02 0.  0.
          5    1    1    2  502    0 -0.25371227463E+02  0.76094907249E+01 -0.30579435691E+02  0.40728312256E+02  0.47000000000E+01 0.  1.
         -5    1    1    2    0  502  0.11390757631E+03  0.39226705046E+02  0.90088199973E+01  0.12090045148E+03  0.47000000000E+01 0.  1.
        -11    1    3    3    0    0 -0.38588191840E+02  0.23521145015E+02  0.15067460212E+02  0.47637392556E+02  0.00000000000E+00 0.  1.
         11    1    3    3    0    0 -0.49948157008E+02 -0.70357340786E+02 -0.17095115385E+02  0.87961450426E+02  0.00000000000E+00 0. -1.
<mgrwt>
<rscale>  0 0.15364343E+03</rscale>
<asrwt>0</asrwt>
<pdfrwt beam="1">  1        1 0.21048411E-01 0.16018291E+03</pdfrwt>
<pdfrwt beam="2">  1       -1 0.24678914E-01 0.16018291E+03</pdfrwt>
<totfact> 0.33051114E+03</totfact>
</mgrwt>
</event>
<event>
 7    1  0.1330601E-005  0.1567006E+03  0.7546771E-02  0.1197639E+00
         -1   -1    0    0    0  501 -0.00000000000E+00  0.00000000000E+00  0.89786129979E+02  0.89786129979E+02  0.00000000000E+00 0.  1.
          1   -1    0    0  501    0  0.00000000000E+00 -0.00000000000E+00 -0.24825011288E+03  0.24825011288E+03  0.00000000000E+00 0. -1.
         23    2    1    2    0    0  0.80038767541E+02 -0.50404862278E+02 -0.94096405044E+02  0.16863063120E+03  0.10312760001E+03 0.  0.
          5    1    1    2  502    0 -0.32119209548E+02 -0.16159248087E+02  0.27982561711E+02  0.45802605610E+02  0.47000000000E+01 0.  1.
         -5    1    1    2    0  502 -0.47919557993E+02  0.66564110365E+02 -0.92350139569E+02  0.12360300605E+03  0.47000000000E+01 0.  1.
        -11    1    3    3    0    0  0.31474001441E+02 -0.75689160845E+02 -0.73606596410E+02  0.11016983649E+03  0.00000000000E+00 0. -1.
         11    1    3    3    0    0  0.48564766100E+02  0.25284298567E+02 -0.20489808634E+02  0.58460794711E+02  0.00000000000E+00 0.  1.
<mgrwt>
<rscale>  0 0.15233004E+03</rscale>
<asrwt>0</asrwt>
<pdfrwt beam="2">  1        1 0.38192325E-01 0.15670059E+03</pdfrwt>
<pdfrwt beam="1">  1       -1 0.13813251E-01 0.15670059E+03</pdfrwt>
<totfact> 0.39609697E+03</totfact>
</mgrwt>
</event>
<event>
 7    1  0.1330601E-005  0.1384633E+03  0.7546771E-02  0.1226694E+00
         -2   -1    0    0    0  501 -0.00000000000E+00  0.00000000000E+00  0.23347564378E+03  0.23347564378E+03  0.00000000000E+00 0.  1.
          2   -1    0    0  501    0  0.00000000000E+00 -0.00000000000E+00 -0.72349209294E+02  0.72349209294E+02  0.00000000000E+00 0. -1.
         23    2    1    2    0    0 -0.52224555509E+02 -0.28578718415E+02  0.26001888496E+02  0.11235464479E+03  0.91669627775E+02 0.  0.
          5    1    1    2  502    0  0.35085571797E+02  0.15584639438E+02 -0.15188790812E+02  0.41553191226E+02  0.47000000000E+01 0.  1.
         -5    1    1    2    0  502  0.17138983712E+02  0.12994078977E+02  0.15031333680E+03  0.15191701706E+03  0.47000000000E+01 0.  1.
        -11    1    3    3    0    0  0.13627532222E+02  0.18215268061E+02 -0.88012586253E+01  0.24391961348E+02  0.00000000000E+00 0. -1.
         11    1    3    3    0    0 -0.65852087732E+02 -0.46793986476E+02  0.34803147122E+02  0.87962683443E+02  0.00000000000E+00 0.  1.
<mgrwt>
<rscale>  0 0.13051500E+03</rscale>
<asrwt>0</asrwt>
<pdfrwt beam="2">  1        2 0.11130648E-01 0.13846328E+03</pdfrwt>
<pdfrwt beam="1">  1       -2 0.35919329E-01 0.13846328E+03</pdfrwt>
<totfact> 0.39248664E+03</totfact>
</mgrwt>
</event>
<event>
 7    1  0.1330601E-005  0.1713741E+03  0.7546771E-02  0.1183487E+00
         -2   -1    0    0    0  501 -0.00000000000E+00  0.00000000000E+00  0.54533482671E+02  0.54533482671E+02  0.00000000000E+00 0.  1.
          2   -1    0    0  501    0  0.00000000000E+00 -0.00000000000E+00 -0.62294199571E+03  0.62294199571E+03  0.00000000000E+00 0. -1.
         23    2    1    2    0    0 -0.42522206022E+02 -0.10781558593E+03 -0.43906551557E+03  0.46276937655E+03  0.89132655855E+02 0.  0.
          5    1    1    2  502    0  0.19275226637E+02  0.19851889956E+02  0.23609724185E+02  0.36676163551E+02  0.47000000000E+01 0. -1.
         -5    1    1    2    0  502  0.23246979384E+02  0.87963695978E+02 -0.15295272165E+03  0.17802993827E+03  0.47000000000E+01 0. -1.
        -11    1    3    3    0    0 -0.41622852112E+02 -0.12873043134E+02 -0.21579307564E+03  0.22014728831E+03  0.00000000000E+00 0. -1.
         11    1    3    3    0    0 -0.89935390945E+00 -0.94942542800E+02 -0.22327243993E+03  0.24262208824E+03  0.00000000000E+00 0.  1.
<mgrwt>
<rscale>  0 0.16470328E+03</rscale>
<asrwt>0</asrwt>
<pdfrwt beam="2">  1        2 0.95837234E-01 0.17137415E+03</pdfrwt>
<pdfrwt beam="1">  1       -2 0.83897662E-02 0.17137415E+03</pdfrwt>
<totfact> 0.41510353E+03</totfact>
</mgrwt>
</event>
<event>
 7    1  0.1330601E-005  0.1370805E+03  0.7546771E-02  0.1228978E+00
          1   -1    0    0  501    0  0.00000000000E+00  0.00000000000E+00  0.10157782504E+04  0.10157782504E+04  0.00000000000E+00 0. -1.
         -1   -1    0    0    0  501 -0.00000000000E+00 -0.00000000000E+00 -0.15850891713E+02  0.15850891713E+02  0.00000000000E+00 0.  1.
         23    2    1    2    0    0  0.14986001802E+02  0.54243749625E+02  0.58082551243E+03  0.59067854722E+03  0.91519973994E+02 0.  0.
          5    1    1    2  502    0 -0.22776660343E+01  0.27419431486E+02  0.26100344005E+03  0.26249171169E+03  0.47000000000E+01 0. -1.
         -5    1    1    2    0  502 -0.12708335767E+02 -0.81663181111E+02  0.15809840618E+03  0.17845888317E+03  0.47000000000E+01 0. -1.
        -11    1    3    3    0    0  0.46253282710E+02  0.58988323095E+02  0.44059987349E+03  0.44693090847E+03  0.00000000000E+00 0.  1.
         11    1    3    3    0    0 -0.31267280908E+02 -0.47445734706E+01  0.14022563893E+03  0.14374763875E+03  0.00000000000E+00 0. -1.
<mgrwt>
<rscale>  0 0.12897960E+03</rscale>
<asrwt>0</asrwt>
<pdfrwt beam="1">  1        1 0.15627353E+00 0.13708052E+03</pdfrwt>
<pdfrwt beam="2">  1       -1 0.24385995E-02 0.13708052E+03</pdfrwt>
<totfact> 0.77293152E+03</totfact>
</mgrwt>
</event>
<event>
 7    1  0.1330601E-005  0.1370683E+03  0.7546771E-02  0.1227549E+00
          1   -1    0    0  501    0  0.00000000000E+00  0.00000000000E+00  0.17625653491E+03  0.17625653491E+03  0.00000000000E+00 0. -1.
         -1   -1    0    0    0  501 -0.00000000000E+00 -0.00000000000E+00 -0.10139783814E+03  0.10139783814E+03  0.00000000000E+00 0.  1.
         23    2    1    2    0    0 -0.54627013406E+02 -0.13339338166E+02  0.85940495279E+02  0.14013883324E+03  0.95347130623E+02 0.  0.
          5    1    1    2  502    0  0.75709612959E+02  0.51282755842E+02 -0.17981551197E+02  0.93312875450E+02  0.47000000000E+01 0.  1.
         -5    1    1    2    0  502 -0.21082599553E+02 -0.37943417676E+02  0.68997526877E+01  0.44202664354E+02  0.47000000000E+01 0.  1.
        -11    1    3    3    0    0 -0.22323445863E+02 -0.50919827782E+02  0.67053981969E+02  0.87105692090E+02  0.00000000000E+00 0.  1.
         11    1    3    3    0    0 -0.32303567543E+02  0.37580489616E+02  0.18886513310E+02  0.53033141155E+02  0.00000000000E+00 0. -1.
<mgrwt>
<rscale>  0 0.12993723E+03</rscale>
<asrwt>0</asrwt>
<pdfrwt beam="1">  1        1 0.27116390E-01 0.13706829E+03</pdfrwt>
<pdfrwt beam="2">  1       -1 0.15599668E-01 0.13706829E+03</pdfrwt>
<totfact> 0.49761980E+03</totfact>
</mgrwt>
</event>
<event>
 7    1  0.1330601E-005  0.1386025E+03  0.7546771E-02  0.1227084E+00
         -2   -1    0    0    0  501 -0.00000000000E+00  0.00000000000E+00  0.72854763487E+03  0.72854763487E+03  0.00000000000E+00 0.  1.
          2   -1    0    0  501    0  0.00000000000E+00 -0.00000000000E+00 -0.21120017589E+02  0.21120017589E+02  0.00000000000E+00 0. -1.
         23    2    1    2    0    0 -0.57574497330E+02  0.16464175714E+02  0.27113271257E+03  0.29188616641E+03  0.89992746864E+02 0.  0.
          5    1    1    2  502    0 -0.26384784824E+02  0.25519556178E+02  0.65211154789E+02  0.74979926158E+02  0.47000000000E+01 0. -1.
         -5    1    1    2    0  502  0.83959282154E+02 -0.41983731892E+02  0.37108374992E+03  0.38280155990E+03  0.47000000000E+01 0. -1.
        -11    1    3    3    0    0 -0.79002624531E+02  0.16915930248E+02  0.24561335342E+03  0.25856040447E+03  0.00000000000E+00 0.  1.
         11    1    3    3    0    0  0.21428127200E+02 -0.45175453399E+00  0.25519359151E+02  0.33325761941E+02  0.00000000000E+00 0. -1.
<mgrwt>
<rscale>  0 0.13025065E+03</rscale>
<asrwt>0</asrwt>
<pdfrwt beam="2">  1        2 0.32492340E-02 0.13860247E+03</pdfrwt>
<pdfrwt beam="1">  1       -2 0.11208423E+00 0.13860247E+03</pdfrwt>
<totfact> 0.17692066E+03</totfact>
</mgrwt>
</event>
<event>
 7    1  0.1330601E-005  0.1265716E+03  0.7546771E-02  0.1250503E+00
          1   -1    0    0  501    0  0.00000000000E+00  0.00000000000E+00  0.19584307728E+03  0.19584307728E+03  0.00000000000E+00 0. -1.
         -1   -1    0    0    0  501 -0.00000000000E+00 -0.00000000000E+00 -0.59417081386E+02  0.59417081386E+02  0.00000000000E+00 0.  1.
         23    2    1    2    0    0 -0.19888970224E+02  0.89713143847E+00  0.68453411897E+02  0.11159165265E+03  0.85851332890E+02 0.  0.
          5    1    1    2  502    0 -0.44287919844E+02 -0.17557561318E+02 -0.99521213186E+00  0.47882859676E+02  0.47000000000E+01 0. -1.
         -5    1    1    2    0  502  0.64176890068E+02  0.16660429880E+02  0.68967796134E+02  0.95785646347E+02  0.47000000000E+01 0. -1.
        -11    1    3    3    0    0  0.32914739511E+02  0.49228665809E+01  0.15540652606E+02  0.36730458422E+02  0.00000000000E+00 0.  1.
         11    1    3    3    0    0 -0.52803709735E+02 -0.40257351424E+01  0.52912759291E+02  0.74861194227E+02  0.00000000000E+00 0. -1.
<mgrwt>
<rscale>  0 0.11561991E+03</rscale>
<asrwt>0</asrwt>
<pdfrwt beam="1">  1        1 0.30129704E-01 0.12657159E+03</pdfrwt>
<pdfrwt beam="2">  1       -1 0.91410895E-02 0.12657159E+03</pdfrwt>
<totfact> 0.98957221E+03</totfact>
</mgrwt>
</event>
<event>
 7    1  0.1330601E-005  0.1356011E+03  0.7546771E-02  0.1220277E+00
          2   -1    0    0  501    0  0.00000000000E+00  0.00000000000E+00  0.65569177724E+02  0.65569177724E+02  0.00000000000E+00 0. -1.
         -2   -1    0    0    0  501 -0.00000000000E+00 -0.00000000000E+00 -0.28341434932E+03  0.28341434932E+03  0.00000000000E+00 0.  1.
         23    2    1    2    0    0  0.26851783393E+02  0.45210433370E+02 -0.78185033610E+02  0.15432328809E+03  0.12222019559E+03 0.  0.
          5    1    1    2  502    0 -0.64077491417E+02 -0.66484550585E+02 -0.94030169344E+02  0.13187070607E+03  0.47000000000E+01 0. -1.
         -5    1    1    2    0  502  0.37225708024E+02  0.21274117216E+02 -0.45629968640E+02  0.62789532880E+02  0.47000000000E+01 0. -1.
        -11    1    3    3    0    0 -0.43178670939E+02 -0.68451837157E+01 -0.39327123675E+02  0.58803714345E+02  0.00000000000E+00 0.  1.
         11    1    3    3    0    0  0.70030454332E+02  0.52055617085E+02 -0.38857909935E+02  0.95519573746E+02  0.00000000000E+00 0. -1.
<mgrwt>
<rscale>  0 0.13495922E+03</rscale>
<asrwt>0</asrwt>
<pdfrwt beam="1">  1        2 0.10087566E-01 0.13560109E+03</pdfrwt>
<pdfrwt beam="2">  1       -2 0.43602209E-01 0.13560109E+03</pdfrwt>
<totfact> 0.30644367E+03</totfact>
</mgrwt>
</event>
<event>
 7    1  0.1330601E-005  0.1607057E+03  0.7546771E-02  0.1195248E+00
          1   -1    0    0  501    0  0.00000000000E+00  0.00000000000E+00  0.12117996938E+03  0.12117996938E+03  0.00000000000E+00 0. -1.
         -1   -1    0    0    0  501 -0.00000000000E+00 -0.00000000000E+00 -0.23210223750E+03  0.23210223750E+03  0.00000000000E+00 0.  1.
         23    2    1    2    0    0 -0.10087842080E+03 -0.52418449862E+01  0.29539565493E+02  0.13984406092E+03  0.92086061504E+02 0.  0.
          5    1    1    2  502    0 -0.36292664748E+01 -0.42827630686E+02 -0.55497724094E+02  0.70352433540E+02  0.47000000000E+01 0. -1.
         -5    1    1    2    0  502  0.10450768728E+03  0.48069475672E+02 -0.84964109524E+02  0.14308571242E+03  0.47000000000E+01 0. -1.
        -11    1    3    3    0    0 -0.77208635683E+01  0.25201924076E+02 -0.16984199989E+02  0.31356207689E+02  0.00000000000E+00 0.  1.
         11    1    3    3    0    0 -0.93157557234E+02 -0.30443769062E+02  0.46523765482E+02  0.10848785323E+03  0.00000000000E+00 0. -1.
<mgrwt>
<rscale>  0 0.15433218E+03</rscale>
<asrwt>0</asrwt>
<pdfrwt beam="1">  1        1 0.18643072E-01 0.16070568E+03</pdfrwt>
<pdfrwt beam="2">  1       -1 0.35708036E-01 0.16070568E+03</pdfrwt>
<totfact> 0.20709182E+03</totfact>
</mgrwt>
</event>
<event>
 7    1  0.1330601E-005  0.1574383E+03  0.7546771E-02  0.1199282E+00
          4   -1    0    0  501    0  0.00000000000E+00  0.00000000000E+00  0.35182483908E+02  0.35182483908E+02  0.00000000000E+00 0.  1.
         -4   -1    0    0    0  501 -0.00000000000E+00 -0.00000000000E+00 -0.74003178193E+03  0.74003178193E+03  0.00000000000E+00 0. -1.
         23    2    1    2    0    0  0.87661123051E+02  0.38443727299E+02 -0.16034881049E+03  0.20840954999E+03  0.92522466655E+02 0.  0.
          5    1    1    2  502    0 -0.11673830027E+03 -0.31998873331E+02 -0.35941940815E+03  0.37928374550E+03  0.47000000000E+01 0.  1.
         -5    1    1    2    0  502  0.29077177221E+02 -0.64448539685E+01 -0.18508107938E+03  0.18752097035E+03  0.47000000000E+01 0.  1.
        -11    1    3    3    0    0  0.10638482633E+02  0.75191718489E+01  0.11621451043E+02  0.17457759947E+02  0.00000000000E+00 0.  1.
         11    1    3    3    0    0  0.77022640418E+02  0.30924555450E+02 -0.17197026153E+03  0.19095179004E+03  0.00000000000E+00 0. -1.
<mgrwt>
<rscale>  0 0.15097299E+03</rscale>
<asrwt>0</asrwt>
<pdfrwt beam="1">  1        4 0.54126899E-02 0.15743826E+03</pdfrwt>
<pdfrwt beam="2">  1       -4 0.11385104E+00 0.15743826E+03</pdfrwt>
<totfact> 0.22663007E+02</totfact>
</mgrwt>
</event>
<event>
 7    1  0.1330601E-005  0.1278175E+03  0.7546771E-02  0.1244702E+00
         -3   -1    0    0    0  501 -0.00000000000E+00  0.00000000000E+00  0.13181221418E+04  0.13181221418E+04  0.00000000000E+00 0.  1.
          3   -1    0    0  501    0  0.00000000000E+00 -0.00000000000E+00 -0.11134529254E+02  0.11134529254E+02  0.00000000000E+00 0. -1.
         23    2    1    2    0    0 -0.26669946153E+02  0.22355834952E+00  0.32302626140E+03  0.33702824172E+03  0.92361973542E+02 0.  0.
          5    1    1    2  502    0  0.52029303500E+02  0.30493581848E+02  0.85585488947E+03  0.85798985355E+03  0.47000000000E+01 0.  1.
         -5    1    1    2    0  502 -0.25359357347E+02 -0.30717140197E+02  0.12810646170E+03  0.13423857581E+03  0.47000000000E+01 0.  1.
        -11    1    3    3    0    0 -0.51336866585E+02 -0.27546088134E+02  0.21697368333E+03  0.22465938685E+03  0.00000000000E+00 0.  1.
         11    1    3    3    0    0  0.24666920432E+02  0.27769646484E+02  0.10605257808E+03  0.11236885488E+03  0.00000000000E+00 0. -1.
<mgrwt>
<rscale>  0 0.11903205E+03</rscale>
<asrwt>0</asrwt>
<pdfrwt beam="2">  1        3 0.17130055E-02 0.12781751E+03</pdfrwt>
<pdfrwt beam="1">  1       -3 0.20278790E+00 0.12781751E+03</pdfrwt>
<totfact> 0.43139881E+02</totfact>
</mgrwt>
</event>
<event>
 7    1  0.1330601E-005  0.1366345E+03  0.7546771E-02  0.1229490E+00
         -1   -1    0    0    0  501 -0.00000000000E+00  0.00000000000E+00  0.92289732219E+02  0.92289732219E+02  0.00000000000E+00 0.  1.
          1   -1    0    0  501    0  0.00000000000E+00 -0.00000000000E+00 -0.16159091118E+03  0.16159091118E+03  0.00000000000E+00 0. -1.
         23    2    1    2    0    0 -0.18921647516E+02  0.51819364321E+02 -0.24745082166E+02  0.11016487315E+03  0.92090742863E+02 0.  0.
          5    1    1    2  502    0  0.30164624772E+02  0.12486996972E+01 -0.75246229465E+02  0.81212984721E+02  0.47000000000E+01 0. -1.
         -5    1    1    2    0  502 -0.11242977256E+02 -0.53068064018E+02  0.30690132667E+02  0.62502785533E+02  0.47000000000E+01 0. -1.
        -11    1    3    3    0    0  0.22954934877E+02  0.33231295949E+02  0.20913426888E+02  0.45482078777E+02  0.00000000000E+00 0.  1.
         11    1    3    3    0    0 -0.41876582393E+02  0.18588068372E+02 -0.45658509054E+02  0.64682794372E+02  0.00000000000E+00 0. -1.
<mgrwt>
<rscale>  0 0.12863836E+03</rscale>
<asrwt>0</asrwt>
<pdfrwt beam="2">  1        1 0.24860140E-01 0.13663446E+03</pdfrwt>
<pdfrwt beam="1">  1       -1 0.14198420E-01 0.13663446E+03</pdfrwt>
<totfact> 0.64286346E+03</totfact>
</mgrwt>
</event>
<event>
 7    1  0.1330601E-005  0.2157491E+03  0.7546771E-02  0.1161395E+00
         -2   -1    0    0    0  501 -0.00000000000E+00  0.00000000000E+00  0.98807485377E+02  0.98807485377E+02  0.00000000000E+00 0.  1.
          2   -1    0    0  501    0  0.00000000000E+00 -0.00000000000E+00 -0.37013295550E+03  0.37013295550E+03  0.00000000000E+00 0. -1.
         23    2    1    2    0    0 -0.66143994995E+00 -0.83112160690E+02 -0.21361898150E+03  0.24560726705E+03  0.88214463722E+02 0.  0.
          5    1    1    2  502    0 -0.51296931217E+02  0.45957814178E+02 -0.11713287139E+03  0.13596211015E+03  0.47000000000E+01 0. -1.
         -5    1    1    2    0  502  0.51958371167E+02  0.37154346512E+02  0.59426382772E+02  0.87371063679E+02  0.47000000000E+01 0.  1.
        -11    1    3    3    0    0  0.29712075340E+02 -0.81140459327E+02 -0.18329864748E+03  0.20264494992E+03  0.00000000000E+00 0.  1.
         11    1    3    3    0    0 -0.30373515290E+02 -0.19717013629E+01 -0.30320334022E+02  0.42962317123E+02  0.00000000000E+00 0. -1.
<mgrwt>
<rscale>  0 0.18678368E+03</rscale>
<asrwt>0</asrwt>
<pdfrwt beam="2">  1        2 0.56943531E-01 0.21574909E+03</pdfrwt>
<pdfrwt beam="1">  1       -2 0.15201152E-01 0.21574909E+03</pdfrwt>
<totfact> 0.28777243E+03</totfact>
</mgrwt>
</event>
<event>
 7    1  0.1330601E-005  0.1668138E+03  0.7546771E-02  0.1191266E+00
         -2   -1    0    0    0  501 -0.00000000000E+00  0.00000000000E+00  0.31620748824E+02  0.31620748824E+02  0.00000000000E+00 0.  1.
          2   -1    0    0  501    0  0.00000000000E+00 -0.00000000000E+00 -0.77726401197E+03  0.77726401197E+03  0.00000000000E+00 0. -1.
         23    2    1    2    0    0  0.70851068964E+02  0.84747267290E+02 -0.45081640472E+03  0.47013746049E+03  0.74778524342E+02 0.  0.
          5    1    1    2  502    0  0.18410912424E+01  0.73955521946E+01 -0.15869017032E+03  0.15894258072E+03  0.47000000000E+01 0. -1.
         -5    1    1    2    0  502 -0.72692160206E+02 -0.92142819484E+02 -0.13613668811E+03  0.17980471959E+03  0.47000000000E+01 0. -1.
        -11    1    3    3    0    0  0.78796189056E+02  0.41159088918E+02 -0.31243382363E+03  0.32483504145E+03  0.00000000000E+00 0.  1.
         11    1    3    3    0    0 -0.79451200924E+01  0.43588178372E+02 -0.13838258109E+03  0.14530241903E+03  0.00000000000E+00 0. -1.
<mgrwt>
<rscale>  0 0.15774574E+03</rscale>
<asrwt>0</asrwt>
<pdfrwt beam="2">  1        2 0.11957907E+00 0.16681384E+03</pdfrwt>
<pdfrwt beam="1">  1       -2 0.48647310E-02 0.16681384E+03</pdfrwt>
<totfact> 0.73273052E+03</totfact>
</mgrwt>
</event>
<event>
 7    1  0.1330601E-005  0.1310662E+03  0.7546771E-02  0.1236430E+00
         -2   -1    0    0    0  501 -0.00000000000E+00  0.00000000000E+00  0.56429373606E+02  0.56429373606E+02  0.00000000000E+00 0.  1.
          2   -1    0    0  501    0  0.00000000000E+00 -0.00000000000E+00 -0.24826343009E+03  0.24826343009E+03  0.00000000000E+00 0. -1.
         23    2    1    2    0    0  0.17364738118E+02 -0.35379466109E+02 -0.79359298445E+02  0.13198229500E+03  0.97817110939E+02 0.  0.
          5    1    1    2  502    0  0.25857866342E+02 -0.32990200640E+02 -0.68709741223E+02  0.80623204656E+02  0.47000000000E+01 0.  1.
         -5    1    1    2    0  502 -0.43222604460E+02  0.68369666749E+02 -0.43765016813E+02  0.92087304035E+02  0.47000000000E+01 0.  1.
        -11    1    3    3    0    0 -0.22561876719E+02 -0.48702039092E+02 -0.16168475557E+02  0.56056636490E+02  0.00000000000E+00 0.  1.
         11    1    3    3    0    0  0.39926614838E+02  0.13322572982E+02 -0.63190822888E+02  0.75925658512E+02  0.00000000000E+00 0. -1.
<mgrwt>
<rscale>  0 0.12413324E+03</rscale>
<asrwt>0</asrwt>
<pdfrwt beam="2">  1        2 0.38194374E-01 0.13106620E+03</pdfrwt>
<pdfrwt beam="1">  1       -2 0.86814421E-02 0.13106620E+03</pdfrwt>
<totfact> 0.10512241E+04</totfact>
</mgrwt>
</event>
<event>
 7    1  0.1330601E-005  0.1464886E+03  0.7546771E-02  0.1214238E+00
         -2   -1    0    0    0  501 -0.00000000000E+00  0.00000000000E+00  0.54817071353E+02  0.54817071353E+02  0.00000000000E+00 0.  1.
          2   -1    0    0  501    0  0.00000000000E+00 -0.00000000000E+00 -0.37026744250E+03  0.37026744250E+03  0.00000000000E+00 0. -1.
         23    2    1    2    0    0 -0.20132861056E+02 -0.74348900974E+02 -0.21910287350E+03  0.24975124933E+03  0.91850564504E+02 0.  0.
          5    1    1    2  502    0  0.13175694983E+01  0.74774725454E+02  0.21292936938E+01  0.74964121070E+02  0.47000000000E+01 0. -1.
         -5    1    1    2    0  502  0.18815291558E+02 -0.42582448049E+00 -0.98476791345E+02  0.10036914345E+03  0.47000000000E+01 0.  1.
        -11    1    3    3    0    0 -0.35755665130E+02 -0.60911964896E+02 -0.21795405079E+03  0.22911286151E+03  0.00000000000E+00 0.  1.
         11    1    3    3    0    0  0.15622804074E+02 -0.13436936077E+02 -0.11488227101E+01  0.20638387822E+02  0.00000000000E+00 0. -1.
<mgrwt>
<rscale>  0 0.13932644E+03</rscale>
<asrwt>0</asrwt>
<pdfrwt beam="2">  1        2 0.56964221E-01 0.14648861E+03</pdfrwt>
<pdfrwt beam="1">  1       -2 0.84333957E-02 0.14648861E+03</pdfrwt>
<totfact> 0.72484051E+03</totfact>
</mgrwt>
</event>
<event>
 7    1  0.1330601E-005  0.1283925E+03  0.7546771E-02  0.1246134E+00
          1   -1    0    0  501    0  0.00000000000E+00  0.00000000000E+00  0.22685749388E+02  0.22685749388E+02  0.00000000000E+00 0. -1.
         -1   -1    0    0    0  501 -0.00000000000E+00 -0.00000000000E+00 -0.54188339590E+03  0.54188339590E+03  0.00000000000E+00 0.  1.
         23    2    1    2    0    0  0.92012397614E+01  0.96276544650E+01 -0.18846591879E+03  0.20979020069E+03  0.91187560648E+02 0.  0.
          5    1    1    2  502    0  0.33718736699E+02 -0.52087170024E+02 -0.21928262195E+03  0.22794074838E+03  0.47000000000E+01 0. -1.
         -5    1    1    2    0  502 -0.42919976460E+02  0.42459515559E+02 -0.11144910577E+03  0.12683819621E+03  0.47000000000E+01 0.  1.
        -11    1    3    3    0    0 -0.46754947897E+01  0.36538870163E+02 -0.17081664922E+03  0.17474346035E+03  0.00000000000E+00 0.  1.
         11    1    3    3    0    0  0.13876734551E+02 -0.26911215698E+02 -0.17649269571E+02  0.35046740341E+02  0.00000000000E+00 0. -1.
<mgrwt>
<rscale>  0 0.11817735E+03</rscale>
<asrwt>0</asrwt>
<pdfrwt beam="1">  1        1 0.34901153E-02 0.12839246E+03</pdfrwt>
<pdfrwt beam="2">  1       -1 0.83366676E-01 0.12839246E+03</pdfrwt>
<totfact> 0.39357040E+03</totfact>
</mgrwt>
</event>
<event>
 7    1  0.1330601E-005  0.1555452E+03  0.7546771E-02  0.1202463E+00
          2   -1    0    0  501    0  0.00000000000E+00  0.00000000000E+00  0.22597035301E+03  0.22597035301E+03  0.00000000000E+00 0. -1.
         -2   -1    0    0    0  501 -0.00000000000E+00 -0.00000000000E+00 -0.95104764186E+02  0.95104764186E+02  0.00000000000E+00 0.  1.
         23    2    1    2    0    0  0.79036231734E+02 -0.48183778665E+02  0.98537569488E+02  0.16220598846E+03  0.89625485436E+02 0.  0.
          5    1    1    2  502    0 -0.82096492699E+02  0.59964264284E+02  0.66984308513E+02  0.12183814957E+03  0.47000000000E+01 0.  1.
         -5    1    1    2    0  502  0.30602609650E+01 -0.11780485619E+02 -0.34656289172E+02  0.37030979163E+02  0.47000000000E+01 0.  1.
        -11    1    3    3    0    0  0.64313250631E+02 -0.36356848664E+02  0.11531095356E+03  0.13694754712E+03  0.00000000000E+00 0. -1.
         11    1    3    3    0    0  0.14722981103E+02 -0.11826930001E+02 -0.16773384072E+02  0.25258441342E+02  0.00000000000E+00 0.  1.
<mgrwt>
<rscale>  0 0.14839170E+03</rscale>
<asrwt>0</asrwt>
<pdfrwt beam="1">  1        2 0.34764670E-01 0.15554517E+03</pdfrwt>
<pdfrwt beam="2">  1       -2 0.14631502E-01 0.15554517E+03</pdfrwt>
<totfact> 0.51265567E+03</totfact>
</mgrwt>
</event>
<event>
 7    1  0.1330601E-005  0.2231890E+03  0.7546771E-02  0.1131528E+00
          4   -1    0    0  501    0  0.00000000000E+00  0.00000000000E+00  0.40645063956E+03  0.40645063956E+03  0.00000000000E+00 0. -1.
         -4   -1    0    0    0  501 -0.00000000000E+00 -0.00000000000E+00 -0.30639218272E+02  0.30639218272E+02  0.00000000000E+00 0.  1.
         23    2    1    2    0    0  0.24704813912E+02 -0.15621788879E+02  0.17671978677E+03  0.20019648367E+03  0.89411301966E+02 0.  0.
          5    1    1    2  502    0 -0.46612591340E+02  0.60381491460E+02  0.99827163553E+02  0.12572275357E+03  0.47000000000E+01 0.  1.
         -5    1    1    2    0  502  0.21907777427E+02 -0.44759702581E+02  0.99264470971E+02  0.11117062060E+03  0.47000000000E+01 0.  1.
        -11    1    3    3    0    0  0.28826276221E+02  0.30629259440E+02  0.50590685312E+02  0.65791512940E+02  0.00000000000E+00 0.  1.
         11    1    3    3    0    0 -0.41214623082E+01 -0.46251048319E+02  0.12612910145E+03  0.13440497073E+03  0.00000000000E+00 0. -1.
<mgrwt>
<rscale>  0 0.22318898E+03</rscale>
<asrwt>0</asrwt>
<pdfrwt beam="1">  1        4 0.62530864E-01 0.22318898E+03</pdfrwt>
<pdfrwt beam="2">  1       -4 0.47137262E-02 0.22318898E+03</pdfrwt>
<totfact> 0.11607538E+03</totfact>
</mgrwt>
</event>
<event>
 7    1  0.1330601E-005  0.1334199E+03  0.7546771E-02  0.1234256E+00
          2   -1    0    0  501    0  0.00000000000E+00  0.00000000000E+00  0.96893943048E+02  0.96893943048E+02  0.00000000000E+00 0. -1.
         -2   -1    0    0    0  501 -0.00000000000E+00 -0.00000000000E+00 -0.14970690691E+03  0.14970690691E+03  0.00000000000E+00 0.  1.
         23    2    1    2    0    0  0.30871109630E+02  0.34951723576E+02 -0.42226606378E+01  0.10460831956E+03  0.93543686414E+02 0.  0.
          5    1    1    2  502    0 -0.51200133485E+02  0.98764484189E+01 -0.70578940314E+02  0.87877612155E+02  0.47000000000E+01 0.  1.
         -5    1    1    2    0  502  0.20329023855E+02 -0.44828171995E+02  0.21988637088E+02  0.54114918242E+02  0.47000000000E+01 0.  1.
        -11    1    3    3    0    0  0.57399475467E+02  0.22348154557E+02 -0.27183569256E+02  0.67328197908E+02  0.00000000000E+00 0.  1.
         11    1    3    3    0    0 -0.26528365837E+02  0.12603569020E+02  0.22960908618E+02  0.37280121654E+02  0.00000000000E+00 0. -1.
<mgrwt>
<rscale>  0 0.12552158E+03</rscale>
<asrwt>0</asrwt>
<pdfrwt beam="1">  1        2 0.14906760E-01 0.13341987E+03</pdfrwt>
<pdfrwt beam="2">  1       -2 0.23031832E-01 0.13341987E+03</pdfrwt>
<totfact> 0.61155493E+03</totfact>
</mgrwt>
</event>
<event>
 7    1  0.1330601E-005  0.3548631E+03  0.7546771E-02  0.1061662E+00
         -1   -1    0    0    0  501 -0.00000000000E+00  0.00000000000E+00  0.11193238400E+03  0.11193238400E+03  0.00000000000E+00 0.  1.
          1   -1    0    0  501    0  0.00000000000E+00 -0.00000000000E+00 -0.10935132651E+04  0.10935132651E+04  0.00000000000E+00 0. -1.
         23    2    1    2    0    0  0.22342031674E+03 -0.24573482197E+03 -0.48266281614E+03  0.59319809814E+03  0.92835062819E+02 0.  0.
          5    1    1    2  502    0 -0.17664304057E+03  0.25047579044E+03 -0.44745299622E+03  0.54238100926E+03  0.47000000000E+01 0.  1.
         -5    1    1    2    0  502 -0.46777276172E+02 -0.47409684667E+01 -0.51465068726E+02  0.69866541685E+02  0.47000000000E+01 0.  1.
        -11    1    3    3    0    0  0.19103946864E+03 -0.14827703877E+03 -0.32689433160E+03  0.40662275248E+03  0.00000000000E+00 0.  1.
         11    1    3    3    0    0  0.32380848099E+02 -0.97457783198E+02 -0.15576848454E+03  0.18657534565E+03  0.00000000000E+00 0. -1.
<mgrwt>
<rscale>  0 0.35233256E+03</rscale>
<asrwt>0</asrwt>
<pdfrwt beam="2">  1        1 0.16823282E+00 0.35486311E+03</pdfrwt>
<pdfrwt beam="1">  1       -1 0.17220366E-01 0.35486311E+03</pdfrwt>
<totfact> 0.34978326E+02</totfact>
</mgrwt>
</event>
<event>
 7    1  0.1330601E-005  0.1548200E+03  0.7546771E-02  0.1202888E+00
          2   -1    0    0  501    0  0.00000000000E+00  0.00000000000E+00  0.95750939120E+03  0.95750939120E+03  0.00000000000E+00 0. -1.
         -2   -1    0    0    0  501 -0.00000000000E+00 -0.00000000000E+00 -0.21142273159E+02  0.21142273159E+02  0.00000000000E+00 0.  1.
         23    2    1    2    0    0 -0.70292709206E+02  0.58353452676E+02  0.44778306559E+03  0.46612496150E+03  0.91742114094E+02 0.  0.
          5    1    1    2  502    0  0.58718385760E+02 -0.93536151523E+02  0.28774272728E+03  0.30824475271E+03  0.47000000000E+01 0. -1.
         -5    1    1    2    0  502  0.11574323446E+02  0.35182698847E+02  0.20084132517E+03  0.20428195015E+03  0.47000000000E+01 0. -1.
        -11    1    3    3    0    0 -0.14391729412E+02  0.10935620993E+02  0.71527924177E+01  0.19438933133E+02  0.00000000000E+00 0.  1.
         11    1    3    3    0    0 -0.55900979794E+02  0.47417831683E+02  0.44063027317E+03  0.44668602836E+03  0.00000000000E+00 0. -1.
<mgrwt>
<rscale>  0 0.14805181E+03</rscale>
<asrwt>0</asrwt>
<pdfrwt beam="1">  1        2 0.14730910E+00 0.15482004E+03</pdfrwt>
<pdfrwt beam="2">  1       -2 0.32526582E-02 0.15482004E+03</pdfrwt>
<totfact> 0.10162741E+04</totfact>
</mgrwt>
</event>
<event>
 7    1  0.1330601E-005  0.3794435E+03  0.7546771E-02  0.1051988E+00
          2   -1    0    0  501    0  0.00000000000E+00  0.00000000000E+00  0.68848010812E+03  0.68848010812E+03  0.00000000000E+00 0.  1.
         -2   -1    0    0    0  501 -0.00000000000E+00 -0.00000000000E+00 -0.21323357648E+03  0.21323357648E+03  0.00000000000E+00 0. -1.
         23    2    1    2    0    0 -0.10446477624E+03  0.34269769673E+03  0.32784815396E+03  0.49464654427E+03  0.94001015351E+02 0.  0.
          5    1    1    2  502    0 -0.11993643456E+02 -0.58840612617E+02 -0.11792450008E+02  0.61377659239E+02  0.47000000000E+01 0.  1.
         -5    1    1    2    0  502  0.11645841970E+03 -0.28385708411E+03  0.15919082769E+03  0.34568948110E+03  0.47000000000E+01 0.  1.
        -11    1    3    3    0    0 -0.56959817536E+01  0.17250154965E+03  0.17153674870E+03  0.24333944398E+03  0.00000000000E+00 0.  1.
         11    1    3    3    0    0 -0.98768794487E+02  0.17019614708E+03  0.15631140526E+03  0.25130710030E+03  0.00000000000E+00 0. -1.
<mgrwt>
<rscale>  0 0.37716029E+03</rscale>
<asrwt>0</asrwt>
<pdfrwt beam="1">  1        2 0.10592002E+00 0.37944351E+03</pdfrwt>
<pdfrwt beam="2">  1       -2 0.32805166E-01 0.37944351E+03</pdfrwt>
<totfact> 0.37104635E+02</totfact>
</mgrwt>
</event>
<event>
 7    1  0.1330601E-005  0.2024118E+03  0.7546771E-02  0.1168529E+00
         -1   -1    0    0    0  501 -0.00000000000E+00  0.00000000000E+00  0.16051769688E+03  0.16051769688E+03  0.00000000000E+00 0.  1.
          1   -1    0    0  501    0  0.00000000000E+00 -0.00000000000E+00 -0.16943763330E+03  0.16943763330E+03  0.00000000000E+00 0. -1.
         23    2    1    2    0    0 -0.28914865953E+02 -0.78132585072E+02 -0.24734520369E+02  0.12692669171E+03  0.92508476632E+02 0.  0.
          5    1    1    2  502    0 -0.25998765556E+02  0.51178699711E+02 -0.74301242856E+02  0.94010423914E+02  0.47000000000E+01 0. -1.
         -5    1    1    2    0  502  0.54913631509E+02  0.26953885361E+02  0.90115826809E+02  0.10901821455E+03  0.47000000000E+01 0.  1.
        -11    1    3    3    0    0 -0.50242242654E+02 -0.80339174921E+02 -0.75441306660E+00  0.94758826042E+02  0.00000000000E+00 0.  1.
         11    1    3    3    0    0  0.21327376701E+02  0.22065898487E+01 -0.23980107302E+02  0.32167865672E+02  0.00000000000E+00 0. -1.
<mgrwt>
<rscale>  0 0.17925173E+03</rscale>
<asrwt>0</asrwt>
<pdfrwt beam="2">  1        1 0.26067328E-01 0.20241178E+03</pdfrwt>
<pdfrwt beam="1">  1       -1 0.24695030E-01 0.20241178E+03</pdfrwt>
<totfact> 0.25411774E+03</totfact>
</mgrwt>
</event>
<event>
 7    1  0.1330601E-005  0.1491867E+03  0.7546771E-02  0.1211069E+00
          2   -1    0    0  501    0  0.00000000000E+00  0.00000000000E+00  0.41446877588E+02  0.41446877588E+02  0.00000000000E+00 0. -1.
         -2   -1    0    0    0  501 -0.00000000000E+00 -0.00000000000E+00 -0.45082177473E+03  0.45082177473E+03  0.00000000000E+00 0.  1.
         23    2    1    2    0    0  0.61463383207E+02 -0.53428792475E+02 -0.14909968124E+03  0.19226889604E+03  0.90023497490E+02 0.  0.
          5    1    1    2  502    0 -0.61775404285E+02  0.70405376125E+02 -0.93960847273E+02  0.13275484316E+03  0.47000000000E+01 0.  1.
         -5    1    1    2    0  502  0.31202107756E+00 -0.16976583650E+02 -0.16631436863E+03  0.16724491312E+03  0.47000000000E+01 0.  1.
        -11    1    3    3    0    0 -0.45939788034E+01  0.19404890988E+02 -0.44201238494E+02  0.48491276740E+02  0.00000000000E+00 0. -1.
         11    1    3    3    0    0  0.66057362011E+02 -0.72833683464E+02 -0.10489844274E+03  0.14377761930E+03  0.00000000000E+00 0.  1.
<mgrwt>
<rscale>  0 0.14169263E+03</rscale>
<asrwt>0</asrwt>
<pdfrwt beam="1">  1        2 0.63764423E-02 0.14918668E+03</pdfrwt>
<pdfrwt beam="2">  1       -2 0.69357200E-01 0.14918668E+03</pdfrwt>
<totfact> 0.21466943E+03</totfact>
</mgrwt>
</event>
<event>
 7    1  0.1330601E-005  0.1976638E+03  0.7546771E-02  0.1156143E+00
          2   -1    0    0  501    0  0.00000000000E+00  0.00000000000E+00  0.64728013657E+03  0.64728013657E+03  0.00000000000E+00 0.  1.
         -2   -1    0    0    0  501 -0.00000000000E+00 -0.00000000000E+00 -0.10469126968E+03  0.10469126968E+03  0.00000000000E+00 0. -1.
         23    2    1    2    0    0 -0.28396320325E+02  0.15046337296E+03  0.52397704506E+03  0.55343329880E+03  0.91054351103E+02 0.  0.
          5    1    1    2  502    0 -0.23039870229E+02 -0.13510890437E+03  0.36233062175E+02  0.14184560781E+03  0.47000000000E+01 0.  1.
         -5    1    1    2    0  502  0.51436190554E+02 -0.15354468584E+02 -0.17621240353E+02  0.56692499643E+02  0.47000000000E+01 0.  1.
        -11    1    3    3    0    0 -0.51797662892E+02  0.11535545115E+03  0.30072142706E+03  0.32622577256E+03  0.00000000000E+00 0. -1.
         11    1    3    3    0    0  0.23401342566E+02  0.35107921806E+02  0.22325561801E+03  0.22720752624E+03  0.00000000000E+00 0.  1.
<mgrwt>
<rscale>  0 0.19259287E+03</rscale>
<asrwt>0</asrwt>
<pdfrwt beam="1">  1        2 0.99581556E-01 0.19766381E+03</pdfrwt>
<pdfrwt beam="2">  1       -2 0.16106350E-01 0.19766381E+03</pdfrwt>
<totfact> 0.13978585E+03</totfact>
</mgrwt>
</event>
<event>
 7    1  0.1330601E-005  0.1686930E+03  0.7546771E-02  0.1186155E+00
          2   -1    0    0  501    0  0.00000000000E+00  0.00000000000E+00  0.24806387979E+03  0.24806387979E+03  0.00000000000E+00 0. -1.
         -2   -1    0    0    0  501 -0.00000000000E+00 -0.00000000000E+00 -0.22286153045E+03  0.22286153045E+03  0.00000000000E+00 0.  1.
         23    2    1    2    0    0 -0.72281333591E+02  0.87219448598E+02  0.18760233534E+03  0.23676502291E+03  0.89617054446E+02 0.  0.
          5    1    1    2  502    0  0.59353529718E+02  0.11110175974E+02 -0.27136306036E+02  0.66368265048E+02  0.47000000000E+01 0. -1.
         -5    1    1    2    0  502  0.12927803873E+02 -0.98329624572E+02 -0.13526367996E+03  0.16779212228E+03  0.47000000000E+01 0. -1.
        -11    1    3    3    0    0 -0.19667506603E+02  0.82392876256E+01 -0.51328492031E+01  0.21932688333E+02  0.00000000000E+00 0.  1.
         11    1    3    3    0    0 -0.52613826988E+02  0.78980160972E+02  0.19273518455E+03  0.21483233458E+03  0.00000000000E+00 0. -1.
<mgrwt>
<rscale>  0 0.16227253E+03</rscale>
<asrwt>0</asrwt>
<pdfrwt beam="1">  1        2 0.38163674E-01 0.16869301E+03</pdfrwt>
<pdfrwt beam="2">  1       -2 0.34286389E-01 0.16869301E+03</pdfrwt>
<totfact> 0.10656756E+03</totfact>
</mgrwt>
</event>
<event>
 7    1  0.1430334E-005  0.2030918E+03  0.7546771E-02  0.1151185E+00
         -2   -1    0    0    0  501 -0.00000000000E+00  0.00000000000E+00  0.35567338443E+02  0.35567338443E+02  0.00000000000E+00 0.  1.
          2   -1    0    0  501    0  0.00000000000E+00 -0.00000000000E+00 -0.10741359197E+04  0.10741359197E+04  0.00000000000E+00 0. -1.
         23    2    1    2    0    0  0.12580927923E+03  0.98964149702E+02 -0.56621841512E+03  0.59554280941E+03  0.91902483888E+02 0.  0.
          5    1    1    2  502    0 -0.55103647321E+01 -0.19856635007E+02 -0.23895723841E+03  0.23989018709E+03  0.47000000000E+01 0. -1.
         -5    1    1    2    0  502 -0.12029891450E+03 -0.79107514695E+02 -0.23339292769E+03  0.27427026161E+03  0.47000000000E+01 0. -1.
        -11    1    3    3    0    0  0.40405965502E+02  0.83214901628E+02 -0.22122828324E+03  0.23979014827E+03  0.00000000000E+00 0.  1.
         11    1    3    3    0    0  0.85403313725E+02  0.15749248074E+02 -0.34499013188E+03  0.35575266114E+03  0.00000000000E+00 0. -1.
<mgrwt>
<rscale>  0 0.19829537E+03</rscale>
<asrwt>0</asrwt>
<pdfrwt beam="2">  1        2 0.16525170E+00 0.20309182E+03</pdfrwt>
<pdfrwt beam="1">  1       -2 0.54718976E-02 0.20309182E+03</pdfrwt>
<totfact> 0.40054462E+03</totfact>
</mgrwt>
</event>
<event>
 7    1  0.1330601E-005  0.1471493E+03  0.7546771E-02  0.1213587E+00
         -2   -1    0    0    0  501 -0.00000000000E+00  0.00000000000E+00  0.98727440859E+02  0.98727440859E+02  0.00000000000E+00 0.  1.
          2   -1    0    0  501    0  0.00000000000E+00 -0.00000000000E+00 -0.18063706828E+03  0.18063706828E+03  0.00000000000E+00 0. -1.
         23    2    1    2    0    0 -0.67169612099E+02 -0.38941579339E+02 -0.38770162996E+02  0.12602202384E+03  0.91379546742E+02 0.  0.
          5    1    1    2  502    0  0.31228315557E+02 -0.42750494027E+02  0.20612601416E+01  0.53189766172E+02  0.47000000000E+01 0. -1.
         -5    1    1    2    0  502  0.35941296542E+02  0.81692073366E+02 -0.45200724572E+02  0.10015271913E+03  0.47000000000E+01 0. -1.
        -11    1    3    3    0    0 -0.33643399719E+02  0.21220732153E+02 -0.40984506579E+02  0.57113287396E+02  0.00000000000E+00 0. -1.
         11    1    3    3    0    0 -0.33526212381E+02 -0.60162311492E+02  0.22143435832E+01  0.68908736443E+02  0.00000000000E+00 0.  1.
<mgrwt>
<rscale>  0 0.13980815E+03</rscale>
<asrwt>0</asrwt>
<pdfrwt beam="2">  1        2 0.27790318E-01 0.14714926E+03</pdfrwt>
<pdfrwt beam="1">  1       -2 0.15188837E-01 0.14714926E+03</pdfrwt>
<totfact> 0.61257424E+03</totfact>
</mgrwt>
</event>
<event>
 7    1  0.1330601E-005  0.1299605E+03  0.7546771E-02  0.1242799E+00
          2   -1    0    0  501    0  0.00000000000E+00  0.00000000000E+00  0.75512451941E+03  0.75512451941E+03  0.00000000000E+00 0. -1.
         -2   -1    0    0    0  501 -0.00000000000E+00 -0.00000000000E+00 -0.17344833228E+02  0.17344833228E+02  0.00000000000E+00 0.  1.
         23    2    1    2    0    0  0.33857310662E+01 -0.35533023911E+02  0.38362011198E+03  0.39521780516E+03  0.88083280117E+02 0.  0.
          5    1    1    2  502    0 -0.63112715615E+02  0.12964380109E+02  0.15087220151E+03  0.16412130030E+03  0.47000000000E+01 0.  1.
         -5    1    1    2    0  502  0.59726984549E+02  0.22568643802E+02  0.20328737270E+03  0.21313024719E+03  0.47000000000E+01 0.  1.
        -11    1    3    3    0    0  0.51878703024E+01  0.29292884639E+02  0.10362676938E+03  0.10781231109E+03  0.00000000000E+00 0.  1.
         11    1    3    3    0    0 -0.18021392362E+01 -0.64825908551E+02  0.27999334259E+03  0.28740549407E+03  0.00000000000E+00 0. -1.
<mgrwt>
<rscale>  0 0.12018100E+03</rscale>
<asrwt>0</asrwt>
<pdfrwt beam="1">  1        2 0.11617298E+00 0.12996048E+03</pdfrwt>
<pdfrwt beam="2">  1       -2 0.26684365E-02 0.12996048E+03</pdfrwt>
<totfact> 0.18212852E+04</totfact>
</mgrwt>
</event>
<event>
 7    1  0.1330601E-005  0.1261166E+03  0.7546771E-02  0.1247288E+00
          1   -1    0    0  501    0  0.00000000000E+00  0.00000000000E+00  0.76902803641E+02  0.76902803641E+02  0.00000000000E+00 0. -1.
         -1   -1    0    0    0  501 -0.00000000000E+00 -0.00000000000E+00 -0.17432921415E+03  0.17432921415E+03  0.00000000000E+00 0.  1.
         23    2    1    2    0    0  0.73329813060E+01  0.15064780415E+02 -0.54958518071E+01  0.95165953344E+02  0.93518094853E+02 0.  0.
          5    1    1    2  502    0 -0.18152550700E+02  0.16327763157E+02  0.24497430342E+02  0.34904513175E+02  0.47000000000E+01 0. -1.
         -5    1    1    2    0  502  0.10819569394E+02 -0.31392543572E+02 -0.11642798905E+03  0.12116155127E+03  0.47000000000E+01 0. -1.
        -11    1    3    3    0    0 -0.34253311158E+02  0.26855864059E+01  0.24689589029E+02  0.42309307558E+02  0.00000000000E+00 0. -1.
         11    1    3    3    0    0  0.41586292464E+02  0.12379194009E+02 -0.30185440836E+02  0.52856645785E+02  0.00000000000E+00 0.  1.
<mgrwt>
<rscale>  0 0.11749467E+03</rscale>
<asrwt>0</asrwt>
<pdfrwt beam="1">  1        1 0.11831201E-01 0.12611657E+03</pdfrwt>
<pdfrwt beam="2">  1       -1 0.26819879E-01 0.12611657E+03</pdfrwt>
<totfact> 0.59783262E+03</totfact>
</mgrwt>
</event>
<event>
 7    1  0.1330601E-005  0.1271782E+03  0.7546771E-02  0.1246224E+00
         -2   -1    0    0    0  501 -0.00000000000E+00  0.00000000000E+00  0.38274129988E+02  0.38274129988E+02  0.00000000000E+00 0.  1.
          2   -1    0    0  501    0  0.00000000000E+00 -0.00000000000E+00 -0.32143891532E+03  0.32143891532E+03  0.00000000000E+00 0. -1.
         23    2    1    2    0    0  0.20542802984E+02 -0.11387844157E+02 -0.12241755300E+03  0.15473994712E+03  0.91688081043E+02 0.  0.
          5    1    1    2  502    0 -0.54080888098E+02 -0.36726252067E+02 -0.63161706180E+02  0.91022256487E+02  0.47000000000E+01 0.  1.
         -5    1    1    2    0  502  0.33538085114E+02  0.48114096224E+02 -0.97585526157E+02  0.11395084170E+03  0.47000000000E+01 0.  1.
        -11    1    3    3    0    0 -0.35064985611E+01 -0.36330536146E+02 -0.11312456172E+03  0.11886702592E+03  0.00000000000E+00 0. -1.
         11    1    3    3    0    0  0.24049301545E+02  0.24942691989E+02 -0.92929912816E+01  0.35872921200E+02  0.00000000000E+00 0.  1.
<mgrwt>
<rscale>  0 0.11812405E+03</rscale>
<asrwt>0</asrwt>
<pdfrwt beam="2">  1        2 0.49452141E-01 0.12717821E+03</pdfrwt>
<pdfrwt beam="1">  1       -2 0.58883276E-02 0.12717821E+03</pdfrwt>
<totfact> 0.14452545E+04</totfact>
</mgrwt>
</event>
<event>
 7    1  0.1330601E-005  0.1362112E+03  0.7546771E-02  0.1230502E+00
         -1   -1    0    0    0  501 -0.00000000000E+00  0.00000000000E+00  0.47805294077E+03  0.47805294077E+03  0.00000000000E+00 0.  1.
          1   -1    0    0  501    0  0.00000000000E+00 -0.00000000000E+00 -0.34454893464E+02  0.34454893464E+02  0.00000000000E+00 0. -1.
         23    2    1    2    0    0  0.44589734681E+02  0.30658201869E+02  0.11332672986E+03  0.15525073401E+03  0.91277998063E+02 0.  0.
          5    1    1    2  502    0  0.37772976429E+02 -0.17126240414E+02  0.18498626568E+03  0.18963679588E+03  0.47000000000E+01 0.  1.
         -5    1    1    2    0  502 -0.82362711110E+02 -0.13531961456E+02  0.14528505176E+03  0.16762030434E+03  0.47000000000E+01 0.  1.
        -11    1    3    3    0    0  0.29331075612E+02  0.50956530783E+02  0.11566360133E+03  0.12974956146E+03  0.00000000000E+00 0.  1.
         11    1    3    3    0    0  0.15258659069E+02 -0.20298328914E+02 -0.23368714734E+01  0.25501172553E+02  0.00000000000E+00 0. -1.
<mgrwt>
<rscale>  0 0.12796794E+03</rscale>
<asrwt>0</asrwt>
<pdfrwt beam="2">  1        1 0.53007532E-02 0.13621121E+03</pdfrwt>
<pdfrwt beam="1">  1       -1 0.73546601E-01 0.13621121E+03</pdfrwt>
<totfact> 0.28723540E+03</totfact>
</mgrwt>
</event>
<event>
 7    1  0.1330601E-005  0.1456742E+03  0.7546771E-02  0.1216426E+00
         -2   -1    0    0    0  501 -0.00000000000E+00  0.00000000000E+00  0.44192492246E+02  0.44192492246E+02  0.00000000000E+00 0.  1.
          2   -1    0    0  501    0  0.00000000000E+00 -0.00000000000E+00 -0.41042665277E+03  0.41042665277E+03  0.00000000000E+00 0. -1.
         23    2    1    2    0    0 -0.44694599220E+02  0.59983478071E+02 -0.21598861802E+03  0.24534732786E+03  0.89154940030E+02 0.  0.
          5    1    1    2  502    0  0.15005191030E+02  0.32279870607E+02 -0.75220182389E+01  0.36685372597E+02  0.47000000000E+01 0.  1.
         -5    1    1    2    0  502  0.29689408191E+02 -0.92263348678E+02 -0.14272352427E+03  0.17258644457E+03  0.47000000000E+01 0.  1.
        -11    1    3    3    0    0 -0.46449531670E+02  0.23261805016E+02 -0.19745879617E+03  0.20417797812E+03  0.00000000000E+00 0. -1.
         11    1    3    3    0    0  0.17549324492E+01  0.36721673055E+02 -0.18529821849E+02  0.41169349735E+02  0.00000000000E+00 0.  1.
<mgrwt>
<rscale>  0 0.13772293E+03</rscale>
<asrwt>0</asrwt>
<pdfrwt beam="2">  1        2 0.63142563E-01 0.14567419E+03</pdfrwt>
<pdfrwt beam="1">  1       -2 0.67988448E-02 0.14567419E+03</pdfrwt>
<totfact> 0.90463475E+03</totfact>
</mgrwt>
</event>
<event>
 7    1  0.1330601E-005  0.1464456E+03  0.7546771E-02  0.1214621E+00
         -2   -1    0    0    0  501 -0.00000000000E+00  0.00000000000E+00  0.88918028476E+02  0.88918028476E+02  0.00000000000E+00 0.  1.
          2   -1    0    0  501    0  0.00000000000E+00 -0.00000000000E+00 -0.23640313622E+03  0.23640313622E+03  0.00000000000E+00 0. -1.
         23    2    1    2    0    0  0.70995641318E+02 -0.27830962923E+02 -0.13251776712E+03  0.17811264828E+03  0.91368557452E+02 0.  0.
          5    1    1    2  502    0 -0.10139714757E+02 -0.25144412168E+02 -0.51596454039E+02  0.58475117341E+02  0.47000000000E+01 0.  1.
         -5    1    1    2    0  502 -0.60855926562E+02  0.52975375091E+02  0.36629113409E+02  0.88733399083E+02  0.47000000000E+01 0.  1.
        -11    1    3    3    0    0 -0.18624607139E+02 -0.27175981302E+01 -0.36875504470E+01  0.19179660033E+02  0.00000000000E+00 0.  1.
         11    1    3    3    0    0  0.89620248457E+02 -0.25113364793E+02 -0.12883021667E+03  0.15893298824E+03  0.00000000000E+00 0. -1.
<mgrwt>
<rscale>  0 0.13904403E+03</rscale>
<asrwt>0</asrwt>
<pdfrwt beam="2">  1        2 0.36369714E-01 0.14644564E+03</pdfrwt>
<pdfrwt beam="1">  1       -2 0.13679697E-01 0.14644564E+03</pdfrwt>
<totfact> 0.54297124E+03</totfact>
</mgrwt>
</event>
<event>
 7    1  0.1330601E-005  0.1412550E+03  0.7546771E-02  0.1222664E+00
          2   -1    0    0  501    0  0.00000000000E+00  0.00000000000E+00  0.55002486152E+02  0.55002486152E+02  0.00000000000E+00 0. -1.
         -2   -1    0    0    0  501 -0.00000000000E+00 -0.00000000000E+00 -0.37551480681E+03  0.37551480681E+03  0.00000000000E+00 0.  1.
         23    2    1    2    0    0 -0.75524537994E+01  0.65388932791E+02 -0.44550926978E+02  0.12050491029E+03  0.90575362104E+02 0.  0.
          5    1    1    2  502    0  0.10460092108E+02 -0.70490433930E+02 -0.58219793024E+02  0.92140919803E+02  0.47000000000E+01 0.  1.
         -5    1    1    2    0  502 -0.29076383089E+01  0.51015011391E+01 -0.21774160066E+03  0.21787146286E+03  0.47000000000E+01 0.  1.
        -11    1    3    3    0    0  0.36227915252E+02  0.56767019038E+02 -0.26308384229E+02  0.72298598705E+02  0.00000000000E+00 0. -1.
         11    1    3    3    0    0 -0.43780369051E+02  0.86219137529E+01 -0.18242542748E+02  0.48206311588E+02  0.00000000000E+00 0.  1.
<mgrwt>
<rscale>  0 0.13328327E+03</rscale>
<asrwt>0</asrwt>
<pdfrwt beam="1">  1        2 0.84619209E-02 0.14125504E+03</pdfrwt>
<pdfrwt beam="2">  1       -2 0.57771509E-01 0.14125504E+03</pdfrwt>
<totfact> 0.21867236E+03</totfact>
</mgrwt>
</event>
<event>
 7    1  0.1330601E-005  0.1297221E+03  0.7546771E-02  0.1236900E+00
          1   -1    0    0  501    0  0.00000000000E+00  0.00000000000E+00  0.28017659884E+02  0.28017659884E+02  0.00000000000E+00 0. -1.
         -1   -1    0    0    0  501 -0.00000000000E+00 -0.00000000000E+00 -0.51595485964E+03  0.51595485964E+03  0.00000000000E+00 0.  1.
         23    2    1    2    0    0  0.24468071103E+01 -0.57249260665E+02 -0.17920033697E+03  0.20909003758E+03  0.91227289405E+02 0.  0.
          5    1    1    2  502    0 -0.42081910226E+02 -0.16830955236E+02 -0.11023339644E+03  0.11927975483E+03  0.47000000000E+01 0. -1.
         -5    1    1    2    0  502  0.39635103115E+02  0.74080215901E+02 -0.19850346635E+03  0.21560272711E+03  0.47000000000E+01 0.  1.
        -11    1    3    3    0    0 -0.10095756604E+02 -0.26597473768E+02 -0.16712047472E+01  0.28498119895E+02  0.00000000000E+00 0. -1.
         11    1    3    3    0    0  0.12542563714E+02 -0.30651786897E+02 -0.17752913222E+03  0.18059191768E+03  0.00000000000E+00 0.  1.
<mgrwt>
<rscale>  0 0.12383553E+03</rscale>
<asrwt>0</asrwt>
<pdfrwt beam="1">  1        1 0.43104098E-02 0.12972211E+03</pdfrwt>
<pdfrwt beam="2">  1       -1 0.79377660E-01 0.12972211E+03</pdfrwt>
<totfact> 0.32582396E+03</totfact>
</mgrwt>
</event>
<event>
 7    1  0.1330601E-005  0.1402512E+03  0.7546771E-02  0.1224317E+00
         -1   -1    0    0    0  501 -0.00000000000E+00  0.00000000000E+00  0.44572182762E+02  0.44572182762E+02  0.00000000000E+00 0.  1.
          1   -1    0    0  501    0  0.00000000000E+00 -0.00000000000E+00 -0.47853681688E+03  0.47853681688E+03  0.00000000000E+00 0. -1.
         23    2    1    2    0    0  0.61448771022E+02  0.16391015673E+02 -0.33144789683E+03  0.34938485031E+03  0.90373936827E+02 0.  0.
          5    1    1    2  502    0  0.27764452576E+02 -0.17425880215E+02 -0.72107252259E+02  0.79347791125E+02  0.47000000000E+01 0. -1.
         -5    1    1    2    0  502 -0.89213223598E+02  0.10348645424E+01 -0.30409485036E+02  0.94376358213E+02  0.47000000000E+01 0. -1.
        -11    1    3    3    0    0 -0.89250329071E+01  0.27979534259E+02 -0.41803266094E+02  0.51088390128E+02  0.00000000000E+00 0.  1.
         11    1    3    3    0    0  0.70373803929E+02 -0.11588518586E+02 -0.28964463073E+03  0.29829646018E+03  0.00000000000E+00 0. -1.
<mgrwt>
<rscale>  0 0.13213826E+03</rscale>
<asrwt>0</asrwt>
<pdfrwt beam="2">  1        1 0.73621050E-01 0.14025120E+03</pdfrwt>
<pdfrwt beam="1">  1       -1 0.68572588E-02 0.14025120E+03</pdfrwt>
<totfact> 0.50396724E+03</totfact>
</mgrwt>
</event>
<event>
 7    1  0.1330601E-005  0.1303278E+03  0.7546771E-02  0.1239795E+00
         -1   -1    0    0    0  501 -0.00000000000E+00  0.00000000000E+00  0.10092049912E+03  0.10092049912E+03  0.00000000000E+00 0.  1.
          1   -1    0    0  501    0  0.00000000000E+00 -0.00000000000E+00 -0.13596833837E+03  0.13596833837E+03  0.00000000000E+00 0. -1.
         23    2    1    2    0    0 -0.36855571498E+02 -0.13508381064E+01  0.57678010598E+01  0.10031923020E+03  0.93115640499E+02 0.  0.
          5    1    1    2  502    0 -0.27425097937E+02 -0.43614391660E+02 -0.16853478625E+02  0.54410301400E+02  0.47000000000E+01 0. -1.
         -5    1    1    2    0  502  0.64280669435E+02  0.44965229766E+02 -0.23962161683E+02  0.82159305885E+02  0.47000000000E+01 0. -1.
        -11    1    3    3    0    0 -0.48129363040E+02  0.69258995462E+01 -0.33226189266E+02  0.58892981961E+02  0.00000000000E+00 0. -1.
         11    1    3    3    0    0  0.11273791542E+02 -0.82767376526E+01  0.38993990326E+02  0.41426248242E+02  0.00000000000E+00 0.  1.
<mgrwt>
<rscale>  0 0.12202369E+03</rscale>
<asrwt>0</asrwt>
<pdfrwt beam="2">  1        1 0.20918206E-01 0.13032782E+03</pdfrwt>
<pdfrwt beam="1">  1       -1 0.15526231E-01 0.13032782E+03</pdfrwt>
<totfact> 0.69256279E+03</totfact>
</mgrwt>
</event>
<event>
 7    1  0.1330601E-005  0.1622907E+03  0.7546771E-02  0.1192720E+00
         -1   -1    0    0    0  501 -0.00000000000E+00  0.00000000000E+00  0.16702565867E+03  0.16702565867E+03  0.00000000000E+00 0.  1.
          1   -1    0    0  501    0  0.00000000000E+00 -0.00000000000E+00 -0.14999505955E+03  0.14999505955E+03  0.00000000000E+00 0. -1.
         23    2    1    2    0    0 -0.32331141951E+02 -0.98291526018E+02 -0.38519190706E+02  0.14548628844E+03  0.94741781931E+02 0.  0.
          5    1    1    2  502    0  0.39728453237E+02  0.11203436463E+03  0.79124607043E+02  0.14287351852E+03  0.47000000000E+01 0.  1.
         -5    1    1    2    0  502 -0.73973112853E+01 -0.13742838613E+02 -0.23574817217E+02  0.28660911260E+02  0.47000000000E+01 0.  1.
        -11    1    3    3    0    0 -0.43450931985E+02 -0.10028657335E+03 -0.57424721479E+02  0.12346245957E+03  0.00000000000E+00 0.  1.
         11    1    3    3    0    0  0.11119790034E+02  0.19950473343E+01  0.18905530774E+02  0.22023828870E+02  0.00000000000E+00 0. -1.
<mgrwt>
<rscale>  0 0.15648777E+03</rscale>
<asrwt>0</asrwt>
<pdfrwt beam="2">  1        1 0.23076163E-01 0.16229073E+03</pdfrwt>
<pdfrwt beam="1">  1       -1 0.25696255E-01 0.16229073E+03</pdfrwt>
<totfact> 0.27525464E+03</totfact>
</mgrwt>
</event>
<event>
 7    1  0.1330601E-005  0.1300630E+03  0.7546771E-02  0.1234594E+00
          1   -1    0    0  501    0  0.00000000000E+00  0.00000000000E+00  0.49194671378E+02  0.49194671378E+02  0.00000000000E+00 0. -1.
         -1   -1    0    0    0  501 -0.00000000000E+00 -0.00000000000E+00 -0.37519849907E+03  0.37519849907E+03  0.00000000000E+00 0.  1.
         23    2    1    2    0    0 -0.61995578473E+02  0.27263724304E+02 -0.57262400016E+02  0.12583272123E+03  0.89264376228E+02 0.  0.
          5    1    1    2  502    0  0.13737741155E+02  0.45785513634E+00  0.77635387845E+01  0.16471117079E+02  0.47000000000E+01 0. -1.
         -5    1    1    2    0  502  0.48257837319E+02 -0.27721579441E+02 -0.27650496646E+03  0.28208933214E+03  0.47000000000E+01 0.  1.
        -11    1    3    3    0    0 -0.78296186252E+01 -0.20458344324E+02 -0.48368017465E+02  0.53097192900E+02  0.00000000000E+00 0. -1.
         11    1    3    3    0    0 -0.54165959848E+02  0.47722068629E+02 -0.88943825506E+01  0.72735528330E+02  0.00000000000E+00 0.  1.
<mgrwt>
<rscale>  0 0.12530459E+03</rscale>
<asrwt>0</asrwt>
<pdfrwt beam="1">  1        1 0.75684109E-02 0.13006301E+03</pdfrwt>
<pdfrwt beam="2">  1       -1 0.57722847E-01 0.13006301E+03</pdfrwt>
<totfact> 0.28288882E+03</totfact>
</mgrwt>
</event>
<event>
 7    1  0.1330601E-005  0.1265858E+03  0.7546771E-02  0.1242613E+00
         -1   -1    0    0    0  501 -0.00000000000E+00  0.00000000000E+00  0.21374107007E+03  0.21374107007E+03  0.00000000000E+00 0.  1.
          1   -1    0    0  501    0  0.00000000000E+00 -0.00000000000E+00 -0.71903048143E+02  0.71903048143E+02  0.00000000000E+00 0. -1.
         23    2    1    2    0    0  0.12672003299E+02  0.15431490572E+02  0.11368016428E+02  0.10385743366E+03  0.10128387907E+03 0.  0.
          5    1    1    2  502    0 -0.17994323607E+02 -0.24311297032E+02  0.15327667559E+03  0.15630311618E+03  0.47000000000E+01 0.  1.
         -5    1    1    2    0  502  0.53223203082E+01  0.88798064601E+01 -0.22806670097E+02  0.25483568375E+02  0.47000000000E+01 0.  1.
        -11    1    3    3    0    0  0.56044536781E+01  0.58757602403E+02  0.25341889800E+01  0.59078658202E+02  0.00000000000E+00 0. -1.
         11    1    3    3    0    0  0.70675496210E+01 -0.43326111831E+02  0.88338274484E+01  0.44778775457E+02  0.00000000000E+00 0.  1.
<mgrwt>
<rscale>  0 0.12029399E+03</rscale>
<asrwt>0</asrwt>
<pdfrwt beam="2">  1        1 0.11062008E-01 0.12658585E+03</pdfrwt>
<pdfrwt beam="1">  1       -1 0.32883241E-01 0.12658585E+03</pdfrwt>
<totfact> 0.46427335E+03</totfact>
</mgrwt>
</event>
<event>
 7    1  0.1330601E-005  0.1329097E+03  0.7546771E-02  0.1236028E+00
         -2   -1    0    0    0  501 -0.00000000000E+00  0.00000000000E+00  0.31781485564E+02  0.31781485564E+02  0.00000000000E+00 0.  1.
          2   -1    0    0  501    0  0.00000000000E+00 -0.00000000000E+00 -0.43725185581E+03  0.43725185581E+03  0.00000000000E+00 0. -1.
         23    2    1    2    0    0 -0.33664038784E+02  0.30132692188E+02 -0.19643094761E+03  0.22131885361E+03  0.91409360235E+02 0.  0.
          5    1    1    2  502    0  0.41035949768E+02  0.72394433815E+01 -0.20485848204E+03  0.20910630401E+03  0.47000000000E+01 0. -1.
         -5    1    1    2    0  502 -0.73719109843E+01 -0.37372135570E+02 -0.41809405989E+01  0.38608183756E+02  0.47000000000E+01 0. -1.
        -11    1    3    3    0    0 -0.53146260076E+01  0.57852501146E+02 -0.14623363962E+03  0.15735130916E+03  0.00000000000E+00 0. -1.
         11    1    3    3    0    0 -0.28349412776E+02 -0.27719808957E+02 -0.50197307996E+02  0.63967544453E+02  0.00000000000E+00 0.  1.
<mgrwt>
<rscale>  0 0.12438860E+03</rscale>
<asrwt>0</asrwt>
<pdfrwt beam="2">  1        2 0.67269516E-01 0.13290970E+03</pdfrwt>
<pdfrwt beam="1">  1       -2 0.48894593E-02 0.13290970E+03</pdfrwt>
<totfact> 0.13829099E+04</totfact>
</mgrwt>
</event>
<event>
 7    1  0.1330601E-005  0.1355332E+03  0.7546771E-02  0.1231435E+00
          2   -1    0    0  501    0  0.00000000000E+00  0.00000000000E+00  0.11543189200E+03  0.11543189200E+03  0.00000000000E+00 0. -1.
         -2   -1    0    0    0  501 -0.00000000000E+00 -0.00000000000E+00 -0.13846475130E+03  0.13846475130E+03  0.00000000000E+00 0.  1.
         23    2    1    2    0    0  0.33197924297E+02 -0.40530013831E+02  0.27611539950E+02  0.10921041932E+03  0.91759110452E+02 0.  0.
          5    1    1    2  502    0 -0.51382896877E+02 -0.31928055442E+02 -0.23180014201E+02  0.64953874974E+02  0.47000000000E+01 0. -1.
         -5    1    1    2    0  502  0.18184972580E+02  0.72458069273E+02 -0.27464385050E+02  0.79732348997E+02  0.47000000000E+01 0. -1.
        -11    1    3    3    0    0  0.12227511555E+02 -0.68382581277E+02  0.10107386502E+02  0.70198637614E+02  0.00000000000E+00 0. -1.
         11    1    3    3    0    0  0.20970412742E+02  0.27852567447E+02  0.17504153448E+02  0.39011781706E+02  0.00000000000E+00 0.  1.
<mgrwt>
<rscale>  0 0.12735449E+03</rscale>
<asrwt>0</asrwt>
<pdfrwt beam="1">  1        2 0.17758752E-01 0.13553320E+03</pdfrwt>
<pdfrwt beam="2">  1       -2 0.21302270E-01 0.13553320E+03</pdfrwt>
<totfact> 0.57140425E+03</totfact>
</mgrwt>
</event>
<event>
 7    1  0.1330601E-005  0.2206554E+03  0.7546771E-02  0.1133395E+00
         -1   -1    0    0    0  501 -0.00000000000E+00  0.00000000000E+00  0.21861159423E+03  0.21861159423E+03  0.00000000000E+00 0.  1.
          1   -1    0    0  501    0  0.00000000000E+00 -0.00000000000E+00 -0.55679602205E+02  0.55679602205E+02  0.00000000000E+00 0. -1.
         23    2    1    2    0    0  0.20977027758E+02  0.49952138616E+01  0.65024419412E+02  0.11405815164E+03  0.91192647628E+02 0.  0.
          5    1    1    2  502    0  0.35731194804E+02  0.29412085268E+02  0.78004850586E+02  0.90822000401E+02  0.47000000000E+01 0.  1.
         -5    1    1    2    0  502 -0.56708222562E+02 -0.34407299129E+02  0.19902722028E+02  0.69411044393E+02  0.47000000000E+01 0.  1.
        -11    1    3    3    0    0  0.11185805242E+02  0.46113639407E+02  0.17798159410E+02  0.50679033699E+02  0.00000000000E+00 0.  1.
         11    1    3    3    0    0  0.97912225159E+01 -0.41118425545E+02  0.47226260002E+02  0.63379117944E+02  0.00000000000E+00 0. -1.
<mgrwt>
<rscale>  0 0.22065545E+03</rscale>
<asrwt>0</asrwt>
<pdfrwt beam="2">  1        1 0.85660928E-02 0.22065545E+03</pdfrwt>
<pdfrwt beam="1">  1       -1 0.33632552E-01 0.22065545E+03</pdfrwt>
<totfact> 0.65095243E+03</totfact>
</mgrwt>
</event>
<event>
 7    1  0.1330601E-005  0.2424092E+03  0.7546771E-02  0.1120808E+00
         -1   -1    0    0    0  501 -0.00000000000E+00  0.00000000000E+00  0.52772445221E+02  0.52772445221E+02  0.00000000000E+00 0.  1.
          1   -1    0    0  501    0  0.00000000000E+00 -0.00000000000E+00 -0.11131106710E+04  0.11131106710E+04  0.00000000000E+00 0. -1.
         23    2    1    2    0    0  0.18970486416E+03  0.84534242248E+02 -0.65890740627E+03  0.69693866334E+03  0.91818063705E+02 0.  0.
          5    1    1    2  502    0 -0.12638633410E+03  0.11242193805E+02 -0.22610200153E+03  0.25931466882E+03  0.47000000000E+01 0. -1.
         -5    1    1    2    0  502 -0.63318530062E+02 -0.95776436054E+02 -0.17532881799E+03  0.20962978407E+03  0.47000000000E+01 0. -1.
        -11    1    3    3    0    0  0.10935931744E+03  0.98866996974E+00 -0.36384825100E+03  0.37992892432E+03  0.00000000000E+00 0.  1.
         11    1    3    3    0    0  0.80345546725E+02  0.83545572279E+02 -0.29505915527E+03  0.31700973902E+03  0.00000000000E+00 0. -1.
<mgrwt>
<rscale>  0 0.23848202E+03</rscale>
<asrwt>0</asrwt>
<pdfrwt beam="2">  1        1 0.17124779E+00 0.24240915E+03</pdfrwt>
<pdfrwt beam="1">  1       -1 0.81188380E-02 0.24240915E+03</pdfrwt>
<totfact> 0.11132924E+03</totfact>
</mgrwt>
</event>
<event>
 7    1  0.1330601E-005  0.1896955E+03  0.7546771E-02  0.1175352E+00
         -1   -1    0    0    0  501 -0.00000000000E+00  0.00000000000E+00  0.10054690739E+03  0.10054690739E+03  0.00000000000E+00 0.  1.
          1   -1    0    0  501    0  0.00000000000E+00 -0.00000000000E+00 -0.37651109549E+03  0.37651109549E+03  0.00000000000E+00 0. -1.
         23    2    1    2    0    0  0.76362708736E+02 -0.51182910298E+02 -0.25529104437E+03  0.28623930117E+03  0.91150790489E+02 0.  0.
          5    1    1    2  502    0  0.45860592158E+02  0.18415623994E+02  0.25783069148E+02  0.55939125617E+02  0.47000000000E+01 0. -1.
         -5    1    1    2    0  502 -0.12222330089E+03  0.32767286305E+02 -0.46456212879E+02  0.13487957610E+03  0.47000000000E+01 0.  1.
        -11    1    3    3    0    0  0.82421120421E+02 -0.18840034509E+02 -0.22903702656E+03  0.24414370262E+03  0.00000000000E+00 0. -1.
         11    1    3    3    0    0 -0.60584116848E+01 -0.32342875789E+02 -0.26254017810E+02  0.42095598554E+02  0.00000000000E+00 0.  1.
<mgrwt>
<rscale>  0 0.17241507E+03</rscale>
<asrwt>0</asrwt>
<pdfrwt beam="2">  1        1 0.57924784E-01 0.18969554E+03</pdfrwt>
<pdfrwt beam="1">  1       -1 0.15468755E-01 0.18969554E+03</pdfrwt>
<totfact> 0.19834669E+03</totfact>
</mgrwt>
</event>
<event>
 7    1  0.1330601E-005  0.2975770E+03  0.7546771E-02  0.1088336E+00
          1   -1    0    0  501    0  0.00000000000E+00  0.00000000000E+00  0.69844703142E+03  0.69844703142E+03  0.00000000000E+00 0. -1.
         -1   -1    0    0    0  501 -0.00000000000E+00 -0.00000000000E+00 -0.14084702584E+03  0.14084702584E+03  0.00000000000E+00 0.  1.
         23    2    1    2    0    0 -0.26608166081E+03 -0.46130498501E+02  0.43154967964E+03  0.51612113182E+03  0.84961306502E+02 0.  0.
          5    1    1    2  502    0  0.17037676518E+03  0.73213997028E+02  0.36089355142E+02  0.18897900155E+03  0.47000000000E+01 0.  1.
         -5    1    1    2    0  502  0.95704895636E+02 -0.27083498527E+02  0.89960970797E+02  0.13419392389E+03  0.47000000000E+01 0.  1.
        -11    1    3    3    0    0 -0.68059527374E+02 -0.74761692237E+01  0.50932174034E+02  0.85335096675E+02  0.00000000000E+00 0. -1.
         11    1    3    3    0    0 -0.19802213344E+03 -0.38654329278E+02  0.38061750561E+03  0.43078603515E+03  0.00000000000E+00 0.  1.
<mgrwt>
<rscale>  0 0.29388989E+03</rscale>
<asrwt>0</asrwt>
<pdfrwt beam="1">  1        1 0.10745339E+00 0.29757697E+03</pdfrwt>
<pdfrwt beam="2">  1       -1 0.21668774E-01 0.29757697E+03</pdfrwt>
<totfact> 0.50159681E+02</totfact>
</mgrwt>
</event>
<event>
 7    1  0.1330601E-005  0.1552862E+03  0.7546771E-02  0.1202979E+00
         -2   -1    0    0    0  501 -0.00000000000E+00  0.00000000000E+00  0.32810604605E+02  0.32810604605E+02  0.00000000000E+00 0.  1.
          2   -1    0    0  501    0  0.00000000000E+00 -0.00000000000E+00 -0.61314305093E+03  0.61314305093E+03  0.00000000000E+00 0. -1.
         23    2    1    2    0    0 -0.60853849838E+02 -0.69181445399E+02 -0.24680566784E+03  0.27804887488E+03  0.88931859972E+02 0.  0.
          5    1    1    2  502    0  0.15870153364E+02 -0.12411384313E+02 -0.21997434627E+03  0.22094503218E+03  0.47000000000E+01 0. -1.
         -5    1    1    2    0  502  0.44983696474E+02  0.81592829713E+02 -0.11355243222E+03  0.14695974848E+03  0.47000000000E+01 0. -1.
        -11    1    3    3    0    0 -0.70144346451E+02 -0.13285012746E+02 -0.13715863633E+03  0.15462604057E+03  0.00000000000E+00 0.  1.
         11    1    3    3    0    0  0.92904966131E+01 -0.55896432654E+02 -0.10964703150E+03  0.12342283431E+03  0.00000000000E+00 0. -1.
<mgrwt>
<rscale>  0 0.14797865E+03</rscale>
<asrwt>0</asrwt>
<pdfrwt beam="2">  1        2 0.94329702E-01 0.15528624E+03</pdfrwt>
<pdfrwt beam="1">  1       -2 0.50477852E-02 0.15528624E+03</pdfrwt>
<totfact> 0.91593154E+03</totfact>
</mgrwt>
</event>
<event>
 7    1  0.1330601E-005  0.1264542E+03  0.7546771E-02  0.1248275E+00
         -1   -1    0    0    0  501 -0.00000000000E+00  0.00000000000E+00  0.40173370260E+03  0.40173370260E+03  0.00000000000E+00 0.  1.
          1   -1    0    0  501    0  0.00000000000E+00 -0.00000000000E+00 -0.30061099051E+02  0.30061099051E+02  0.00000000000E+00 0. -1.
         23    2    1    2    0    0  0.12503598398E+02 -0.14443733920E+02  0.13756284232E+03  0.16571578203E+03  0.90405881480E+02 0.  0.
          5    1    1    2  502    0 -0.62985101357E+01 -0.12564488039E+02 -0.11567035105E+02  0.18799571558E+02  0.47000000000E+01 0. -1.
         -5    1    1    2    0  502 -0.62050882623E+01  0.27008221959E+02  0.24567679634E+03  0.24727944806E+03  0.47000000000E+01 0. -1.
        -11    1    3    3    0    0  0.34370343202E+02  0.11139359741E+02  0.15882850445E+02  0.39467337958E+02  0.00000000000E+00 0. -1.
         11    1    3    3    0    0 -0.21866744804E+02 -0.25583093661E+02  0.12167999187E+03  0.12624844407E+03  0.00000000000E+00 0.  1.
<mgrwt>
<rscale>  0 0.11691511E+03</rscale>
<asrwt>0</asrwt>
<pdfrwt beam="2">  1        1 0.46247848E-02 0.12645420E+03</pdfrwt>
<pdfrwt beam="1">  1       -1 0.61805181E-01 0.12645420E+03</pdfrwt>
<totfact> 0.48378920E+03</totfact>
</mgrwt>
</event>
<event>
 7    1  0.1330601E-005  0.1155269E+03  0.7546771E-02  0.1259347E+00
          1   -1    0    0  501    0  0.00000000000E+00  0.00000000000E+00  0.26323371452E+03  0.26323371452E+03  0.00000000000E+00 0. -1.
         -1   -1    0    0    0  501 -0.00000000000E+00 -0.00000000000E+00 -0.27251704829E+03  0.27251704829E+03  0.00000000000E+00 0.  1.
         23    2    1    2    0    0  0.32625200304E+02 -0.12918021172E+02  0.24111081109E+03  0.25999054811E+03  0.90715946335E+02 0.  0.
          5    1    1    2  502    0  0.33748912782E+02 -0.17740184979E+02 -0.55047285981E+02  0.67126723225E+02  0.47000000000E+01 0. -1.
         -5    1    1    2    0  502 -0.66374113086E+02  0.30658206151E+02 -0.19534685888E+03  0.20863349148E+03  0.47000000000E+01 0.  1.
        -11    1    3    3    0    0 -0.52883301910E+01  0.35058544317E+02  0.10352809324E+03  0.10943095566E+03  0.00000000000E+00 0.  1.
         11    1    3    3    0    0  0.37913530495E+02 -0.47976565490E+02  0.13758271784E+03  0.15055959245E+03  0.00000000000E+00 0. -1.
<mgrwt>
<rscale>  0 0.11066303E+03</rscale>
<asrwt>0</asrwt>
<pdfrwt beam="1">  1        1 0.40497495E-01 0.11552692E+03</pdfrwt>
<pdfrwt beam="2">  1       -1 0.41925700E-01 0.11552692E+03</pdfrwt>
<totfact> 0.58862831E+02</totfact>
</mgrwt>
</event>
<event>
 7    1  0.1330601E-005  0.2619265E+03  0.7546771E-02  0.1108186E+00
          2   -1    0    0  501    0  0.00000000000E+00  0.00000000000E+00  0.50389726441E+03  0.50389726441E+03  0.00000000000E+00 0. -1.
         -2   -1    0    0    0  501 -0.00000000000E+00 -0.00000000000E+00 -0.18818733887E+03  0.18818733887E+03  0.00000000000E+00 0.  1.
         23    2    1    2    0    0  0.19469502412E+03 -0.12277904016E+03  0.34914478230E+03  0.42803277705E+03  0.91264089885E+02 0.  0.
          5    1    1    2  502    0  0.79387655246E+01 -0.14252452228E+02  0.84391416622E+00  0.16998781829E+02  0.47000000000E+01 0. -1.
         -5    1    1    2    0  502 -0.20263378965E+03  0.13703149238E+03 -0.34278770935E+02  0.24705304440E+03  0.47000000000E+01 0. -1.
        -11    1    3    3    0    0  0.11696192556E+03 -0.29452827305E+02  0.12898528114E+03  0.17659208311E+03  0.00000000000E+00 0. -1.
         11    1    3    3    0    0  0.77733098562E+02 -0.93326212850E+02  0.22015950116E+03  0.25144069394E+03  0.00000000000E+00 0.  1.
<mgrwt>
<rscale>  0 0.25827118E+03</rscale>
<asrwt>0</asrwt>
<pdfrwt beam="1">  1        2 0.77522656E-01 0.26192647E+03</pdfrwt>
<pdfrwt beam="2">  1       -2 0.28951898E-01 0.26192647E+03</pdfrwt>
<totfact> 0.67601419E+02</totfact>
</mgrwt>
</event>
<event>
 7    1  0.1330601E-005  0.1340867E+03  0.7546771E-02  0.1233190E+00
          2   -1    0    0  501    0  0.00000000000E+00  0.00000000000E+00  0.52990936919E+03  0.52990936919E+03  0.00000000000E+00 0. -1.
         -2   -1    0    0    0  501 -0.00000000000E+00 -0.00000000000E+00 -0.28217241952E+02  0.28217241952E+02  0.00000000000E+00 0.  1.
         23    2    1    2    0    0 -0.28278408248E+01 -0.48442739408E+02  0.27887997423E+03  0.29807949555E+03  0.93395128120E+02 0.  0.
          5    1    1    2  502    0 -0.60578552923E+02  0.28668446617E+02  0.12085275667E+03  0.13827190495E+03  0.47000000000E+01 0. -1.
         -5    1    1    2    0  502  0.63406393748E+02  0.19774292791E+02  0.10195939635E+03  0.12177521064E+03  0.47000000000E+01 0. -1.
        -11    1    3    3    0    0 -0.47944930854E+02 -0.29564918902E+02  0.14684041655E+03  0.15727335679E+03  0.00000000000E+00 0. -1.
         11    1    3    3    0    0  0.45117090029E+02 -0.18877820506E+02  0.13203955768E+03  0.14080613876E+03  0.00000000000E+00 0.  1.
<mgrwt>
<rscale>  0 0.12621000E+03</rscale>
<asrwt>0</asrwt>
<pdfrwt beam="1">  1        2 0.81524511E-01 0.13408671E+03</pdfrwt>
<pdfrwt beam="2">  1       -2 0.43411146E-02 0.13408671E+03</pdfrwt>
<totfact> 0.13402837E+04</totfact>
</mgrwt>
</event>
<event>
 7    1  0.1330601E-005  0.1324273E+03  0.7546771E-02  0.1239564E+00
          4   -1    0    0  501    0  0.00000000000E+00  0.00000000000E+00  0.17516847443E+03  0.17516847443E+03  0.00000000000E+00 0. -1.
         -4   -1    0    0    0  501 -0.00000000000E+00 -0.00000000000E+00 -0.74904061800E+02  0.74904061800E+02  0.00000000000E+00 0.  1.
         23    2    1    2    0    0  0.23884929051E+02 -0.36625251181E+02  0.52149893068E+02  0.10917544223E+03  0.85368419093E+02 0.  0.
          5    1    1    2  502    0 -0.24831682945E+02  0.62570867659E+02  0.76589443311E+02  0.10207721971E+03  0.47000000000E+01 0.  1.
         -5    1    1    2    0  502  0.94675389368E+00 -0.25945616478E+02 -0.28474923750E+02  0.38819874291E+02  0.47000000000E+01 0.  1.
        -11    1    3    3    0    0  0.36861975215E+02  0.21052803486E+01  0.57133755704E+02  0.68025755879E+02  0.00000000000E+00 0. -1.
         11    1    3    3    0    0 -0.12977046164E+02 -0.38730531530E+02 -0.49838626354E+01  0.41149686347E+02  0.00000000000E+00 0.  1.
<mgrwt>
<rscale>  0 0.12216719E+03</rscale>
<asrwt>0</asrwt>
<pdfrwt beam="1">  1        4 0.26948996E-01 0.13242728E+03</pdfrwt>
<pdfrwt beam="2">  1       -4 0.11523702E-01 0.13242728E+03</pdfrwt>
<totfact> 0.12720036E+03</totfact>
</mgrwt>
</event>
<event>
 7    1  0.1330601E-005  0.1729721E+03  0.7546771E-02  0.1181262E+00
         -3   -1    0    0    0  501 -0.00000000000E+00  0.00000000000E+00  0.45725975260E+02  0.45725975260E+02  0.00000000000E+00 0.  1.
          3   -1    0    0  501    0  0.00000000000E+00 -0.00000000000E+00 -0.58975530920E+03  0.58975530920E+03  0.00000000000E+00 0. -1.
         23    2    1    2    0    0  0.36230750187E+02  0.11393963543E+03 -0.19255571642E+03  0.24375042797E+03  0.89675299995E+02 0.  0.
          5    1    1    2  502    0 -0.53712146718E+02 -0.13438734073E+03 -0.30884992679E+03  0.34110895522E+03  0.47000000000E+01 0.  1.
         -5    1    1    2    0  502  0.17481396530E+02  0.20447705304E+02 -0.42623690725E+02  0.50621901267E+02  0.47000000000E+01 0.  1.
        -11    1    3    3    0    0  0.23269760609E+02  0.12255819245E+03 -0.13365071495E+03  0.18282370170E+03  0.00000000000E+00 0.  1.
         11    1    3    3    0    0  0.12960989578E+02 -0.86185570250E+01 -0.58905001474E+02  0.60926726276E+02  0.00000000000E+00 0. -1.
<mgrwt>
<rscale>  0 0.16676664E+03</rscale>
<asrwt>0</asrwt>
<pdfrwt beam="2">  1        3 0.90731578E-01 0.17297214E+03</pdfrwt>
<pdfrwt beam="1">  1       -3 0.70347661E-02 0.17297214E+03</pdfrwt>
<totfact> 0.35698735E+02</totfact>
</mgrwt>
</event>
<event>
 7    1  0.1330601E-005  0.1860605E+03  0.7546771E-02  0.1165379E+00
         -1   -1    0    0    0  501 -0.00000000000E+00  0.00000000000E+00  0.74651421680E+02  0.74651421680E+02  0.00000000000E+00 0.  1.
          1   -1    0    0  501    0  0.00000000000E+00 -0.00000000000E+00 -0.43551875134E+03  0.43551875134E+03  0.00000000000E+00 0. -1.
         23    2    1    2    0    0 -0.11920290227E+03  0.85686571168E+02 -0.14525823214E+03  0.22537939234E+03  0.90246307961E+02 0.  0.
          5    1    1    2  502    0  0.10675169165E+03 -0.91669783141E+01 -0.14040701286E+03  0.17668100187E+03  0.47000000000E+01 0. -1.
         -5    1    1    2    0  502  0.12451210612E+02 -0.76519592854E+02 -0.75202084662E+02  0.10810977881E+03  0.47000000000E+01 0.  1.
        -11    1    3    3    0    0 -0.88064635285E+00  0.41702532947E+02 -0.15910798005E+02  0.44643367764E+02  0.00000000000E+00 0. -1.
         11    1    3    3    0    0 -0.11832225591E+03  0.43984038222E+02 -0.12934743413E+03  0.18073602458E+03  0.00000000000E+00 0.  1.
<mgrwt>
<rscale>  0 0.18252725E+03</rscale>
<asrwt>0</asrwt>
<pdfrwt beam="2">  1        1 0.67002882E-01 0.18606049E+03</pdfrwt>
<pdfrwt beam="1">  1       -1 0.11484835E-01 0.18606049E+03</pdfrwt>
<totfact> 0.26246315E+03</totfact>
</mgrwt>
</event>
<event>
 7    1  0.1330601E-005  0.1473537E+03  0.7546771E-02  0.1212025E+00
         -1   -1    0    0    0  501 -0.00000000000E+00  0.00000000000E+00  0.60032855015E+03  0.60032855015E+03  0.00000000000E+00 0.  1.
          1   -1    0    0  501    0  0.00000000000E+00 -0.00000000000E+00 -0.82552471697E+02  0.82552471697E+02  0.00000000000E+00 0. -1.
         23    2    1    2    0    0 -0.40547745023E+02  0.66741775575E+02 -0.20204367541E+02  0.12508528849E+03  0.95600882296E+02 0.  0.
          5    1    1    2  502    0 -0.11700097708E+02  0.98291802086E+00  0.36050707303E+03  0.36072884293E+03  0.47000000000E+01 0. -1.
         -5    1    1    2    0  502  0.52247842730E+02 -0.67724693596E+02  0.17747337296E+03  0.19706689043E+03  0.47000000000E+01 0. -1.
        -11    1    3    3    0    0  0.30401846112E+02  0.11176614010E+02  0.13708569438E+01  0.32420181932E+02  0.00000000000E+00 0.  1.
         11    1    3    3    0    0 -0.70949591135E+02  0.55565161565E+02 -0.21575224485E+02  0.92665106559E+02  0.00000000000E+00 0. -1.
<mgrwt>
<rscale>  0 0.14097342E+03</rscale>
<asrwt>0</asrwt>
<pdfrwt beam="2">  1        1 0.12700381E-01 0.14735372E+03</pdfrwt>
<pdfrwt beam="1">  1       -1 0.92358236E-01 0.14735372E+03</pdfrwt>
<totfact> 0.55755989E+02</totfact>
</mgrwt>
</event>
<event>
 7    1  0.1330601E-005  0.1560381E+03  0.7546771E-02  0.1202026E+00
         -2   -1    0    0    0  501 -0.00000000000E+00  0.00000000000E+00  0.12923308675E+03  0.12923308675E+03  0.00000000000E+00 0.  1.
          2   -1    0    0  501    0  0.00000000000E+00 -0.00000000000E+00 -0.17008754298E+03  0.17008754298E+03  0.00000000000E+00 0. -1.
         23    2    1    2    0    0 -0.72863553644E+02  0.58431708746E+02 -0.59974755060E+02  0.14211539928E+03  0.88749385524E+02 0.  0.
          5    1    1    2  502    0  0.62525967465E+02  0.24408709663E+02 -0.11300665336E+02  0.68228122881E+02  0.47000000000E+01 0.  1.
         -5    1    1    2    0  502  0.10337586179E+02 -0.82840418409E+02  0.30420964166E+02  0.88977107567E+02  0.47000000000E+01 0.  1.
        -11    1    3    3    0    0 -0.54675389861E+00  0.16186869256E+02  0.20392128391E+02  0.26041362799E+02  0.00000000000E+00 0.  1.
         11    1    3    3    0    0 -0.72316799745E+02  0.42244839490E+02 -0.80366883451E+02  0.11607403648E+03  0.00000000000E+00 0. -1.
<mgrwt>
<rscale>  0 0.14874280E+03</rscale>
<asrwt>0</asrwt>
<pdfrwt beam="2">  1        2 0.26167314E-01 0.15603813E+03</pdfrwt>
<pdfrwt beam="1">  1       -2 0.19882013E-01 0.15603813E+03</pdfrwt>
<totfact> 0.41929263E+03</totfact>
</mgrwt>
</event>
<event>
 7    1  0.1330601E-005  0.1385502E+03  0.7546771E-02  0.1225689E+00
         -2   -1    0    0    0  501 -0.00000000000E+00  0.00000000000E+00  0.76360031969E+03  0.76360031969E+03  0.00000000000E+00 0.  1.
          2   -1    0    0  501    0  0.00000000000E+00 -0.00000000000E+00 -0.23051782695E+02  0.23051782695E+02  0.00000000000E+00 0. -1.
         23    2    1    2    0    0  0.51842915194E+02  0.29712007226E+02  0.20323960244E+03  0.23176738060E+03  0.94017506251E+02 0.  0.
          5    1    1    2  502    0  0.14675930095E+02 -0.42720146763E+02  0.75512364065E+02  0.88116973338E+02  0.47000000000E+01 0. -1.
         -5    1    1    2    0  502 -0.66518845289E+02  0.13008139538E+02  0.46179657050E+03  0.46676774845E+03  0.47000000000E+01 0. -1.
        -11    1    3    3    0    0  0.71230313180E+02  0.10073216069E+02  0.18550047394E+03  0.19896143604E+03  0.00000000000E+00 0.  1.
         11    1    3    3    0    0 -0.19387397986E+02  0.19638791156E+02  0.17739128495E+02  0.32805944561E+02  0.00000000000E+00 0. -1.
<mgrwt>
<rscale>  0 0.13119761E+03</rscale>
<asrwt>0</asrwt>
<pdfrwt beam="2">  1        2 0.35464287E-02 0.13855022E+03</pdfrwt>
<pdfrwt beam="1">  1       -2 0.11747695E+00 0.13855022E+03</pdfrwt>
<totfact> 0.14078519E+03</totfact>
</mgrwt>
</event>
<event>
 7    1  0.1330601E-005  0.1969936E+03  0.7546771E-02  0.1156728E+00
          2   -1    0    0  501    0  0.00000000000E+00  0.00000000000E+00  0.49994328301E+02  0.49994328301E+02  0.00000000000E+00 0. -1.
         -2   -1    0    0    0  501 -0.00000000000E+00 -0.00000000000E+00 -0.70477824538E+03  0.70477824538E+03  0.00000000000E+00 0.  1.
         23    2    1    2    0    0  0.80589214567E+02 -0.12915427090E+03 -0.28435546606E+03  0.33522076986E+03  0.91320787724E+02 0.  0.
          5    1    1    2  502    0  0.10294593899E+02  0.87093429731E+02 -0.11179505166E+03  0.14216704168E+03  0.47000000000E+01 0.  1.
         -5    1    1    2    0  502 -0.90883808466E+02  0.42060841171E+02 -0.25863339936E+03  0.27738476214E+03  0.47000000000E+01 0.  1.
        -11    1    3    3    0    0  0.84090342611E+02 -0.69350535246E+02 -0.22916816259E+03  0.25376904698E+03  0.00000000000E+00 0.  1.
         11    1    3    3    0    0 -0.35011280443E+01 -0.59803735656E+02 -0.55187303469E+02  0.81451722880E+02  0.00000000000E+00 0. -1.
<mgrwt>
<rscale>  0 0.19193476E+03</rscale>
<asrwt>0</asrwt>
<pdfrwt beam="1">  1        2 0.76914358E-02 0.19699360E+03</pdfrwt>
<pdfrwt beam="2">  1       -2 0.10842741E+00 0.19699360E+03</pdfrwt>
<totfact> 0.62847976E+02</totfact>
</mgrwt>
</event>
<event>
 7    1  0.1330601E-005  0.1489280E+03  0.7546771E-02  0.1211053E+00
          2   -1    0    0  501    0  0.00000000000E+00  0.00000000000E+00  0.21580030155E+03  0.21580030155E+03  0.00000000000E+00 0. -1.
         -2   -1    0    0    0  501 -0.00000000000E+00 -0.00000000000E+00 -0.10978870191E+03  0.10978870191E+03  0.00000000000E+00 0.  1.
         23    2    1    2    0    0  0.48801503199E+02 -0.64555367840E+02  0.12587126681E+03  0.17534265470E+03  0.91391949965E+02 0.  0.
          5    1    1    2  502    0 -0.31990185605E+02 -0.18901850446E+02  0.33008161969E+02  0.49922747139E+02  0.47000000000E+01 0.  1.
         -5    1    1    2    0  502 -0.16811317594E+02  0.83457218286E+02 -0.52867829141E+02  0.10032360162E+03  0.47000000000E+01 0.  1.
        -11    1    3    3    0    0  0.44821178912E+02  0.36194359188E+01  0.83884643143E+02  0.95177054749E+02  0.00000000000E+00 0. -1.
         11    1    3    3    0    0  0.39803242873E+01 -0.68174803759E+02  0.41986623666E+02  0.80165599953E+02  0.00000000000E+00 0.  1.
<mgrwt>
<rscale>  0 0.14170526E+03</rscale>
<asrwt>0</asrwt>
<pdfrwt beam="1">  1        2 0.33200046E-01 0.14892803E+03</pdfrwt>
<pdfrwt beam="2">  1       -2 0.16890570E-01 0.14892803E+03</pdfrwt>
<totfact> 0.42422514E+03</totfact>
</mgrwt>
</event>
<event>
 7    1  0.1330601E-005  0.1441035E+03  0.7546771E-02  0.1218023E+00
          4   -1    0    0  501    0  0.00000000000E+00  0.00000000000E+00  0.18908953408E+03  0.18908953408E+03  0.00000000000E+00 0. -1.
         -4   -1    0    0    0  501 -0.00000000000E+00 -0.00000000000E+00 -0.24035281248E+03  0.24035281248E+03  0.00000000000E+00 0.  1.
         23    2    1    2    0    0  0.26858450407E+02 -0.66674546432E+02  0.14507200793E+03  0.18589901415E+03  0.91354717876E+02 0.  0.
          5    1    1    2  502    0 -0.81479181461E+01  0.18452850562E+02 -0.19010900412E+03  0.19123393975E+03  0.47000000000E+01 0. -1.
         -5    1    1    2    0  502 -0.18710532261E+02  0.48221695870E+02 -0.62262822132E+01  0.52309392658E+02  0.47000000000E+01 0. -1.
        -11    1    3    3    0    0  0.90449224243E+01 -0.37165159039E+02  0.14648928015E+03  0.15140068979E+03  0.00000000000E+00 0. -1.
         11    1    3    3    0    0  0.17813527983E+02 -0.29509387394E+02 -0.14172722236E+01  0.34498324367E+02  0.00000000000E+00 0.  1.
<mgrwt>
<rscale>  0 0.13656771E+03</rscale>
<asrwt>0</asrwt>
<pdfrwt beam="1">  1        4 0.29090697E-01 0.14410347E+03</pdfrwt>
<pdfrwt beam="2">  1       -4 0.36977356E-01 0.14410347E+03</pdfrwt>
<totfact> 0.13532777E+02</totfact>
</mgrwt>
</event>
<event>
 7    1  0.1330601E-005  0.1423275E+03  0.7546771E-02  0.1217158E+00
          2   -1    0    0  501    0  0.00000000000E+00  0.00000000000E+00  0.59881627158E+03  0.59881627158E+03  0.00000000000E+00 0. -1.
         -2   -1    0    0    0  501 -0.00000000000E+00 -0.00000000000E+00 -0.41805875500E+02  0.41805875500E+02  0.00000000000E+00 0.  1.
         23    2    1    2    0    0  0.83540492540E+02 -0.68306173413E+01  0.43857706512E+03  0.45546390900E+03  0.89843525782E+02 0.  0.
          5    1    1    2  502    0 -0.11208465866E+03  0.24247525276E+01  0.10175887685E+03  0.15147874158E+03  0.47000000000E+01 0. -1.
         -5    1    1    2    0  502  0.28544166125E+02  0.44058648138E+01  0.16674454104E+02  0.33679496496E+02  0.47000000000E+01 0.  1.
        -11    1    3    3    0    0  0.93013216571E+02 -0.15828700699E+02  0.42903056610E+03  0.43928263438E+03  0.00000000000E+00 0.  1.
         11    1    3    3    0    0 -0.94727240315E+01  0.89980833580E+01  0.95464990224E+01  0.16181274619E+02  0.00000000000E+00 0. -1.
<mgrwt>
<rscale>  0 0.13719234E+03</rscale>
<asrwt>0</asrwt>
<pdfrwt beam="1">  1        2 0.92125574E-01 0.14232751E+03</pdfrwt>
<pdfrwt beam="2">  1       -2 0.64316736E-02 0.14232751E+03</pdfrwt>
<totfact> 0.64862153E+03</totfact>
</mgrwt>
</event>
<event>
 7    1  0.1330601E-005  0.1797785E+03  0.7546771E-02  0.1173966E+00
          2   -1    0    0  501    0  0.00000000000E+00  0.00000000000E+00  0.95744049922E+02  0.95744049922E+02  0.00000000000E+00 0. -1.
         -2   -1    0    0    0  501 -0.00000000000E+00 -0.00000000000E+00 -0.29660443806E+03  0.29660443806E+03  0.00000000000E+00 0.  1.
         23    2    1    2    0    0  0.12556250151E+03  0.30487231638E+02 -0.85253559196E+02  0.17860745218E+03  0.89090064221E+02 0.  0.
          5    1    1    2  502    0 -0.60409520832E+02 -0.18457207857E+02  0.16867245076E+02  0.65548247006E+02  0.47000000000E+01 0.  1.
         -5    1    1    2    0  502 -0.65152980673E+02 -0.12030023780E+02 -0.13247407402E+03  0.14819278879E+03  0.47000000000E+01 0.  1.
        -11    1    3    3    0    0  0.10078655131E+03  0.26346761092E+02 -0.16580708312E+02  0.10548459903E+03  0.00000000000E+00 0. -1.
         11    1    3    3    0    0  0.24775950195E+02  0.41404705455E+01 -0.68672850884E+02  0.73122853151E+02  0.00000000000E+00 0.  1.
<mgrwt>
<rscale>  0 0.17377675E+03</rscale>
<asrwt>0</asrwt>
<pdfrwt beam="1">  1        2 0.14729854E-01 0.17977845E+03</pdfrwt>
<pdfrwt beam="2">  1       -2 0.45631451E-01 0.17977845E+03</pdfrwt>
<totfact> 0.18035274E+03</totfact>
</mgrwt>
</event>
<event>
 7    1  0.1330601E-005  0.2374688E+03  0.7546771E-02  0.1124180E+00
          1   -1    0    0  501    0  0.00000000000E+00  0.00000000000E+00  0.64788675869E+03  0.64788675869E+03  0.00000000000E+00 0. -1.
         -1   -1    0    0    0  501 -0.00000000000E+00 -0.00000000000E+00 -0.89359687082E+02  0.89359687082E+02  0.00000000000E+00 0.  1.
         23    2    1    2    0    0  0.13363771733E+03 -0.15135059691E+03  0.38003655941E+03  0.44017697033E+03  0.92530730292E+02 0.  0.
          5    1    1    2  502    0 -0.59321422672E+01 -0.13232926866E+02  0.49987307380E+02  0.52260133605E+02  0.47000000000E+01 0.  1.
         -5    1    1    2    0  502 -0.12770557506E+03  0.16458352377E+03  0.12850320482E+03  0.24480934184E+03  0.47000000000E+01 0.  1.
        -11    1    3    3    0    0  0.10368317496E+03 -0.16013246480E+03  0.33138582644E+03  0.38237308093E+03  0.00000000000E+00 0.  1.
         11    1    3    3    0    0  0.29954542366E+02  0.87818678931E+01  0.48650732970E+02  0.57803889407E+02  0.00000000000E+00 0. -1.
<mgrwt>
<rscale>  0 0.23352938E+03</rscale>
<asrwt>0</asrwt>
<pdfrwt beam="1">  1        1 0.99674883E-01 0.23746876E+03</pdfrwt>
<pdfrwt beam="2">  1       -1 0.13747645E-01 0.23746876E+03</pdfrwt>
<totfact> 0.11659490E+03</totfact>
</mgrwt>
</event>
<event>
 7    1  0.1330601E-005  0.1385922E+03  0.7546771E-02  0.1230039E+00
          2   -1    0    0  501    0  0.00000000000E+00  0.00000000000E+00  0.63004536490E+03  0.63004536490E+03  0.00000000000E+00 0.  1.
         -2   -1    0    0    0  501 -0.00000000000E+00 -0.00000000000E+00 -0.22971406619E+02  0.22971406619E+02  0.00000000000E+00 0. -1.
         23    2    1    2    0    0  0.59513751127E+02  0.65980639834E+01  0.24067014597E+03  0.26127763667E+03  0.82209873135E+02 0.  0.
          5    1    1    2  502    0 -0.57206137162E+01 -0.58863321157E+02  0.11583919439E+03  0.13014770438E+03  0.47000000000E+01 0.  1.
         -5    1    1    2    0  502 -0.53793137411E+02  0.52265257174E+02  0.25056461793E+03  0.26159143047E+03  0.47000000000E+01 0.  1.
        -11    1    3    3    0    0 -0.48391323333E+01  0.17095085309E+02  0.77152560750E+01  0.19369675262E+02  0.00000000000E+00 0. -1.
         11    1    3    3    0    0  0.64352883461E+02 -0.10497021326E+02  0.23295488989E+03  0.24190796141E+03  0.00000000000E+00 0.  1.
<mgrwt>
<rscale>  0 0.12827426E+03</rscale>
<asrwt>0</asrwt>
<pdfrwt beam="1">  1        2 0.96930043E-01 0.13859219E+03</pdfrwt>
<pdfrwt beam="2">  1       -2 0.35340630E-02 0.13859219E+03</pdfrwt>
<totfact> 0.14998333E+04</totfact>
</mgrwt>
</event>
<event>
 7    1  0.1330601E-005  0.2169487E+03  0.7546771E-02  0.1138069E+00
         -2   -1    0    0    0  501 -0.00000000000E+00  0.00000000000E+00  0.97828584176E+02  0.97828584176E+02  0.00000000000E+00 0.  1.
          2   -1    0    0  501    0  0.00000000000E+00 -0.00000000000E+00 -0.46153439420E+03  0.46153439420E+03  0.00000000000E+00 0. -1.
         23    2    1    2    0    0 -0.16776734994E+03  0.57414495607E+02 -0.16058226981E+03  0.26216620279E+03  0.10724805125E+03 0.  0.
          5    1    1    2  502    0  0.55799575853E+02  0.14101662094E+02 -0.13709665400E+03  0.14876166199E+03  0.47000000000E+01 0.  1.
         -5    1    1    2    0  502  0.11196777409E+03 -0.71516157701E+02 -0.66026886217E+02  0.14843511360E+03  0.47000000000E+01 0.  1.
        -11    1    3    3    0    0 -0.77675027974E+02 -0.18421422514E+02 -0.27431430421E+02  0.84411149460E+02  0.00000000000E+00 0.  1.
         11    1    3    3    0    0 -0.90092321965E+02  0.75835918121E+02 -0.13315083939E+03  0.17775505333E+03  0.00000000000E+00 0. -1.
<mgrwt>
<rscale>  0 0.21447724E+03</rscale>
<asrwt>0</asrwt>
<pdfrwt beam="2">  1        2 0.71005291E-01 0.21694873E+03</pdfrwt>
<pdfrwt beam="1">  1       -2 0.15050551E-01 0.21694873E+03</pdfrwt>
<totfact> 0.23003114E+03</totfact>
</mgrwt>
</event>
<event>
 7    1  0.1330601E-005  0.3008788E+03  0.7546771E-02  0.1092181E+00
          2   -1    0    0  501    0  0.00000000000E+00  0.00000000000E+00  0.38219485506E+03  0.38219485506E+03  0.00000000000E+00 0. -1.
         -2   -1    0    0    0  501 -0.00000000000E+00 -0.00000000000E+00 -0.19673080531E+03  0.19673080531E+03  0.00000000000E+00 0.  1.
         23    2    1    2    0    0 -0.13744020539E+02 -0.22889649850E+03  0.77766381316E+02  0.25935273265E+03  0.92917838676E+02 0.  0.
          5    1    1    2  502    0  0.69369267717E+02  0.12365398516E+03  0.13665290622E+03  0.19697337416E+03  0.47000000000E+01 0. -1.
         -5    1    1    2    0  502 -0.55625247178E+02  0.10524251334E+03 -0.28955237781E+02  0.12259955356E+03  0.47000000000E+01 0.  1.
        -11    1    3    3    0    0 -0.18333171281E+01 -0.22593229512E+03  0.88881818326E+02  0.24279361741E+03  0.00000000000E+00 0. -1.
         11    1    3    3    0    0 -0.11910703410E+02 -0.29642033829E+01 -0.11115437011E+02  0.16559115235E+02  0.00000000000E+00 0.  1.
<mgrwt>
<rscale>  0 0.28651809E+03</rscale>
<asrwt>0</asrwt>
<pdfrwt beam="1">  1        2 0.58799208E-01 0.30087883E+03</pdfrwt>
<pdfrwt beam="2">  1       -2 0.30266278E-01 0.30087883E+03</pdfrwt>
<totfact> 0.84683520E+02</totfact>
</mgrwt>
</event>
<event>
 7    1  0.1330601E-005  0.1347258E+03  0.7546771E-02  0.1232654E+00
          2   -1    0    0  501    0  0.00000000000E+00  0.00000000000E+00  0.28842989769E+03  0.28842989769E+03  0.00000000000E+00 0. -1.
         -2   -1    0    0    0  501 -0.00000000000E+00 -0.00000000000E+00 -0.55270213654E+02  0.55270213654E+02  0.00000000000E+00 0.  1.
         23    2    1    2    0    0  0.49744094736E+02 -0.71774681158E+01  0.15733291249E+03  0.18910148765E+03  0.92085483489E+02 0.  0.
          5    1    1    2  502    0 -0.21968136105E+02 -0.58371950905E+02  0.44018979614E+02  0.76482966879E+02  0.47000000000E+01 0. -1.
         -5    1    1    2    0  502 -0.27775958631E+02  0.65549419021E+02  0.31807791933E+02  0.78115656814E+02  0.47000000000E+01 0. -1.
        -11    1    3    3    0    0  0.50626294873E+02  0.35744101136E+02  0.92086540930E+02  0.11099816899E+03  0.00000000000E+00 0.  1.
         11    1    3    3    0    0 -0.88220013709E+00 -0.42921569252E+02  0.65246371556E+02  0.78103318657E+02  0.00000000000E+00 0. -1.
<mgrwt>
<rscale>  0 0.12655822E+03</rscale>
<asrwt>0</asrwt>
<pdfrwt beam="1">  1        2 0.44373830E-01 0.13472578E+03</pdfrwt>
<pdfrwt beam="2">  1       -2 0.85031099E-02 0.13472578E+03</pdfrwt>
<totfact> 0.92784010E+03</totfact>
</mgrwt>
</event>
<event>
 7    1  0.1330601E-005  0.1257388E+03  0.7546771E-02  0.1244356E+00
         -1   -1    0    0    0  501 -0.00000000000E+00  0.00000000000E+00  0.26598813671E+03  0.26598813671E+03  0.00000000000E+00 0.  1.
          1   -1    0    0  501    0  0.00000000000E+00 -0.00000000000E+00 -0.48659797003E+02  0.48659797003E+02  0.00000000000E+00 0. -1.
         23    2    1    2    0    0 -0.34346136077E+01 -0.44461666161E+02  0.92431823576E+02  0.13742103100E+03  0.91390707532E+02 0.  0.
          5    1    1    2  502    0  0.36707989679E+02  0.65199110630E+02  0.43294899707E+02  0.86573315022E+02  0.47000000000E+01 0. -1.
         -5    1    1    2    0  502 -0.33273376071E+02 -0.20737444469E+02  0.81601616422E+02  0.90653587689E+02  0.47000000000E+01 0.  1.
        -11    1    3    3    0    0 -0.22346307318E+01 -0.72436410810E+02  0.56645959442E+02  0.91982563058E+02  0.00000000000E+00 0.  1.
         11    1    3    3    0    0 -0.11999828760E+01  0.27974744650E+02  0.35785864133E+02  0.45438467942E+02  0.00000000000E+00 0. -1.
<mgrwt>
<rscale>  0 0.11923991E+03</rscale>
<asrwt>0</asrwt>
<pdfrwt beam="2">  1        1 0.74861228E-02 0.12573876E+03</pdfrwt>
<pdfrwt beam="1">  1       -1 0.40921251E-01 0.12573876E+03</pdfrwt>
<totfact> 0.53470772E+03</totfact>
</mgrwt>
</event>
<event>
 6    1  0.1330601E-005  0.1268598E+03  0.7546771E-02  0.1274700E+00
          2   -1    0    0  501    0  0.00000000000E+00  0.00000000000E+00  0.32092760314E+02  0.32092760314E+02  0.00000000000E+00 0.  1.
         -2   -1    0    0    0  501 -0.00000000000E+00 -0.00000000000E+00 -0.32704507563E+03  0.32704507563E+03  0.00000000000E+00 0. -1.
          5    1    1    2  502    0 -0.33012455950E+02 -0.48133534184E+01 -0.10015461629E+02  0.35148116459E+02  0.47000000000E+01 0.  1.
         -5    1    1    2    0  502  0.29679391119E+02  0.26218673710E+02 -0.26172341464E+03  0.26474425561E+03  0.47000000000E+01 0.  1.
        -11    1    1    2    0    0  0.25131143782E+02 -0.54963691496E+01 -0.38054533289E+01  0.26005113663E+02  0.00000000000E+00 0.  1.
         11    1    1    2    0    0 -0.21798078951E+02 -0.15908951142E+02 -0.19407985718E+02  0.33240350209E+02  0.00000000000E+00 0. -1.
<mgrwt>
<rscale>  0 0.10270909E+03</rscale>
<asrwt>0</asrwt>
<pdfrwt beam="1">  1        2 0.49373474E-02 0.12685984E+03</pdfrwt>
<pdfrwt beam="2">  1       -2 0.50314631E-01 0.12685984E+03</pdfrwt>
<totfact> 0.57048281E+03</totfact>
</mgrwt>
</event>
<event>
 7    1  0.1330601E-005  0.1844479E+03  0.7546771E-02  0.1168450E+00
         -1   -1    0    0    0  501 -0.00000000000E+00  0.00000000000E+00  0.38864769808E+03  0.38864769808E+03  0.00000000000E+00 0.  1.
          1   -1    0    0  501    0  0.00000000000E+00 -0.00000000000E+00 -0.79788084023E+02  0.79788084023E+02  0.00000000000E+00 0. -1.
         23    2    1    2    0    0  0.11600929568E+03  0.70268355605E+02  0.11585396075E+03  0.20146721260E+03  0.93654145911E+02 0.  0.
          5    1    1    2  502    0 -0.69171285751E+02 -0.79233335016E+02  0.19207802580E+03  0.21904028430E+03  0.47000000000E+01 0.  1.
         -5    1    1    2    0  502 -0.46838009933E+02  0.89649794106E+01  0.92762751331E+00  0.47928285210E+02  0.47000000000E+01 0.  1.
        -11    1    3    3    0    0  0.33577133158E+01  0.48428829191E+02  0.22336566196E+02  0.53437327075E+02  0.00000000000E+00 0.  1.
         11    1    3    3    0    0  0.11265158237E+03  0.21839526414E+02  0.93517394549E+02  0.14802988552E+03  0.00000000000E+00 0. -1.
<mgrwt>
<rscale>  0 0.17933305E+03</rscale>
<asrwt>0</asrwt>
<pdfrwt beam="2">  1        1 0.12275090E-01 0.18444792E+03</pdfrwt>
<pdfrwt beam="1">  1       -1 0.59791953E-01 0.18444792E+03</pdfrwt>
<totfact> 0.14084611E+03</totfact>
</mgrwt>
</event>
<event>
 7    1  0.1330601E-005  0.2378611E+03  0.7546771E-02  0.1124321E+00
         -1   -1    0    0    0  501 -0.00000000000E+00  0.00000000000E+00  0.43495622049E+03  0.43495622049E+03  0.00000000000E+00 0.  1.
          1   -1    0    0  501    0  0.00000000000E+00 -0.00000000000E+00 -0.12476450966E+03  0.12476450966E+03  0.00000000000E+00 0. -1.
         23    2    1    2    0    0  0.12993074750E+03  0.15514321882E+03  0.98312775259E+02  0.24117622231E+03  0.86885850042E+02 0.  0.
          5    1    1    2  502    0 -0.76511409997E+01  0.17207154932E+02  0.21363499783E+00  0.19410352376E+02  0.47000000000E+01 0.  1.
         -5    1    1    2    0  502 -0.12227960650E+03 -0.17235037375E+03  0.21166530058E+03  0.29913415547E+03  0.47000000000E+01 0.  1.
        -11    1    3    3    0    0  0.66087749604E+02  0.56504319357E+02  0.87219422238E+02  0.12315663348E+03  0.00000000000E+00 0.  1.
         11    1    3    3    0    0  0.63842997897E+02  0.98638899461E+02  0.11093353021E+02  0.11801958883E+03  0.00000000000E+00 0. -1.
<mgrwt>
<rscale>  0 0.23332484E+03</rscale>
<asrwt>0</asrwt>
<pdfrwt beam="2">  1        1 0.19194540E-01 0.23786114E+03</pdfrwt>
<pdfrwt beam="1">  1       -1 0.66916341E-01 0.23786114E+03</pdfrwt>
<totfact> 0.63302387E+02</totfact>
</mgrwt>
</event>
<event>
 7    1  0.1330601E-005  0.3564855E+03  0.7546771E-02  0.1059984E+00
          2   -1    0    0  501    0  0.00000000000E+00  0.00000000000E+00  0.11571995306E+04  0.11571995306E+04  0.00000000000E+00 0. -1.
         -2   -1    0    0    0  501 -0.00000000000E+00 -0.00000000000E+00 -0.27454631354E+02  0.27454631354E+02  0.00000000000E+00 0.  1.
         23    2    1    2    0    0  0.71095454128E+02 -0.34435308339E+02  0.55479271602E+03  0.56770261623E+03  0.90834732692E+02 0.  0.
          5    1    1    2  502    0 -0.14212336168E+03  0.49132034777E+02  0.36586930998E+03  0.39559505654E+03  0.47000000000E+01 0. -1.
         -5    1    1    2    0  502  0.71027907554E+02 -0.14696726438E+02  0.20908287328E+03  0.22135648922E+03  0.47000000000E+01 0.  1.
        -11    1    3    3    0    0  0.65777382571E+02  0.16430335645E+02  0.35864816451E+03  0.36500017245E+03  0.00000000000E+00 0.  1.
         11    1    3    3    0    0  0.53180715571E+01 -0.50865643984E+02  0.19614455152E+03  0.20270244378E+03  0.00000000000E+00 0. -1.
<mgrwt>
<rscale>  0 0.35648555E+03</rscale>
<asrwt>0</asrwt>
<pdfrwt beam="1">  1        2 0.17803066E+00 0.35648555E+03</pdfrwt>
<pdfrwt beam="2">  1       -2 0.42237903E-02 0.35648555E+03</pdfrwt>
<totfact> 0.53742671E+03</totfact>
</mgrwt>
</event>
<event>
 7    1  0.1330601E-005  0.1532158E+03  0.7546771E-02  0.1204892E+00
         -3   -1    0    0    0  501 -0.00000000000E+00  0.00000000000E+00  0.38926367702E+03  0.38926367702E+03  0.00000000000E+00 0.  1.
          3   -1    0    0  501    0  0.00000000000E+00 -0.00000000000E+00 -0.53346339526E+02  0.53346339526E+02  0.00000000000E+00 0. -1.
         23    2    1    2    0    0  0.88227520693E+02  0.80283556660E+01  0.10507535215E+03  0.16554846253E+03  0.92287127570E+02 0.  0.
          5    1    1    2  502    0  0.97280062361E+01  0.25918429222E+02  0.12768490575E+03  0.13073608620E+03  0.47000000000E+01 0. -1.
         -5    1    1    2    0  502 -0.97955526929E+02 -0.33946784888E+02  0.10315707959E+03  0.14632546781E+03  0.47000000000E+01 0. -1.
        -11    1    3    3    0    0  0.59406147044E+02 -0.39591949565E+02  0.68538783632E+02  0.98965537632E+02  0.00000000000E+00 0.  1.
         11    1    3    3    0    0  0.28821373648E+02  0.47620305231E+02  0.36536568514E+02  0.66582924898E+02  0.00000000000E+00 0. -1.
<mgrwt>
<rscale>  0 0.14645989E+03</rscale>
<asrwt>0</asrwt>
<pdfrwt beam="2">  1        3 0.82071294E-02 0.15321580E+03</pdfrwt>
<pdfrwt beam="1">  1       -3 0.59886718E-01 0.15321580E+03</pdfrwt>
<totfact> 0.66585467E+02</totfact>
</mgrwt>
</event>
<event>
 7    1  0.1330601E-005  0.1297386E+03  0.7546771E-02  0.1241212E+00
         -3   -1    0    0    0  501 -0.00000000000E+00  0.00000000000E+00  0.18344720146E+03  0.18344720146E+03  0.00000000000E+00 0.  1.
          3   -1    0    0  501    0  0.00000000000E+00 -0.00000000000E+00 -0.83390558440E+02  0.83390558440E+02  0.00000000000E+00 0. -1.
         23    2    1    2    0    0  0.34365636168E+02  0.51769666447E+01 -0.66266087363E+01  0.98869244805E+02  0.92322357488E+02 0.  0.
          5    1    1    2  502    0 -0.26003723432E+02 -0.60371407725E+02  0.28533470595E+02  0.71813295755E+02  0.47000000000E+01 0. -1.
         -5    1    1    2    0  502 -0.83619127355E+01  0.55194441080E+02  0.78149781158E+02  0.96155219337E+02  0.47000000000E+01 0. -1.
        -11    1    3    3    0    0  0.23414182287E+02 -0.43149257776E+02 -0.36678081758E+01  0.49229413927E+02  0.00000000000E+00 0.  1.
         11    1    3    3    0    0  0.10951453880E+02  0.48326224420E+02 -0.29588005605E+01  0.49639830878E+02  0.00000000000E+00 0. -1.
<mgrwt>
<rscale>  0 0.12114983E+03</rscale>
<asrwt>0</asrwt>
<pdfrwt beam="2">  1        3 0.12829317E-01 0.12973861E+03</pdfrwt>
<pdfrwt beam="1">  1       -3 0.28222646E-01 0.12973861E+03</pdfrwt>
<totfact> 0.13319296E+03</totfact>
</mgrwt>
</event>
<event>
 7    1  0.1330601E-005  0.1281785E+03  0.7546771E-02  0.1247920E+00
         -3   -1    0    0    0  501 -0.00000000000E+00  0.00000000000E+00  0.34808366714E+02  0.34808366714E+02  0.00000000000E+00 0.  1.
          3   -1    0    0  501    0  0.00000000000E+00 -0.00000000000E+00 -0.36603786133E+03  0.36603786133E+03  0.00000000000E+00 0. -1.
         23    2    1    2    0    0 -0.15194914917E+01 -0.14652350021E+01 -0.19096026156E+03  0.21083256986E+03  0.89331378879E+02 0.  0.
          5    1    1    2  502    0 -0.37280662075E+02 -0.50384446554E+02 -0.61549083644E+02  0.87970562785E+02  0.47000000000E+01 0. -1.
         -5    1    1    2    0  502  0.38800153567E+02  0.51849681556E+02 -0.78720149413E+02  0.10204309540E+03  0.47000000000E+01 0.  1.
        -11    1    3    3    0    0 -0.74624774976E+01 -0.36570718962E+02 -0.15788014071E+03  0.16223207108E+03  0.00000000000E+00 0. -1.
         11    1    3    3    0    0  0.59429860059E+01  0.35105483960E+02 -0.33080120848E+02  0.48600498784E+02  0.00000000000E+00 0.  1.
<mgrwt>
<rscale>  0 0.11712315E+03</rscale>
<asrwt>0</asrwt>
<pdfrwt beam="2">  1        3 0.56313512E-01 0.12817852E+03</pdfrwt>
<pdfrwt beam="1">  1       -3 0.53551338E-02 0.12817852E+03</pdfrwt>
<totfact> 0.14608146E+03</totfact>
</mgrwt>
</event>
<event>
 7    1  0.1330601E-005  0.1996340E+03  0.7546771E-02  0.1153976E+00
         -2   -1    0    0    0  501 -0.00000000000E+00  0.00000000000E+00  0.14057552247E+03  0.14057552247E+03  0.00000000000E+00 0.  1.
          2   -1    0    0  501    0  0.00000000000E+00 -0.00000000000E+00 -0.30414047456E+03  0.30414047456E+03  0.00000000000E+00 0. -1.
         23    2    1    2    0    0 -0.11062851074E+02  0.15526211400E+03 -0.16418843003E+03  0.24508100094E+03  0.94223912816E+02 0.  0.
          5    1    1    2  502    0 -0.49922310513E+02 -0.69287747645E+02 -0.28543078727E+02  0.90165549984E+02  0.47000000000E+01 0.  1.
         -5    1    1    2    0  502  0.60985161587E+02 -0.85974366358E+02  0.29166556659E+02  0.10946944611E+03  0.47000000000E+01 0.  1.
        -11    1    3    3    0    0  0.12041286341E+02  0.10118591774E+03 -0.43436549802E+02  0.11077146015E+03  0.00000000000E+00 0. -1.
         11    1    3    3    0    0 -0.23104137415E+02  0.54076196267E+02 -0.12075188023E+03  0.13430954079E+03  0.00000000000E+00 0.  1.
<mgrwt>
<rscale>  0 0.19505885E+03</rscale>
<asrwt>0</asrwt>
<pdfrwt beam="2">  1        2 0.46790842E-01 0.19963402E+03</pdfrwt>
<pdfrwt beam="1">  1       -2 0.21627004E-01 0.19963402E+03</pdfrwt>
<totfact> 0.19562403E+03</totfact>
</mgrwt>
</event>
<event>
 7    1  0.1330601E-005  0.1828677E+03  0.7546771E-02  0.1169911E+00
          2   -1    0    0  501    0  0.00000000000E+00  0.00000000000E+00  0.58691401634E+02  0.58691401634E+02  0.00000000000E+00 0. -1.
         -2   -1    0    0    0  501 -0.00000000000E+00 -0.00000000000E+00 -0.51168798037E+03  0.51168798037E+03  0.00000000000E+00 0.  1.
         23    2    1    2    0    0  0.52533595419E+02  0.12270433696E+03 -0.20526325305E+03  0.26246319286E+03  0.94539894212E+02 0.  0.
          5    1    1    2  502    0  0.67505969734E+01 -0.11471538638E+03 -0.11695830433E+03  0.16403208644E+03  0.47000000000E+01 0. -1.
         -5    1    1    2    0  502 -0.59284192392E+02 -0.79889505871E+01 -0.13077502135E+03  0.14388410269E+03  0.47000000000E+01 0. -1.
        -11    1    3    3    0    0 -0.10525431672E+01  0.76297328319E+02 -0.16288985394E+03  0.17987633161E+03  0.00000000000E+00 0.  1.
         11    1    3    3    0    0  0.53586138586E+02  0.46407008643E+02 -0.42373399110E+02  0.82586861255E+02  0.00000000000E+00 0. -1.
<mgrwt>
<rscale>  0 0.17783863E+03</rscale>
<asrwt>0</asrwt>
<pdfrwt beam="1">  1        2 0.90294462E-02 0.18286765E+03</pdfrwt>
<pdfrwt beam="2">  1       -2 0.78721230E-01 0.18286765E+03</pdfrwt>
<totfact> 0.10607294E+03</totfact>
</mgrwt>
</event>
<event>
 7    1  0.1330601E-005  0.1280220E+03  0.7546771E-02  0.1245096E+00
          2   -1    0    0  501    0  0.00000000000E+00  0.00000000000E+00  0.69819182036E+03  0.69819182036E+03  0.00000000000E+00 0.  1.
         -2   -1    0    0    0  501 -0.00000000000E+00 -0.00000000000E+00 -0.17824256078E+02  0.17824256078E+02  0.00000000000E+00 0. -1.
         23    2    1    2    0    0 -0.53159926561E+01  0.27150205273E+02  0.27594916843E+03  0.29181816233E+03  0.90799244974E+02 0.  0.
          5    1    1    2  502    0 -0.52827206832E+02  0.14408785602E+02  0.14472487610E+03  0.15480861296E+03  0.47000000000E+01 0. -1.
         -5    1    1    2    0  502  0.58143199488E+02 -0.41558990875E+02  0.25969351975E+03  0.26938930114E+03  0.47000000000E+01 0. -1.
        -11    1    3    3    0    0  0.28346359668E+02  0.35559364914E+02  0.73598214644E+02  0.86514055149E+02  0.00000000000E+00 0. -1.
         11    1    3    3    0    0 -0.33662352325E+02 -0.84091596406E+01  0.20235095378E+03  0.20530410718E+03  0.00000000000E+00 0.  1.
<mgrwt>
<rscale>  0 0.11879644E+03</rscale>
<asrwt>0</asrwt>
<pdfrwt beam="1">  1        2 0.10741411E+00 0.12802200E+03</pdfrwt>
<pdfrwt beam="2">  1       -2 0.27421938E-02 0.12802200E+03</pdfrwt>
<totfact> 0.19201851E+04</totfact>
</mgrwt>
</event>
<event>
 7    1  0.1330601E-005  0.1555805E+03  0.7546771E-02  0.1200903E+00
         -1   -1    0    0    0  501 -0.00000000000E+00  0.00000000000E+00  0.11002368584E+03  0.11002368584E+03  0.00000000000E+00 0.  1.
          1   -1    0    0  501    0  0.00000000000E+00 -0.00000000000E+00 -0.18953279066E+03  0.18953279066E+03  0.00000000000E+00 0. -1.
         23    2    1    2    0    0  0.20590061289E+02 -0.90315200351E+02 -0.33947353722E+02  0.13744182368E+03  0.95692455465E+02 0.  0.
          5    1    1    2  502    0  0.26817625151E+02  0.20365790678E+02  0.32459353007E+02  0.47006914878E+02  0.47000000000E+01 0.  1.
         -5    1    1    2    0  502 -0.47407686439E+02  0.69949409673E+02 -0.78021104112E+02  0.11510773794E+03  0.47000000000E+01 0.  1.
        -11    1    3    3    0    0 -0.26874527125E+02 -0.32089151768E+02  0.18562612316E+02  0.45787819837E+02  0.00000000000E+00 0.  1.
         11    1    3    3    0    0  0.47464588414E+02 -0.58226048583E+02 -0.52509966038E+02  0.91654003841E+02  0.00000000000E+00 0. -1.
<mgrwt>
<rscale>  0 0.14965075E+03</rscale>
<asrwt>0</asrwt>
<pdfrwt beam="2">  1        1 0.29158891E-01 0.15558049E+03</pdfrwt>
<pdfrwt beam="1">  1       -1 0.16926721E-01 0.15558049E+03</pdfrwt>
<totfact> 0.40231293E+03</totfact>
</mgrwt>
</event>
<event>
 7    1  0.1330601E-005  0.2028089E+03  0.7546771E-02  0.1151419E+00
          1   -1    0    0  501    0  0.00000000000E+00  0.00000000000E+00  0.52092772539E+03  0.52092772539E+03  0.00000000000E+00 0. -1.
         -1   -1    0    0    0  501 -0.00000000000E+00 -0.00000000000E+00 -0.71943013965E+02  0.71943013965E+02  0.00000000000E+00 0.  1.
         23    2    1    2    0    0 -0.15832600139E+03  0.20979156120E+02  0.20935233919E+03  0.27893580870E+03  0.92030080651E+02 0.  0.
          5    1    1    2  502    0  0.11029294143E+03 -0.54937361542E+02  0.88757085151E+02  0.15192944674E+03  0.47000000000E+01 0.  1.
         -5    1    1    2    0  502  0.48033059955E+02  0.33958205422E+02  0.15087528708E+03  0.16200548391E+03  0.47000000000E+01 0.  1.
        -11    1    3    3    0    0 -0.20976522565E+02  0.39022348208E+02  0.36363452718E+02  0.57315432931E+02  0.00000000000E+00 0. -1.
         11    1    3    3    0    0 -0.13734947882E+03 -0.18043192087E+02  0.17298888647E+03  0.22162037577E+03  0.00000000000E+00 0.  1.
<mgrwt>
<rscale>  0 0.19802185E+03</rscale>
<asrwt>0</asrwt>
<pdfrwt beam="1">  1        1 0.80142725E-01 0.20280894E+03</pdfrwt>
<pdfrwt beam="2">  1       -1 0.11068156E-01 0.20280894E+03</pdfrwt>
<totfact> 0.22037904E+03</totfact>
</mgrwt>
</event>
<event>
 7    1  0.1330601E-005  0.2163879E+03  0.7546771E-02  0.1140188E+00
         -2   -1    0    0    0  501 -0.00000000000E+00  0.00000000000E+00  0.40872760943E+02  0.40872760943E+02  0.00000000000E+00 0.  1.
          2   -1    0    0  501    0  0.00000000000E+00 -0.00000000000E+00 -0.12284859326E+04  0.12284859326E+04  0.00000000000E+00 0. -1.
         23    2    1    2    0    0 -0.14470271035E+03  0.10130586258E+03 -0.81183142337E+03  0.83572793985E+03  0.90383501307E+02 0.  0.
          5    1    1    2  502    0  0.63819456454E+02 -0.58089791674E+02 -0.30691304730E+03  0.31884958134E+03  0.47000000000E+01 0.  1.
         -5    1    1    2    0  502  0.80883253898E+02 -0.43216070906E+02 -0.68868700945E+02  0.11478117230E+03  0.47000000000E+01 0.  1.
        -11    1    3    3    0    0 -0.44163274592E+02  0.86036292871E+02 -0.38983860586E+03  0.40165504743E+03  0.00000000000E+00 0.  1.
         11    1    3    3    0    0 -0.10053943576E+03  0.15269569710E+02 -0.42199281751E+03  0.43407289242E+03  0.00000000000E+00 0. -1.
<mgrwt>
<rscale>  0 0.21174913E+03</rscale>
<asrwt>0</asrwt>
<pdfrwt beam="2">  1        2 0.18899784E+00 0.21638787E+03</pdfrwt>
<pdfrwt beam="1">  1       -2 0.62881168E-02 0.21638787E+03</pdfrwt>
<totfact> 0.26436594E+03</totfact>
</mgrwt>
</event>
<event>
 7    1  0.1330601E-005  0.2319997E+03  0.7546771E-02  0.1128230E+00
          2   -1    0    0  501    0  0.00000000000E+00  0.00000000000E+00  0.14447193910E+03  0.14447193910E+03  0.00000000000E+00 0.  1.
         -2   -1    0    0    0  501 -0.00000000000E+00 -0.00000000000E+00 -0.35339050263E+03  0.35339050263E+03  0.00000000000E+00 0. -1.
         23    2    1    2    0    0 -0.15505432538E+03 -0.11898214203E+03 -0.65938736447E+02  0.22534257797E+03  0.90734593952E+02 0.  0.
          5    1    1    2  502    0  0.79251039676E+02  0.92862452216E+02 -0.14816319834E+03  0.19203797974E+03  0.47000000000E+01 0. -1.
         -5    1    1    2    0  502  0.75803285705E+02  0.26119689811E+02  0.51833712545E+01  0.80481884031E+02  0.47000000000E+01 0. -1.
        -11    1    3    3    0    0  0.11168029131E+02 -0.97552718240E+00 -0.66917877091E+01  0.13055900991E+02  0.00000000000E+00 0.  1.
         11    1    3    3    0    0 -0.16622235451E+03 -0.11800661484E+03 -0.59246948738E+02  0.21228667698E+03  0.00000000000E+00 0. -1.
<mgrwt>
<rscale>  0 0.22775449E+03</rscale>
<asrwt>0</asrwt>
<pdfrwt beam="1">  1        2 0.22226453E-01 0.23199967E+03</pdfrwt>
<pdfrwt beam="2">  1       -2 0.54367769E-01 0.23199967E+03</pdfrwt>
<totfact> 0.79597738E+02</totfact>
</mgrwt>
</event>
<event>
 7    1  0.1330601E-005  0.1520848E+03  0.7546771E-02  0.1207170E+00
         -1   -1    0    0    0  501 -0.00000000000E+00  0.00000000000E+00  0.77370276592E+02  0.77370276592E+02  0.00000000000E+00 0.  1.
          1   -1    0    0  501    0  0.00000000000E+00 -0.00000000000E+00 -0.24780636387E+03  0.24780636387E+03  0.00000000000E+00 0. -1.
         23    2    1    2    0    0  0.85303508546E+02 -0.15125484444E+02 -0.84221244957E+02  0.15035449650E+03  0.89486242892E+02 0.  0.
          5    1    1    2  502    0 -0.10516336217E+03  0.46132372105E+02 -0.66679402520E+02  0.13287498342E+03  0.47000000000E+01 0.  1.
         -5    1    1    2    0  502  0.19859853627E+02 -0.31006887661E+02 -0.19535439799E+02  0.41947160532E+02  0.47000000000E+01 0.  1.
        -11    1    3    3    0    0  0.54637779446E+02  0.32922625260E+02 -0.26027200776E+02  0.68895583146E+02  0.00000000000E+00 0.  1.
         11    1    3    3    0    0  0.30665729100E+02 -0.48048109703E+02 -0.58194044181E+02  0.81458913358E+02  0.00000000000E+00 0. -1.
<mgrwt>
<rscale>  0 0.14467790E+03</rscale>
<asrwt>0</asrwt>
<pdfrwt beam="2">  1        1 0.38124056E-01 0.15208479E+03</pdfrwt>
<pdfrwt beam="1">  1       -1 0.11903120E-01 0.15208479E+03</pdfrwt>
<totfact> 0.49952381E+03</totfact>
</mgrwt>
</event>
<event>
 7    1  0.1330601E-005  0.1427529E+03  0.7546771E-02  0.1218562E+00
          2   -1    0    0  501    0  0.00000000000E+00  0.00000000000E+00  0.82851105550E+03  0.82851105550E+03  0.00000000000E+00 0. -1.
         -2   -1    0    0    0  501 -0.00000000000E+00 -0.00000000000E+00 -0.24783084166E+02  0.24783084166E+02  0.00000000000E+00 0.  1.
         23    2    1    2    0    0 -0.68679720060E+02 -0.60595356205E+01  0.54618574611E+03  0.55883466704E+03  0.96040064085E+02 0.  0.
          5    1    1    2  502    0  0.82337715255E+02 -0.49849903267E+01  0.26284048010E+03  0.27552052094E+03  0.47000000000E+01 0.  1.
         -5    1    1    2    0  502 -0.13657995195E+02  0.11044525947E+02 -0.52982548770E+01  0.18938951684E+02  0.47000000000E+01 0.  1.
        -11    1    3    3    0    0 -0.19897280725E+02  0.43887184962E+02  0.24004145873E+03  0.24483032634E+03  0.00000000000E+00 0.  1.
         11    1    3    3    0    0 -0.48782439335E+02 -0.49946720582E+02  0.30614428738E+03  0.31400434070E+03  0.00000000000E+00 0. -1.
<mgrwt>
<rscale>  0 0.13618103E+03</rscale>
<asrwt>0</asrwt>
<pdfrwt beam="1">  1        2 0.12746322E+00 0.14275287E+03</pdfrwt>
<pdfrwt beam="2">  1       -2 0.38127828E-02 0.14275287E+03</pdfrwt>
<totfact> 0.96583765E+03</totfact>
</mgrwt>
</event>
<event>
 7    1  0.1330601E-005  0.1401146E+03  0.7546771E-02  0.1225418E+00
          2   -1    0    0  501    0  0.00000000000E+00  0.00000000000E+00  0.12261339923E+03  0.12261339923E+03  0.00000000000E+00 0.  1.
         -2   -1    0    0    0  501 -0.00000000000E+00 -0.00000000000E+00 -0.13479550255E+03  0.13479550255E+03  0.00000000000E+00 0. -1.
         23    2    1    2    0    0 -0.49767050010E+02 -0.39104519787E+02  0.27553786449E+02  0.11176883455E+03  0.87904143781E+02 0.  0.
          5    1    1    2  502    0  0.43225804075E+02 -0.40698622018E+02 -0.11860732237E+02  0.60725735412E+02  0.47000000000E+01 0.  1.
         -5    1    1    2    0  502  0.65412459346E+01  0.79803141805E+02 -0.27875157535E+02  0.84914331817E+02  0.47000000000E+01 0.  1.
        -11    1    3    3    0    0 -0.11005486724E+00 -0.43515516685E+02  0.41364567904E+02  0.60038652403E+02  0.00000000000E+00 0.  1.
         11    1    3    3    0    0 -0.49656995143E+02  0.44109968984E+01 -0.13810781455E+02  0.51730182144E+02  0.00000000000E+00 0. -1.
<mgrwt>
<rscale>  0 0.13138290E+03</rscale>
<asrwt>0</asrwt>
<pdfrwt beam="1">  1        2 0.18863600E-01 0.14011455E+03</pdfrwt>
<pdfrwt beam="2">  1       -2 0.20737770E-01 0.14011455E+03</pdfrwt>
<totfact> 0.55950051E+03</totfact>
</mgrwt>
</event>
<event>
 7    1  0.1330601E-005  0.1800487E+03  0.7546771E-02  0.1173555E+00
          1   -1    0    0  501    0  0.00000000000E+00  0.00000000000E+00  0.82558793941E+03  0.82558793941E+03  0.00000000000E+00 0. -1.
         -1   -1    0    0    0  501 -0.00000000000E+00 -0.00000000000E+00 -0.34725736970E+02  0.34725736970E+02  0.00000000000E+00 0.  1.
         23    2    1    2    0    0  0.11499862847E+03  0.59740050243E+02  0.40043842661E+03  0.43037385304E+03  0.89873031116E+02 0.  0.
          5    1    1    2  502    0 -0.91224299721E+02 -0.45101150042E+02  0.38841907512E+03  0.40155629059E+03  0.47000000000E+01 0. -1.
         -5    1    1    2    0  502 -0.23774328747E+02 -0.14638900201E+02  0.20047007096E+01  0.28383532750E+02  0.47000000000E+01 0. -1.
        -11    1    3    3    0    0  0.57711617651E+02  0.55883425096E+02  0.12197776473E+03  0.14605534259E+03  0.00000000000E+00 0.  1.
         11    1    3    3    0    0  0.57287010816E+02  0.38566251474E+01  0.27846066189E+03  0.28431851045E+03  0.00000000000E+00 0. -1.
<mgrwt>
<rscale>  0 0.17418209E+03</rscale>
<asrwt>0</asrwt>
<pdfrwt beam="1">  1        1 0.12701351E+00 0.18004868E+03</pdfrwt>
<pdfrwt beam="2">  1       -1 0.53424217E-02 0.18004868E+03</pdfrwt>
<totfact> 0.34504360E+03</totfact>
</mgrwt>
</event>
<event>
 7    1  0.1330601E-005  0.1315968E+03  0.7546771E-02  0.1238475E+00
         -1   -1    0    0    0  501 -0.00000000000E+00  0.00000000000E+00  0.25863576853E+03  0.25863576853E+03  0.00000000000E+00 0.  1.
          1   -1    0    0  501    0  0.00000000000E+00 -0.00000000000E+00 -0.52419882736E+02  0.52419882736E+02  0.00000000000E+00 0. -1.
         23    2    1    2    0    0 -0.87987981442E+01 -0.40191344975E+02  0.10571000970E+03  0.14546834370E+03  0.91069587726E+02 0.  0.
          5    1    1    2  502    0 -0.46883646737E+02  0.11301473690E+02  0.17362559982E+01  0.48486124034E+02  0.47000000000E+01 0.  1.
         -5    1    1    2    0  502  0.55682444881E+02  0.28889871284E+02  0.98769620096E+02  0.11710118353E+03  0.47000000000E+01 0.  1.
        -11    1    3    3    0    0 -0.16832292215E+02  0.18375698479E+01  0.10101210877E+03  0.10242142765E+03  0.00000000000E+00 0.  1.
         11    1    3    3    0    0  0.80334940708E+01 -0.42028914823E+02  0.46979009300E+01  0.43046916049E+02  0.00000000000E+00 0. -1.
<mgrwt>
<rscale>  0 0.12284581E+03</rscale>
<asrwt>0</asrwt>
<pdfrwt beam="2">  1        1 0.80645975E-02 0.13159683E+03</pdfrwt>
<pdfrwt beam="1">  1       -1 0.39790118E-01 0.13159683E+03</pdfrwt>
<totfact> 0.50994042E+03</totfact>
</mgrwt>
</event>
<event>
 7    1  0.1330601E-005  0.1324554E+03  0.7546771E-02  0.1232307E+00
         -2   -1    0    0    0  501 -0.00000000000E+00  0.00000000000E+00  0.18332540664E+02  0.18332540664E+02  0.00000000000E+00 0.  1.
          2   -1    0    0  501    0  0.00000000000E+00 -0.00000000000E+00 -0.81074622330E+03  0.81074622330E+03  0.00000000000E+00 0. -1.
         23    2    1    2    0    0 -0.42647329908E+02 -0.99870056774E+01 -0.37778063713E+03  0.39380300831E+03  0.10219620607E+03 0.  0.
          5    1    1    2  502    0 -0.18265237693E+01  0.55560668340E+02 -0.28913750405E+03  0.29447055931E+03  0.47000000000E+01 0. -1.
         -5    1    1    2    0  502  0.44473853677E+02 -0.45573662663E+02 -0.12549554146E+03  0.14080519633E+03  0.47000000000E+01 0. -1.
        -11    1    3    3    0    0 -0.73139314229E+02 -0.20900074399E+02 -0.30118155142E+03  0.31063885673E+03  0.00000000000E+00 0.  1.
         11    1    3    3    0    0  0.30491984321E+02  0.10913068722E+02 -0.76599085707E+02  0.83164151579E+02  0.00000000000E+00 0. -1.
<mgrwt>
<rscale>  0 0.12678441E+03</rscale>
<asrwt>0</asrwt>
<pdfrwt beam="2">  1        2 0.12473020E+00 0.13245535E+03</pdfrwt>
<pdfrwt beam="1">  1       -2 0.28203906E-02 0.13245535E+03</pdfrwt>
<totfact> 0.15409115E+04</totfact>
</mgrwt>
</event>
<event>
 7    1  0.1330601E-005  0.1350376E+03  0.7546771E-02  0.1227196E+00
          2   -1    0    0  501    0  0.00000000000E+00  0.00000000000E+00  0.21097176153E+03  0.21097176153E+03  0.00000000000E+00 0. -1.
         -2   -1    0    0    0  501 -0.00000000000E+00 -0.00000000000E+00 -0.83221060853E+02  0.83221060853E+02  0.00000000000E+00 0.  1.
         23    2    1    2    0    0  0.72706582658E+01  0.72868632348E+02  0.10565669511E+03  0.15735975437E+03  0.90752713580E+02 0.  0.
          5    1    1    2  502    0 -0.46384772714E+02 -0.44188492826E+02  0.49345245794E+02  0.81001316782E+02  0.47000000000E+01 0. -1.
         -5    1    1    2    0  502  0.39114114448E+02 -0.28680139522E+02 -0.27251240222E+02  0.55831751233E+02  0.47000000000E+01 0.  1.
        -11    1    3    3    0    0 -0.39985954557E+02  0.17054836431E+02  0.38396723295E+02  0.58000451441E+02  0.00000000000E+00 0. -1.
         11    1    3    3    0    0  0.47256612823E+02  0.55813795917E+02  0.67259971811E+02  0.99359302928E+02  0.00000000000E+00 0.  1.
<mgrwt>
<rscale>  0 0.13017523E+03</rscale>
<asrwt>0</asrwt>
<pdfrwt beam="1">  1        2 0.32457194E-01 0.13503756E+03</pdfrwt>
<pdfrwt beam="2">  1       -2 0.12803240E-01 0.13503756E+03</pdfrwt>
<totfact> 0.67924410E+03</totfact>
</mgrwt>
</event>
<event>
 7    1  0.1330601E-005  0.1325665E+03  0.7546771E-02  0.1236813E+00
         -2   -1    0    0    0  501 -0.00000000000E+00  0.00000000000E+00  0.19493191359E+02  0.19493191359E+02  0.00000000000E+00 0.  1.
          2   -1    0    0  501    0  0.00000000000E+00 -0.00000000000E+00 -0.70251552207E+03  0.70251552207E+03  0.00000000000E+00 0. -1.
         23    2    1    2    0    0 -0.44144826466E+02 -0.30109111432E+00 -0.31539049456E+03  0.33120562779E+03  0.90978829733E+02 0.  0.
          5    1    1    2  502    0  0.76679599650E+02  0.33025104654E+02 -0.27113847459E+03  0.28374034071E+03  0.47000000000E+01 0.  1.
         -5    1    1    2    0  502 -0.32534773185E+02 -0.32724013540E+02 -0.96493361560E+02  0.10706274494E+03  0.47000000000E+01 0.  1.
        -11    1    3    3    0    0 -0.70857413802E+02 -0.54716497848E+01 -0.18900901892E+03  0.20192850535E+03  0.00000000000E+00 0.  1.
         11    1    3    3    0    0  0.26712587336E+02  0.51705586705E+01 -0.12638147565E+03  0.12927712244E+03  0.00000000000E+00 0. -1.
<mgrwt>
<rscale>  0 0.12389069E+03</rscale>
<asrwt>0</asrwt>
<pdfrwt beam="2">  1        2 0.10807931E+00 0.13256653E+03</pdfrwt>
<pdfrwt beam="1">  1       -2 0.29989524E-02 0.13256653E+03</pdfrwt>
<totfact> 0.16764920E+04</totfact>
</mgrwt>
</event>
<event>
 7    1  0.1330601E-005  0.1374048E+03  0.7546771E-02  0.1229144E+00
          1   -1    0    0  501    0  0.00000000000E+00  0.00000000000E+00  0.98821708821E+03  0.98821708821E+03  0.00000000000E+00 0. -1.
         -1   -1    0    0    0  501 -0.00000000000E+00 -0.00000000000E+00 -0.16832236745E+02  0.16832236745E+02  0.00000000000E+00 0.  1.
         23    2    1    2    0    0  0.56546915302E+02 -0.75501047224E+01  0.59376630125E+03  0.60320876278E+03  0.89709716793E+02 0.  0.
          5    1    1    2  502    0  0.55136612157E+01  0.57180044887E+02  0.16834639816E+03  0.17793975882E+03  0.47000000000E+01 0. -1.
         -5    1    1    2    0  502 -0.62060576518E+02 -0.49629940165E+02  0.20927215205E+03  0.22390080336E+03  0.47000000000E+01 0. -1.
        -11    1    3    3    0    0  0.18919206718E+02 -0.47478914896E+02  0.26240271588E+03  0.26733381575E+03  0.00000000000E+00 0.  1.
         11    1    3    3    0    0  0.37627708584E+02  0.39928810173E+02  0.33136358537E+03  0.33587494703E+03  0.00000000000E+00 0. -1.
<mgrwt>
<rscale>  0 0.12886875E+03</rscale>
<asrwt>0</asrwt>
<pdfrwt beam="1">  1        1 0.15203335E+00 0.13740476E+03</pdfrwt>
<pdfrwt beam="2">  1       -1 0.25895757E-02 0.13740476E+03</pdfrwt>
<totfact> 0.74220535E+03</totfact>
</mgrwt>
</event>
<event>
 7    1  0.1330601E-005  0.1540746E+03  0.7546771E-02  0.1204231E+00
         -2   -1    0    0    0  501 -0.00000000000E+00  0.00000000000E+00  0.45048464459E+02  0.45048464459E+02  0.00000000000E+00 0.  1.
          2   -1    0    0  501    0  0.00000000000E+00 -0.00000000000E+00 -0.44833754585E+03  0.44833754585E+03  0.00000000000E+00 0. -1.
         23    2    1    2    0    0  0.47539727393E+02  0.76494875083E+02 -0.15018695492E+03  0.19707593174E+03  0.90395297719E+02 0.  0.
          5    1    1    2  502    0 -0.74139393264E+01 -0.10192123348E+03 -0.20171475370E+03  0.22617213840E+03  0.47000000000E+01 0.  1.
         -5    1    1    2    0  502 -0.40125788067E+02  0.25426358400E+02 -0.51387372774E+02  0.70137940161E+02  0.47000000000E+01 0.  1.
        -11    1    3    3    0    0  0.11277699501E+01  0.55981735942E+02 -0.23722490779E+02  0.60811044991E+02  0.00000000000E+00 0.  1.
         11    1    3    3    0    0  0.46411957443E+02  0.20513139141E+02 -0.12646446414E+03  0.13626488675E+03  0.00000000000E+00 0. -1.
<mgrwt>
<rscale>  0 0.14698208E+03</rscale>
<asrwt>0</asrwt>
<pdfrwt beam="2">  1        2 0.68975008E-01 0.15407458E+03</pdfrwt>
<pdfrwt beam="1">  1       -2 0.69305329E-02 0.15407458E+03</pdfrwt>
<totfact> 0.80140987E+03</totfact>
</mgrwt>
</event>
<event>
 7    1  0.1330601E-005  0.1327649E+03  0.7546771E-02  0.1236376E+00
          3   -1    0    0  501    0  0.00000000000E+00  0.00000000000E+00  0.24940069930E+02  0.24940069930E+02  0.00000000000E+00 0. -1.
         -3   -1    0    0    0  501 -0.00000000000E+00 -0.00000000000E+00 -0.55850171059E+03  0.55850171059E+03  0.00000000000E+00 0.  1.
         23    2    1    2    0    0 -0.28016844728E+01  0.46347917047E+02 -0.19709627776E+03  0.22172992828E+03  0.90339579023E+02 0.  0.
          5    1    1    2  502    0 -0.58530799853E+02 -0.58048276668E+01 -0.15619991764E+03  0.16697321590E+03  0.47000000000E+01 0. -1.
         -5    1    1    2    0  502  0.61332484326E+02 -0.40543089380E+02 -0.18026544526E+03  0.19473863634E+03  0.47000000000E+01 0.  1.
        -11    1    3    3    0    0 -0.36302179049E+02  0.94418767444E+01 -0.32101906821E+02  0.49371344540E+02  0.00000000000E+00 0.  1.
         11    1    3    3    0    0  0.33500494576E+02  0.36906040303E+02 -0.16499437093E+03  0.17235858374E+03  0.00000000000E+00 0. -1.
<mgrwt>
<rscale>  0 0.12416747E+03</rscale>
<asrwt>0</asrwt>
<pdfrwt beam="1">  1        3 0.38369338E-02 0.13276492E+03</pdfrwt>
<pdfrwt beam="2">  1       -3 0.85923341E-01 0.13276492E+03</pdfrwt>
<totfact> 0.10154745E+03</totfact>
</mgrwt>
</event>
<event>
 7    1  0.1330601E-005  0.1503193E+03  0.7546771E-02  0.1205895E+00
         -1   -1    0    0    0  501 -0.00000000000E+00  0.00000000000E+00  0.18684157654E+02  0.18684157654E+02  0.00000000000E+00 0.  1.
          1   -1    0    0  501    0  0.00000000000E+00 -0.00000000000E+00 -0.10814695407E+04  0.10814695407E+04  0.00000000000E+00 0. -1.
         23    2    1    2    0    0  0.69059559652E+02  0.46926843366E+02 -0.55292471053E+03  0.56859580041E+03  0.10297619783E+03 0.  0.
          5    1    1    2  502    0 -0.95332082508E+02  0.33224876514E-01 -0.35203593140E+03  0.36474593082E+03  0.47000000000E+01 0. -1.
         -5    1    1    2    0  502  0.26272522856E+02 -0.46960068243E+02 -0.15782474117E+03  0.16681196717E+03  0.47000000000E+01 0. -1.
        -11    1    3    3    0    0  0.64488684468E+02 -0.18033893879E+02 -0.25591184676E+03  0.26452766409E+03  0.00000000000E+00 0.  1.
         11    1    3    3    0    0  0.45708751841E+01  0.64960737246E+02 -0.29701286377E+03  0.30406813632E+03  0.00000000000E+00 0. -1.
<mgrwt>
<rscale>  0 0.14567143E+03</rscale>
<asrwt>0</asrwt>
<pdfrwt beam="2">  1        1 0.16638003E+00 0.15031931E+03</pdfrwt>
<pdfrwt beam="1">  1       -1 0.28744841E-02 0.15031931E+03</pdfrwt>
<totfact> 0.54807607E+03</totfact>
</mgrwt>
</event>
<event>
 7    1  0.1330601E-005  0.1480466E+03  0.7546771E-02  0.1212335E+00
          1   -1    0    0  501    0  0.00000000000E+00  0.00000000000E+00  0.50310616780E+03  0.50310616780E+03  0.00000000000E+00 0. -1.
         -1   -1    0    0    0  501 -0.00000000000E+00 -0.00000000000E+00 -0.66466952686E+02  0.66466952686E+02  0.00000000000E+00 0.  1.
         23    2    1    2    0    0  0.79056109216E+02 -0.65490221527E+01  0.39885445541E+03  0.41678085800E+03  0.91261431624E+02 0.  0.
          5    1    1    2  502    0 -0.28815377088E+02  0.23359686288E+02  0.77743381693E+02  0.86267747723E+02  0.47000000000E+01 0. -1.
         -5    1    1    2    0  502 -0.50240732128E+02 -0.16810664135E+02 -0.39958621985E+02  0.66524514763E+02  0.47000000000E+01 0. -1.
        -11    1    3    3    0    0  0.16933483107E+01 -0.29780655222E+02  0.46191633322E+02  0.54985651246E+02  0.00000000000E+00 0.  1.
         11    1    3    3    0    0  0.77362760905E+02  0.23231633069E+02  0.35266282209E+03  0.36179520676E+03  0.00000000000E+00 0. -1.
<mgrwt>
<rscale>  0 0.14074158E+03</rscale>
<asrwt>0</asrwt>
<pdfrwt beam="1">  1        1 0.77400947E-01 0.14804657E+03</pdfrwt>
<pdfrwt beam="2">  1       -1 0.10225685E-01 0.14804657E+03</pdfrwt>
<totfact> 0.25836838E+03</totfact>
</mgrwt>
</event>
<event>
 7    1  0.1330601E-005  0.1431122E+03  0.7546771E-02  0.1222681E+00
          1   -1    0    0  501    0  0.00000000000E+00  0.00000000000E+00  0.27417941725E+03  0.27417941725E+03  0.00000000000E+00 0. -1.
         -1   -1    0    0    0  501 -0.00000000000E+00 -0.00000000000E+00 -0.75351375812E+02  0.75351375812E+02  0.00000000000E+00 0.  1.
         23    2    1    2    0    0 -0.66664994747E+02 -0.20291425541E+02  0.17353629484E+03  0.20420087939E+03  0.82019449165E+02 0.  0.
          5    1    1    2  502    0  0.25468551644E+02  0.71828955506E+02  0.68567558673E+01  0.76662579352E+02  0.47000000000E+01 0.  1.
         -5    1    1    2    0  502  0.41196443103E+02 -0.51537529965E+02  0.18434990726E+02  0.68667334318E+02  0.47000000000E+01 0.  1.
        -11    1    3    3    0    0  0.23683302098E+01 -0.29257730877E+02  0.19711862528E+02  0.35357903336E+02  0.00000000000E+00 0.  1.
         11    1    3    3    0    0 -0.69033324957E+02  0.89663053361E+01  0.15382443232E+03  0.16884297606E+03  0.00000000000E+00 0. -1.
<mgrwt>
<rscale>  0 0.13327108E+03</rscale>
<asrwt>0</asrwt>
<pdfrwt beam="1">  1        1 0.42181448E-01 0.14311223E+03</pdfrwt>
<pdfrwt beam="2">  1       -1 0.11592519E-01 0.14311223E+03</pdfrwt>
<totfact> 0.45750578E+03</totfact>
</mgrwt>
</event>
<event>
 7    1  0.1330601E-005  0.1374843E+03  0.7546771E-02  0.1229522E+00
         -2   -1    0    0    0  501 -0.00000000000E+00  0.00000000000E+00  0.30412123950E+02  0.30412123950E+02  0.00000000000E+00 0.  1.
          2   -1    0    0  501    0  0.00000000000E+00 -0.00000000000E+00 -0.48545945610E+03  0.48545945610E+03  0.00000000000E+00 0. -1.
         23    2    1    2    0    0  0.56599236012E+02  0.80851078856E+01 -0.18637297842E+03  0.21406394328E+03  0.88428741038E+02 0.  0.
          5    1    1    2  502    0  0.39583026372E+02  0.48662631339E+01 -0.85390972877E+02  0.94362093779E+02  0.47000000000E+01 0. -1.
         -5    1    1    2    0  502 -0.96182262384E+02 -0.12951371019E+02 -0.18328338085E+03  0.20744554299E+03  0.47000000000E+01 0. -1.
        -11    1    3    3    0    0 -0.21492928191E+02 -0.54968272930E+01 -0.68628903054E+02  0.72125497620E+02  0.00000000000E+00 0. -1.
         11    1    3    3    0    0  0.78092164203E+02  0.13581935179E+02 -0.11774407536E+03  0.14193844566E+03  0.00000000000E+00 0.  1.
<mgrwt>
<rscale>  0 0.12861716E+03</rscale>
<asrwt>0</asrwt>
<pdfrwt beam="2">  1        2 0.74686072E-01 0.13748433E+03</pdfrwt>
<pdfrwt beam="1">  1       -2 0.46787882E-02 0.13748433E+03</pdfrwt>
<totfact> 0.13221719E+04</totfact>
</mgrwt>
</event>
<event>
 7    1  0.1330601E-005  0.1781585E+03  0.7546771E-02  0.1175298E+00
          3   -1    0    0  501    0  0.00000000000E+00  0.00000000000E+00  0.19602061967E+03  0.19602061967E+03  0.00000000000E+00 0. -1.
         -3   -1    0    0    0  501 -0.00000000000E+00 -0.00000000000E+00 -0.15790522791E+03  0.15790522791E+03  0.00000000000E+00 0.  1.
         23    2    1    2    0    0  0.11700213850E+03  0.49260097104E+02  0.72556677853E+02  0.17246879358E+03  0.91460131622E+02 0.  0.
          5    1    1    2  502    0 -0.19377416735E+02 -0.69087779707E+02 -0.38655988503E+02  0.81639335074E+02  0.47000000000E+01 0. -1.
         -5    1    1    2    0  502 -0.97624721764E+02  0.19827682603E+02  0.42147024132E+01  0.99817718935E+02  0.47000000000E+01 0. -1.
        -11    1    3    3    0    0  0.63478201176E+02  0.35795579322E+02  0.88858442708E+02  0.11492009556E+03  0.00000000000E+00 0.  1.
         11    1    3    3    0    0  0.53523937323E+02  0.13464517781E+02 -0.16301764855E+02  0.57548698013E+02  0.00000000000E+00 0. -1.
<mgrwt>
<rscale>  0 0.17246804E+03</rscale>
<asrwt>0</asrwt>
<pdfrwt beam="1">  1        3 0.30157018E-01 0.17815853E+03</pdfrwt>
<pdfrwt beam="2">  1       -3 0.24293112E-01 0.17815853E+03</pdfrwt>
<totfact> 0.40521092E+02</totfact>
</mgrwt>
</event>
<event>
 7    1  0.1330601E-005  0.1714020E+03  0.7546771E-02  0.1182900E+00
         -1   -1    0    0    0  501 -0.00000000000E+00  0.00000000000E+00  0.96496912540E+02  0.96496912540E+02  0.00000000000E+00 0.  1.
          1   -1    0    0  501    0  0.00000000000E+00 -0.00000000000E+00 -0.31617401830E+03  0.31617401830E+03  0.00000000000E+00 0. -1.
         23    2    1    2    0    0  0.64243448028E+02 -0.98114105651E+02 -0.18642747330E+03  0.23807375274E+03  0.90389770431E+02 0.  0.
          5    1    1    2  502    0  0.21968993506E+02  0.19397249342E+02  0.29608311365E+02  0.41924122646E+02  0.47000000000E+01 0. -1.
         -5    1    1    2    0  502 -0.86212441534E+02  0.78716856309E+02 -0.62857943823E+02  0.13267305546E+03  0.47000000000E+01 0. -1.
        -11    1    3    3    0    0  0.38064311083E+02 -0.90694972241E+02 -0.75879472925E+02  0.12422626204E+03  0.00000000000E+00 0.  1.
         11    1    3    3    0    0  0.26179136945E+02 -0.74191334102E+01 -0.11054800038E+03  0.11384749070E+03  0.00000000000E+00 0. -1.
<mgrwt>
<rscale>  0 0.16524435E+03</rscale>
<asrwt>0</asrwt>
<pdfrwt beam="2">  1        1 0.48642157E-01 0.17140197E+03</pdfrwt>
<pdfrwt beam="1">  1       -1 0.14845679E-01 0.17140197E+03</pdfrwt>
<totfact> 0.26282279E+03</totfact>
</mgrwt>
</event>
<event>
 7    1  0.1330601E-005  0.1304515E+03  0.7546771E-02  0.1240038E+00
          2   -1    0    0  501    0  0.00000000000E+00  0.00000000000E+00  0.36141910922E+02  0.36141910922E+02  0.00000000000E+00 0. -1.
         -2   -1    0    0    0  501 -0.00000000000E+00 -0.00000000000E+00 -0.37952336620E+03  0.37952336620E+03  0.00000000000E+00 0.  1.
         23    2    1    2    0    0  0.19992948641E+02 -0.31507785772E+02 -0.10957015694E+03  0.14792413517E+03  0.92105764815E+02 0.  0.
          5    1    1    2  502    0  0.18439975821E+02  0.36159697487E+02 -0.22377180716E+03  0.22747190620E+03  0.47000000000E+01 0. -1.
         -5    1    1    2    0  502 -0.38432924462E+02 -0.46519117150E+01 -0.10039491174E+02  0.40269235756E+02  0.47000000000E+01 0. -1.
        -11    1    3    3    0    0 -0.29834293740E+02  0.10600900961E+02 -0.52188105201E+02  0.61041481868E+02  0.00000000000E+00 0. -1.
         11    1    3    3    0    0  0.49827242382E+02 -0.42108686734E+02 -0.57382051744E+02  0.86882653298E+02  0.00000000000E+00 0.  1.
<mgrwt>
<rscale>  0 0.12187344E+03</rscale>
<asrwt>0</asrwt>
<pdfrwt beam="1">  1        2 0.55602938E-02 0.13045151E+03</pdfrwt>
<pdfrwt beam="2">  1       -2 0.58388212E-01 0.13045151E+03</pdfrwt>
<totfact> 0.36335272E+03</totfact>
</mgrwt>
</event>
<event>
 7    1  0.1330601E-005  0.1440180E+03  0.7546771E-02  0.1219579E+00
         -1   -1    0    0    0  501 -0.00000000000E+00  0.00000000000E+00  0.34084728710E+02  0.34084728710E+02  0.00000000000E+00 0.  1.
          1   -1    0    0  501    0  0.00000000000E+00 -0.00000000000E+00 -0.48467864792E+03  0.48467864792E+03  0.00000000000E+00 0. -1.
         23    2    1    2    0    0 -0.70568354069E+02 -0.11254925620E+02 -0.21115712671E+03  0.23935119268E+03  0.87149844119E+02 0.  0.
          5    1    1    2  502    0  0.39313626046E+02  0.56497066574E+01 -0.24376338660E+03  0.24702258809E+03  0.47000000000E+01 0.  1.
         -5    1    1    2    0  502  0.31254728023E+02  0.56052189623E+01  0.43265941045E+01  0.32389595860E+02  0.47000000000E+01 0.  1.
        -11    1    3    3    0    0 -0.21715039669E+02 -0.46963521678E+02 -0.86761536117E+02  0.10101821353E+03  0.00000000000E+00 0.  1.
         11    1    3    3    0    0 -0.48853314400E+02  0.35708596058E+02 -0.12439559059E+03  0.13833297914E+03  0.00000000000E+00 0. -1.
<mgrwt>
<rscale>  0 0.13545505E+03</rscale>
<asrwt>0</asrwt>
<pdfrwt beam="2">  1        1 0.74565940E-01 0.14401802E+03</pdfrwt>
<pdfrwt beam="1">  1       -1 0.52438048E-02 0.14401802E+03</pdfrwt>
<totfact> 0.74066446E+03</totfact>
</mgrwt>
</event>
<event>
 7    1  0.1330601E-005  0.1510502E+03  0.7546771E-02  0.1208532E+00
         -1   -1    0    0    0  501 -0.00000000000E+00  0.00000000000E+00  0.86081803493E+02  0.86081803493E+02  0.00000000000E+00 0.  1.
          1   -1    0    0  501    0  0.00000000000E+00 -0.00000000000E+00 -0.25100797176E+03  0.25100797176E+03  0.00000000000E+00 0. -1.
         23    2    1    2    0    0  0.10462787422E+02  0.84153415790E+02 -0.15192470102E+02  0.12440137938E+03  0.89741989804E+02 0.  0.
          5    1    1    2  502    0  0.25901021276E+02 -0.26577916442E+02  0.10220109023E+02  0.38778720634E+02  0.47000000000E+01 0. -1.
         -5    1    1    2    0  502 -0.36363808699E+02 -0.57575499347E+02 -0.15995380719E+03  0.17390967524E+03  0.47000000000E+01 0. -1.
        -11    1    3    3    0    0 -0.67859598534E+01  0.88145562847E+02 -0.37407004802E+02  0.95994653544E+02  0.00000000000E+00 0. -1.
         11    1    3    3    0    0  0.17248747276E+02 -0.39921470577E+01  0.22214534700E+02  0.28406725835E+02  0.00000000000E+00 0.  1.
<mgrwt>
<rscale>  0 0.14362551E+03</rscale>
<asrwt>0</asrwt>
<pdfrwt beam="2">  1        1 0.38616610E-01 0.15105023E+03</pdfrwt>
<pdfrwt beam="1">  1       -1 0.13243355E-01 0.15105023E+03</pdfrwt>
<totfact> 0.41645699E+03</totfact>
</mgrwt>
</event>
<event>
 7    1  0.1330601E-005  0.1528586E+03  0.7546771E-02  0.1211230E+00
          1   -1    0    0  501    0  0.00000000000E+00  0.00000000000E+00  0.47900751792E+03  0.47900751792E+03  0.00000000000E+00 0. -1.
         -1   -1    0    0    0  501 -0.00000000000E+00 -0.00000000000E+00 -0.61045064532E+02  0.61045064532E+02  0.00000000000E+00 0.  1.
         23    2    1    2    0    0  0.41589169980E+02  0.12883680823E+02  0.35901934587E+03  0.37622327110E+03  0.10369865338E+03 0.  0.
          5    1    1    2  502    0  0.15394717190E+02 -0.18105510663E+02  0.93654330149E+02  0.96736913272E+02  0.47000000000E+01 0. -1.
         -5    1    1    2    0  502 -0.56983887169E+02  0.52218298400E+01 -0.34711222634E+02  0.67092398083E+02  0.47000000000E+01 0.  1.
        -11    1    3    3    0    0  0.25709514121E+02  0.55410721279E+02  0.26318959385E+03  0.27018528728E+03  0.00000000000E+00 0.  1.
         11    1    3    3    0    0  0.15879655858E+02 -0.42527040456E+02  0.95829752021E+02  0.10603798382E+03  0.00000000000E+00 0. -1.
<mgrwt>
<rscale>  0 0.14157113E+03</rscale>
<asrwt>0</asrwt>
<pdfrwt beam="1">  1        1 0.73693462E-01 0.15285861E+03</pdfrwt>
<pdfrwt beam="2">  1       -1 0.93915487E-02 0.15285861E+03</pdfrwt>
<totfact> 0.31407477E+03</totfact>
</mgrwt>
</event>
<event>
 7    1  0.1330601E-005  0.1736433E+03  0.7546771E-02  0.1184016E+00
          3   -1    0    0  501    0  0.00000000000E+00  0.00000000000E+00  0.74624837385E+03  0.74624837385E+03  0.00000000000E+00 0. -1.
         -3   -1    0    0    0  501 -0.00000000000E+00 -0.00000000000E+00 -0.36747406718E+02  0.36747406718E+02  0.00000000000E+00 0.  1.
         23    2    1    2    0    0  0.56563163427E+02 -0.10644280792E+03  0.44844770253E+03  0.46946621303E+03  0.69019710619E+02 0.  0.
          5    1    1    2  502    0  0.77232813860E+01  0.10092327250E+03  0.20175668963E+03  0.22577202620E+03  0.47000000000E+01 0. -1.
         -5    1    1    2    0  502 -0.64286444813E+02  0.55195354170E+01  0.59296574973E+02  0.87757541336E+02  0.47000000000E+01 0. -1.
        -11    1    3    3    0    0  0.36539901735E+01 -0.77279003788E+02  0.22183899361E+03  0.23494240817E+03  0.00000000000E+00 0. -1.
         11    1    3    3    0    0  0.52909173253E+02 -0.29163804128E+02  0.22660870893E+03  0.23452380486E+03  0.00000000000E+00 0.  1.
<mgrwt>
<rscale>  0 0.16421731E+03</rscale>
<asrwt>0</asrwt>
<pdfrwt beam="1">  1        3 0.11480743E+00 0.17364326E+03</pdfrwt>
<pdfrwt beam="2">  1       -3 0.56534478E-02 0.17364326E+03</pdfrwt>
<totfact> 0.29637562E+02</totfact>
</mgrwt>
</event>
<event>
 7    1  0.1330601E-005  0.4641949E+03  0.7546771E-02  0.1023572E+00
          1   -1    0    0  501    0  0.00000000000E+00  0.00000000000E+00  0.10480559886E+03  0.10480559886E+03  0.00000000000E+00 0. -1.
         -1   -1    0    0    0  501 -0.00000000000E+00 -0.00000000000E+00 -0.51399194347E+03  0.51399194347E+03  0.00000000000E+00 0.  1.
         23    2    1    2    0    0 -0.40179697710E+02  0.74091682039E+01 -0.51910032003E+02  0.11127831344E+03  0.89548354191E+02 0.  0.
          5    1    1    2  502    0 -0.10622735802E+03  0.11640539810E+03 -0.10030959107E+03  0.18686511809E+03  0.47000000000E+01 0. -1.
         -5    1    1    2    0  502  0.14640705573E+03 -0.12381456630E+03 -0.25696672154E+03  0.32065411081E+03  0.47000000000E+01 0.  1.
        -11    1    3    3    0    0  0.13106809667E+02 -0.21434337282E+01 -0.55458123348E+02  0.57026188835E+02  0.00000000000E+00 0.  1.
         11    1    3    3    0    0 -0.53286507377E+02  0.95526019321E+01  0.35480913448E+01  0.54252124606E+02  0.00000000000E+00 0. -1.
<mgrwt>
<rscale>  0 0.46419493E+03</rscale>
<asrwt>0</asrwt>
<pdfrwt beam="1">  1        1 0.16123938E-01 0.46419493E+03</pdfrwt>
<pdfrwt beam="2">  1       -1 0.79075685E-01 0.46419493E+03</pdfrwt>
<totfact> 0.56613677E+02</totfact>
</mgrwt>
</event>
<event>
 7    1  0.1330601E-005  0.1380938E+03  0.7546771E-02  0.1226886E+00
          1   -1    0    0  501    0  0.00000000000E+00  0.00000000000E+00  0.61294927147E+03  0.61294927147E+03  0.00000000000E+00 0. -1.
         -1   -1    0    0    0  501 -0.00000000000E+00 -0.00000000000E+00 -0.25493355841E+02  0.25493355841E+02  0.00000000000E+00 0.  1.
         23    2    1    2    0    0  0.41643740534E+02  0.41360366932E+02  0.30240864045E+03  0.32170638609E+03  0.92731504639E+02 0.  0.
          5    1    1    2  502    0 -0.70675564746E+02 -0.64213085399E+02  0.16129464878E+03  0.18750042537E+03  0.47000000000E+01 0. -1.
         -5    1    1    2    0  502  0.29031824213E+02  0.22852718468E+02  0.12375262640E+03  0.12923581585E+03  0.47000000000E+01 0. -1.
        -11    1    3    3    0    0 -0.14562659076E+02  0.20099443922E+02  0.17107190717E+02  0.30144894420E+02  0.00000000000E+00 0.  1.
         11    1    3    3    0    0  0.56206399610E+02  0.21260923010E+02  0.28530144974E+03  0.29156149167E+03  0.00000000000E+00 0. -1.
<mgrwt>
<rscale>  0 0.13038482E+03</rscale>
<asrwt>0</asrwt>
<pdfrwt beam="1">  1        1 0.94299877E-01 0.13809380E+03</pdfrwt>
<pdfrwt beam="2">  1       -1 0.39220552E-02 0.13809380E+03</pdfrwt>
<totfact> 0.82959388E+03</totfact>
</mgrwt>
</event>
<event>
 7    1  0.1330601E-005  0.1323143E+03  0.7546771E-02  0.1236831E+00
          2   -1    0    0  501    0  0.00000000000E+00  0.00000000000E+00  0.18275755328E+03  0.18275755328E+03  0.00000000000E+00 0. -1.
         -2   -1    0    0    0  501 -0.00000000000E+00 -0.00000000000E+00 -0.88685454055E+02  0.88685454055E+02  0.00000000000E+00 0.  1.
         23    2    1    2    0    0  0.43245635587E+02 -0.36539675838E+01  0.94972417055E+02  0.13912560856E+03  0.91938231877E+02 0.  0.
          5    1    1    2  502    0  0.12118779888E+02  0.54914717407E+02 -0.46778185921E+01  0.56625639075E+02  0.47000000000E+01 0.  1.
         -5    1    1    2    0  502 -0.55364415475E+02 -0.51260749823E+02  0.37775007582E+01  0.75691759692E+02  0.47000000000E+01 0.  1.
        -11    1    3    3    0    0 -0.84395573592E-01  0.23971340405E+02 -0.69696744462E+01  0.24964147197E+02  0.00000000000E+00 0.  1.
         11    1    3    3    0    0  0.43330031160E+02 -0.27625307988E+02  0.10194209150E+03  0.11416146137E+03  0.00000000000E+00 0. -1.
<mgrwt>
<rscale>  0 0.12387970E+03</rscale>
<asrwt>0</asrwt>
<pdfrwt beam="1">  1        2 0.28116547E-01 0.13231434E+03</pdfrwt>
<pdfrwt beam="2">  1       -2 0.13643916E-01 0.13231434E+03</pdfrwt>
<totfact> 0.71511331E+03</totfact>
</mgrwt>
</event>
<event>
 7    1  0.1330601E-005  0.1512527E+03  0.7546771E-02  0.1215295E+00
          2   -1    0    0  501    0  0.00000000000E+00  0.00000000000E+00  0.38922285167E+03  0.38922285167E+03  0.00000000000E+00 0. -1.
         -2   -1    0    0    0  501 -0.00000000000E+00 -0.00000000000E+00 -0.56160363679E+02  0.56160363679E+02  0.00000000000E+00 0.  1.
         23    2    1    2    0    0 -0.30544443067E+02  0.41568866348E+02  0.25244837516E+03  0.27398891319E+03  0.93160124399E+02 0.  0.
          5    1    1    2  502    0  0.34108860422E+01  0.33162531096E+02  0.85208208914E+02  0.91618319557E+02  0.47000000000E+01 0. -1.
         -5    1    1    2    0  502  0.27133557025E+02 -0.74731397444E+02 -0.45940960863E+01  0.79775982599E+02  0.47000000000E+01 0.  1.
        -11    1    3    3    0    0  0.14737768282E+02  0.56740156728E+02  0.13292205811E+03  0.14527532734E+03  0.00000000000E+00 0.  1.
         11    1    3    3    0    0 -0.45282211349E+02 -0.15171290380E+02  0.11952631705E+03  0.12871358585E+03  0.00000000000E+00 0. -1.
<mgrwt>
<rscale>  0 0.13854878E+03</rscale>
<asrwt>0</asrwt>
<pdfrwt beam="1">  1        2 0.59880437E-01 0.15125267E+03</pdfrwt>
<pdfrwt beam="2">  1       -2 0.86400562E-02 0.15125267E+03</pdfrwt>
<totfact> 0.66310018E+03</totfact>
</mgrwt>
</event>
<event>
 7    1  0.1330601E-005  0.1269642E+03  0.7546771E-02  0.1243718E+00
         -1   -1    0    0    0  501 -0.00000000000E+00  0.00000000000E+00  0.53237822816E+02  0.53237822816E+02  0.00000000000E+00 0.  1.
          1   -1    0    0  501    0  0.00000000000E+00 -0.00000000000E+00 -0.26694081271E+03  0.26694081271E+03  0.00000000000E+00 0. -1.
         23    2    1    2    0    0 -0.23155005932E+01  0.22186228358E+02 -0.14397678348E+03  0.17532822171E+03  0.97535023834E+02 0.  0.
          5    1    1    2  502    0 -0.51120354442E+02  0.23125353024E+02 -0.37054613860E+02  0.67403315935E+02  0.47000000000E+01 0. -1.
         -5    1    1    2    0  502  0.53435855035E+02 -0.45311581382E+02 -0.32671592558E+02  0.77447097886E+02  0.47000000000E+01 0. -1.
        -11    1    3    3    0    0 -0.36005905132E+02  0.46128477587E+02 -0.78804565736E+02  0.98155087641E+02  0.00000000000E+00 0. -1.
         11    1    3    3    0    0  0.33690404539E+02 -0.23942249229E+02 -0.65172217743E+02  0.77173134067E+02  0.00000000000E+00 0.  1.
<mgrwt>
<rscale>  0 0.11962412E+03</rscale>
<asrwt>0</asrwt>
<pdfrwt beam="2">  1        1 0.41067818E-01 0.12696416E+03</pdfrwt>
<pdfrwt beam="1">  1       -1 0.81904342E-02 0.12696416E+03</pdfrwt>
<totfact> 0.79687857E+03</totfact>
</mgrwt>
</event>
<event>
 7    1  0.1330601E-005  0.1311809E+03  0.7546771E-02  0.1238066E+00
          2   -1    0    0  501    0  0.00000000000E+00  0.00000000000E+00  0.87431489221E+02  0.87431489221E+02  0.00000000000E+00 0. -1.
         -2   -1    0    0    0  501 -0.00000000000E+00 -0.00000000000E+00 -0.20904213333E+03  0.20904213333E+03  0.00000000000E+00 0.  1.
         23    2    1    2    0    0 -0.39778786386E+02  0.80009895405E+00  0.19745026966E+02  0.10362689772E+03  0.93625188043E+02 0.  0.
          5    1    1    2  502    0  0.15807031068E+02  0.15293471823E+02 -0.15772818305E+03  0.15932363992E+03  0.47000000000E+01 0.  1.
         -5    1    1    2    0  502  0.23971755319E+02 -0.16093570777E+02  0.16372511972E+02  0.33523084907E+02  0.47000000000E+01 0.  1.
        -11    1    3    3    0    0 -0.62690119129E+02 -0.13669337844E+02 -0.82191135643E+01  0.64687368638E+02  0.00000000000E+00 0.  1.
         11    1    3    3    0    0  0.22911332743E+02  0.14469436799E+02  0.27964140531E+02  0.38939529080E+02  0.00000000000E+00 0. -1.
<mgrwt>
<rscale>  0 0.12310156E+03</rscale>
<asrwt>0</asrwt>
<pdfrwt beam="1">  1        2 0.13450999E-01 0.13118092E+03</pdfrwt>
<pdfrwt beam="2">  1       -2 0.32160328E-01 0.13118092E+03</pdfrwt>
<totfact> 0.38188485E+03</totfact>
</mgrwt>
</event>
<event>
 7    1  0.1330601E-005  0.1427877E+03  0.7546771E-02  0.1221425E+00
         -1   -1    0    0    0  501 -0.00000000000E+00  0.00000000000E+00  0.54866014922E+02  0.54866014922E+02  0.00000000000E+00 0.  1.
          1   -1    0    0  501    0  0.00000000000E+00 -0.00000000000E+00 -0.30661827576E+03  0.30661827576E+03  0.00000000000E+00 0. -1.
         23    2    1    2    0    0 -0.68636949198E+02  0.60764300491E+01 -0.14720652578E+03  0.18451494663E+03  0.87338711354E+02 0.  0.
          5    1    1    2  502    0  0.10512947247E+02 -0.37704066211E+02 -0.10335674657E+03  0.11062018681E+03  0.47000000000E+01 0. -1.
         -5    1    1    2    0  502  0.58124001952E+02  0.31627636162E+02 -0.11889884832E+01  0.66349157234E+02  0.47000000000E+01 0. -1.
        -11    1    3    3    0    0  0.69969412705E+00 -0.14384844597E+02  0.56142727780E+01  0.15457470193E+02  0.00000000000E+00 0.  1.
         11    1    3    3    0    0 -0.69336643325E+02  0.20461274646E+02 -0.15282079856E+03  0.16905747644E+03  0.00000000000E+00 0. -1.
<mgrwt>
<rscale>  0 0.13415002E+03</rscale>
<asrwt>0</asrwt>
<pdfrwt beam="2">  1        1 0.47172042E-01 0.14278774E+03</pdfrwt>
<pdfrwt beam="1">  1       -1 0.84409254E-02 0.14278774E+03</pdfrwt>
<totfact> 0.64662329E+03</totfact>
</mgrwt>
</event>
<event>
 7    1  0.1330601E-005  0.1431827E+03  0.7546771E-02  0.1219573E+00
          1   -1    0    0  501    0  0.00000000000E+00  0.00000000000E+00  0.13980045707E+03  0.13980045707E+03  0.00000000000E+00 0. -1.
         -1   -1    0    0    0  501 -0.00000000000E+00 -0.00000000000E+00 -0.14134868076E+03  0.14134868076E+03  0.00000000000E+00 0.  1.
         23    2    1    2    0    0 -0.69832634566E+02  0.65486338150E+00  0.55000481274E+02  0.12720419510E+03  0.90988068522E+02 0.  0.
          5    1    1    2  502    0  0.32303069603E+02 -0.21578698801E+02  0.35130604092E+02  0.52586860447E+02  0.47000000000E+01 0. -1.
         -5    1    1    2    0  502  0.37529564962E+02  0.20923835420E+02 -0.91679309058E+02  0.10135808228E+03  0.47000000000E+01 0. -1.
        -11    1    3    3    0    0 -0.76499792282E+02  0.28679859960E+02  0.24598806149E+02  0.85322059577E+02  0.00000000000E+00 0.  1.
         11    1    3    3    0    0  0.66671577164E+01 -0.28024996578E+02  0.30401675126E+02  0.41882135520E+02  0.00000000000E+00 0. -1.
<mgrwt>
<rscale>  0 0.13545899E+03</rscale>
<asrwt>0</asrwt>
<pdfrwt beam="1">  1        1 0.21507763E-01 0.14318271E+03</pdfrwt>
<pdfrwt beam="2">  1       -1 0.21745951E-01 0.14318271E+03</pdfrwt>
<totfact> 0.39310386E+03</totfact>
</mgrwt>
</event>
<event>
 7    1  0.1330601E-005  0.1457992E+03  0.7546771E-02  0.1212261E+00
          4   -1    0    0  501    0  0.00000000000E+00  0.00000000000E+00  0.41111953240E+02  0.41111953240E+02  0.00000000000E+00 0.  1.
         -4   -1    0    0    0  501 -0.00000000000E+00 -0.00000000000E+00 -0.88390570971E+03  0.88390570971E+03  0.00000000000E+00 0. -1.
         23    2    1    2    0    0 -0.69013961238E+02  0.29294166065E+02 -0.83426504883E+02  0.15178028831E+03  0.10225555823E+03 0.  0.
          5    1    1    2  502    0 -0.27104526261E+02  0.17044799051E+02 -0.95532368553E+02  0.10086478057E+03  0.47000000000E+01 0.  1.
         -5    1    1    2    0  502  0.96118487499E+02 -0.46338965116E+02 -0.66383488304E+03  0.67237259408E+03  0.47000000000E+01 0.  1.
        -11    1    3    3    0    0  0.21044047959E+02 -0.15464336769E+02 -0.19844944093E+02  0.32799687075E+02  0.00000000000E+00 0.  1.
         11    1    3    3    0    0 -0.90058009197E+02  0.44758502834E+02 -0.63581560790E+02  0.11898060123E+03  0.00000000000E+00 0. -1.
<mgrwt>
<rscale>  0 0.14079686E+03</rscale>
<asrwt>0</asrwt>
<pdfrwt beam="1">  1        4 0.63249165E-02 0.14579923E+03</pdfrwt>
<pdfrwt beam="2">  1       -4 0.13598548E+00 0.14579923E+03</pdfrwt>
<totfact> 0.11284110E+02</totfact>
</mgrwt>
</event>
<event>
 7    1  0.1330601E-005  0.1597203E+03  0.7546771E-02  0.1197429E+00
          1   -1    0    0  501    0  0.00000000000E+00  0.00000000000E+00  0.33699696879E+03  0.33699696879E+03  0.00000000000E+00 0. -1.
         -1   -1    0    0    0  501 -0.00000000000E+00 -0.00000000000E+00 -0.66341614584E+02  0.66341614584E+02  0.00000000000E+00 0.  1.
         23    2    1    2    0    0  0.16759046138E+01 -0.97382971078E+02  0.16525854041E+03  0.21197754281E+03  0.90209987056E+02 0.  0.
          5    1    1    2  502    0 -0.13464838040E+02 -0.28954820668E+02  0.15638668931E+02  0.35865602871E+02  0.47000000000E+01 0. -1.
         -5    1    1    2    0  502  0.11788933426E+02  0.12633779175E+03  0.89758144871E+02  0.15549543770E+03  0.47000000000E+01 0.  1.
        -11    1    3    3    0    0  0.23416122975E+02 -0.78028847242E+02  0.55873163546E+02  0.98785759205E+02  0.00000000000E+00 0.  1.
         11    1    3    3    0    0 -0.21740218361E+02 -0.19354123836E+02  0.10938537686E+03  0.11319178360E+03  0.00000000000E+00 0. -1.
<mgrwt>
<rscale>  0 0.15250474E+03</rscale>
<asrwt>0</asrwt>
<pdfrwt beam="1">  1        1 0.51845686E-01 0.15972025E+03</pdfrwt>
<pdfrwt beam="2">  1       -1 0.10206402E-01 0.15972025E+03</pdfrwt>
<totfact> 0.43308649E+03</totfact>
</mgrwt>
</event>
<event>
 7    1  0.1330601E-005  0.1312083E+03  0.7546771E-02  0.1238929E+00
          1   -1    0    0  501    0  0.00000000000E+00  0.00000000000E+00  0.11514439149E+03  0.11514439149E+03  0.00000000000E+00 0. -1.
         -1   -1    0    0    0  501 -0.00000000000E+00 -0.00000000000E+00 -0.11695052589E+03  0.11695052589E+03  0.00000000000E+00 0.  1.
         23    2    1    2    0    0  0.25680449598E+02  0.30481894637E+02 -0.11362445616E+02  0.10053904243E+03  0.91598921879E+02 0.  0.
          5    1    1    2  502    0 -0.13566073592E+02  0.48312402668E+02  0.11409370703E+02  0.51675819724E+02  0.47000000000E+01 0.  1.
         -5    1    1    2    0  502 -0.12114376006E+02 -0.78794297306E+02 -0.18530594962E+01  0.79880055229E+02  0.47000000000E+01 0.  1.
        -11    1    3    3    0    0  0.42095359026E+02  0.44180702410E+02 -0.33623199500E+02  0.69674050131E+02  0.00000000000E+00 0.  1.
         11    1    3    3    0    0 -0.16414909428E+02 -0.13698807772E+02  0.22260753884E+02  0.30864992296E+02  0.00000000000E+00 0. -1.
<mgrwt>
<rscale>  0 0.12256230E+03</rscale>
<asrwt>0</asrwt>
<pdfrwt beam="1">  1        1 0.17714522E-01 0.13120833E+03</pdfrwt>
<pdfrwt beam="2">  1       -1 0.17992389E-01 0.13120833E+03</pdfrwt>
<totfact> 0.67838786E+03</totfact>
</mgrwt>
</event>
<event>
 7    1  0.1330601E-005  0.1623095E+03  0.7546771E-02  0.1193063E+00
          1   -1    0    0  501    0  0.00000000000E+00  0.00000000000E+00  0.67237319458E+03  0.67237319458E+03  0.00000000000E+00 0. -1.
         -1   -1    0    0    0  501 -0.00000000000E+00 -0.00000000000E+00 -0.40490045714E+02  0.40490045714E+02  0.00000000000E+00 0.  1.
         23    2    1    2    0    0  0.50775277477E+02  0.90232055764E+02  0.44025187160E+03  0.46173193702E+03  0.93030739701E+02 0.  0.
          5    1    1    2  502    0 -0.45083026541E+02 -0.85186254176E+02  0.49005872874E+02  0.10822588766E+03  0.47000000000E+01 0. -1.
         -5    1    1    2    0  502 -0.56922509359E+01 -0.50458015884E+01  0.14262540440E+03  0.14290541562E+03  0.47000000000E+01 0. -1.
        -11    1    3    3    0    0  0.47985638896E+02  0.10206367126E+03  0.43328163657E+03  0.44771932181E+03  0.00000000000E+00 0. -1.
         11    1    3    3    0    0  0.27896385811E+01 -0.11831615499E+02  0.69702350255E+01  0.14012615210E+02  0.00000000000E+00 0.  1.
<mgrwt>
<rscale>  0 0.15619327E+03</rscale>
<asrwt>0</asrwt>
<pdfrwt beam="1">  1        1 0.10344202E+00 0.16230953E+03</pdfrwt>
<pdfrwt beam="2">  1       -1 0.62292383E-02 0.16230953E+03</pdfrwt>
<totfact> 0.37014846E+03</totfact>
</mgrwt>
</event>
<event>
 7    1  0.1330601E-005  0.1429776E+03  0.7546771E-02  0.1219641E+00
          2   -1    0    0  501    0  0.00000000000E+00  0.00000000000E+00  0.48885908804E+03  0.48885908804E+03  0.00000000000E+00 0.  1.
         -2   -1    0    0    0  501 -0.00000000000E+00 -0.00000000000E+00 -0.34057043169E+02  0.34057043169E+02  0.00000000000E+00 0. -1.
         23    2    1    2    0    0 -0.36050659462E+02 -0.59320600002E+02  0.20814392422E+03  0.23781472553E+03  0.91724407101E+02 0.  0.
          5    1    1    2  502    0  0.65972522246E+02  0.22771429625E+02  0.58928638181E+02  0.91463577978E+02  0.47000000000E+01 0. -1.
         -5    1    1    2    0  502 -0.29921862784E+02  0.36549170377E+02  0.18772948247E+03  0.19363782770E+03  0.47000000000E+01 0. -1.
        -11    1    3    3    0    0 -0.45552309318E+02 -0.16517869337E+02  0.17832518628E+03  0.18479103050E+03  0.00000000000E+00 0.  1.
         11    1    3    3    0    0  0.95016498559E+01 -0.42802730665E+02  0.29818737937E+02  0.53023695029E+02  0.00000000000E+00 0. -1.
<mgrwt>
<rscale>  0 0.13541099E+03</rscale>
<asrwt>0</asrwt>
<pdfrwt beam="1">  1        2 0.75209086E-01 0.14297756E+03</pdfrwt>
<pdfrwt beam="2">  1       -2 0.52395454E-02 0.14297756E+03</pdfrwt>
<totfact> 0.11101068E+04</totfact>
</mgrwt>
</event>
<event>
 7    1  0.1330601E-005  0.1692333E+03  0.7546771E-02  0.1185251E+00
          1   -1    0    0  501    0  0.00000000000E+00  0.00000000000E+00  0.36581146822E+03  0.36581146822E+03  0.00000000000E+00 0. -1.
         -1   -1    0    0    0  501 -0.00000000000E+00 -0.00000000000E+00 -0.87297608229E+02  0.87297608229E+02  0.00000000000E+00 0.  1.
         23    2    1    2    0    0 -0.71267510466E+02  0.89091165971E+02  0.23783386021E+03  0.27905517534E+03  0.91052467941E+02 0.  0.
          5    1    1    2  502    0  0.79885946173E+02 -0.11538624402E+03  0.27682918491E+02  0.14312296699E+03  0.47000000000E+01 0.  1.
         -5    1    1    2    0  502 -0.86184357072E+01  0.26295078045E+02  0.12997081287E+02  0.30930934118E+02  0.47000000000E+01 0.  1.
        -11    1    3    3    0    0 -0.14960086684E+02  0.31560004839E+02  0.17069517660E+03  0.17423168889E+03  0.00000000000E+00 0. -1.
         11    1    3    3    0    0 -0.56307423782E+02  0.57531161132E+02  0.67138683610E+02  0.10482348645E+03  0.00000000000E+00 0.  1.
<mgrwt>
<rscale>  0 0.16309070E+03</rscale>
<asrwt>0</asrwt>
<pdfrwt beam="1">  1        1 0.56278686E-01 0.16923327E+03</pdfrwt>
<pdfrwt beam="2">  1       -1 0.13430402E-01 0.16923327E+03</pdfrwt>
<totfact> 0.25603161E+03</totfact>
</mgrwt>
</event>
<event>
 7    1  0.1330601E-005  0.1399110E+03  0.7546771E-02  0.1224480E+00
          1   -1    0    0  501    0  0.00000000000E+00  0.00000000000E+00  0.15790802938E+02  0.15790802938E+02  0.00000000000E+00 0. -1.
         -1   -1    0    0    0  501 -0.00000000000E+00 -0.00000000000E+00 -0.12520607173E+04  0.12520607173E+04  0.00000000000E+00 0.  1.
         23    2    1    2    0    0  0.34532532262E+02 -0.52491207205E+02 -0.27630672666E+03  0.29774615495E+03  0.91430536332E+02 0.  0.
          5    1    1    2  502    0 -0.47271220029E+02  0.71885131410E+02 -0.37945707685E+03  0.38911669655E+03  0.47000000000E+01 0.  1.
         -5    1    1    2    0  502  0.12738687767E+02 -0.19393924205E+02 -0.58050611086E+03  0.58098866874E+03  0.47000000000E+01 0.  1.
        -11    1    3    3    0    0  0.46432761252E+02 -0.35743060196E+02 -0.26995491125E+03  0.27624123837E+03  0.00000000000E+00 0.  1.
         11    1    3    3    0    0 -0.11900228990E+02 -0.16748147009E+02 -0.63518154131E+01  0.21504916584E+02  0.00000000000E+00 0. -1.
<mgrwt>
<rscale>  0 0.13202605E+03</rscale>
<asrwt>0</asrwt>
<pdfrwt beam="1">  1        1 0.24293536E-02 0.13991104E+03</pdfrwt>
<pdfrwt beam="2">  1       -1 0.19262478E+00 0.13991104E+03</pdfrwt>
<totfact> 0.84676090E+02</totfact>
</mgrwt>
</event>
<event>
 7    1  0.1330601E-005  0.3771442E+03  0.7546771E-02  0.1051994E+00
          1   -1    0    0  501    0  0.00000000000E+00  0.00000000000E+00  0.75967813045E+03  0.75967813045E+03  0.00000000000E+00 0. -1.
         -1   -1    0    0    0  501 -0.00000000000E+00 -0.00000000000E+00 -0.46808546557E+02  0.46808546557E+02  0.00000000000E+00 0.  1.
         23    2    1    2    0    0  0.77577608045E+02  0.79074101848E+02  0.36482429126E+03  0.39207158372E+03  0.91391270989E+02 0.  0.
          5    1    1    2  502    0 -0.80413087593E+02 -0.13864675834E+03  0.21211603877E+03  0.26590316312E+03  0.47000000000E+01 0. -1.
         -5    1    1    2    0  502  0.28354795477E+01  0.59572656494E+02  0.13592925386E+03  0.14851193016E+03  0.47000000000E+01 0.  1.
        -11    1    3    3    0    0  0.38355029180E+02  0.94061769536E+02  0.26222506385E+03  0.28121292442E+03  0.00000000000E+00 0.  1.
         11    1    3    3    0    0  0.39222578865E+02 -0.14987667688E+02  0.10259922742E+03  0.11085865930E+03  0.00000000000E+00 0. -1.
<mgrwt>
<rscale>  0 0.37714416E+03</rscale>
<asrwt>0</asrwt>
<pdfrwt beam="1">  1        1 0.11687355E+00 0.37714416E+03</pdfrwt>
<pdfrwt beam="2">  1       -1 0.72013154E-02 0.37714416E+03</pdfrwt>
<totfact> 0.25317630E+03</totfact>
</mgrwt>
</event>
<event>
 7    1  0.1330601E-005  0.1397183E+03  0.7546771E-02  0.1223886E+00
         -1   -1    0    0    0  501 -0.00000000000E+00  0.00000000000E+00  0.10447606548E+03  0.10447606548E+03  0.00000000000E+00 0.  1.
          1   -1    0    0  501    0  0.00000000000E+00 -0.00000000000E+00 -0.15745813353E+03  0.15745813353E+03  0.00000000000E+00 0. -1.
         23    2    1    2    0    0  0.56050160787E+02  0.27458782105E+02 -0.46708418047E+02  0.12207513078E+03  0.93941769199E+02 0.  0.
          5    1    1    2  502    0 -0.23295873035E+01 -0.70481996491E+02 -0.11962043156E+01  0.70687054763E+02  0.47000000000E+01 0. -1.
         -5    1    1    2    0  502 -0.53720573483E+02  0.43023214386E+02 -0.50774456826E+01  0.69172013460E+02  0.47000000000E+01 0. -1.
        -11    1    3    3    0    0  0.82729572530E+00  0.15535365544E+02  0.25817010382E+02  0.30142163590E+02  0.00000000000E+00 0.  1.
         11    1    3    3    0    0  0.55222865061E+02  0.11923416561E+02 -0.72525428429E+02  0.91932967193E+02  0.00000000000E+00 0. -1.
<mgrwt>
<rscale>  0 0.13243527E+03</rscale>
<asrwt>0</asrwt>
<pdfrwt beam="2">  1        1 0.24224328E-01 0.13971829E+03</pdfrwt>
<pdfrwt beam="1">  1       -1 0.16073241E-01 0.13971829E+03</pdfrwt>
<totfact> 0.54751247E+03</totfact>
</mgrwt>
</event>
<event>
 7    1  0.1330601E-005  0.1397417E+03  0.7546771E-02  0.1225112E+00
          2   -1    0    0  501    0  0.00000000000E+00  0.00000000000E+00  0.46053509141E+03  0.46053509141E+03  0.00000000000E+00 0. -1.
         -2   -1    0    0    0  501 -0.00000000000E+00 -0.00000000000E+00 -0.40007888620E+02  0.40007888620E+02  0.00000000000E+00 0.  1.
         23    2    1    2    0    0 -0.35727525005E+02  0.51251450321E+02  0.28677578379E+03  0.30710776872E+03  0.90397257884E+02 0.  0.
          5    1    1    2  502    0  0.66031667942E+02 -0.26418567220E+00  0.27551529965E+02  0.71703750032E+02  0.47000000000E+01 0. -1.
         -5    1    1    2    0  502 -0.30304142936E+02 -0.50987264649E+02  0.10619988903E+03  0.12173146128E+03  0.47000000000E+01 0. -1.
        -11    1    3    3    0    0 -0.43099455806E+02  0.74143568530E+02  0.21915213246E+03  0.23533484444E+03  0.00000000000E+00 0.  1.
         11    1    3    3    0    0  0.73719308006E+01 -0.22892118209E+02  0.67623651337E+02  0.71772924281E+02  0.00000000000E+00 0. -1.
<mgrwt>
<rscale>  0 0.13159204E+03</rscale>
<asrwt>0</asrwt>
<pdfrwt beam="1">  1        2 0.70851549E-01 0.13974169E+03</pdfrwt>
<pdfrwt beam="2">  1       -2 0.61550601E-02 0.13974169E+03</pdfrwt>
<totfact> 0.92714170E+03</totfact>
</mgrwt>
</event>
<event>
 7    1  0.1330601E-005  0.1592777E+03  0.7546771E-02  0.1197283E+00
         -2   -1    0    0    0  501 -0.00000000000E+00  0.00000000000E+00  0.40308925070E+02  0.40308925070E+02  0.00000000000E+00 0.  1.
          2   -1    0    0  501    0  0.00000000000E+00 -0.00000000000E+00 -0.56317175065E+03  0.56317175065E+03  0.00000000000E+00 0. -1.
         23    2    1    2    0    0 -0.26495529325E+02  0.95087106587E+02 -0.30814931164E+03  0.33613956110E+03  0.91050729607E+02 0.  0.
          5    1    1    2  502    0  0.50760236906E+02 -0.11381665312E+01 -0.12543179171E+03  0.13539985762E+03  0.47000000000E+01 0.  1.
         -5    1    1    2    0  502 -0.24264707581E+02 -0.93948940056E+02 -0.89281722236E+02  0.13194125699E+03  0.47000000000E+01 0.  1.
        -11    1    3    3    0    0 -0.59333380094E+02  0.54822107874E+02 -0.16190286226E+03  0.18093769733E+03  0.00000000000E+00 0.  1.
         11    1    3    3    0    0  0.32837850769E+02  0.40264998713E+02 -0.14624644938E+03  0.15520186378E+03  0.00000000000E+00 0. -1.
<mgrwt>
<rscale>  0 0.15262550E+03</rscale>
<asrwt>0</asrwt>
<pdfrwt beam="2">  1        2 0.86641801E-01 0.15927768E+03</pdfrwt>
<pdfrwt beam="1">  1       -2 0.62013736E-02 0.15927768E+03</pdfrwt>
<totfact> 0.73972341E+03</totfact>
</mgrwt>
</event>
<event>
 7    1  0.1330601E-005  0.1302341E+03  0.7546771E-02  0.1241338E+00
         -1   -1    0    0    0  501 -0.00000000000E+00  0.00000000000E+00  0.32563715815E+02  0.32563715815E+02  0.00000000000E+00 0.  1.
          1   -1    0    0  501    0  0.00000000000E+00 -0.00000000000E+00 -0.40170666116E+03  0.40170666116E+03  0.00000000000E+00 0. -1.
         23    2    1    2    0    0  0.10769111045E+02 -0.34916691820E+02 -0.18041019187E+03  0.20496494665E+03  0.90153440896E+02 0.  0.
          5    1    1    2  502    0 -0.64618860104E+02  0.83317762296E+01 -0.12833197156E+03  0.14400069618E+03  0.47000000000E+01 0.  1.
         -5    1    1    2    0  502  0.53849749060E+02  0.26584915590E+02 -0.60400781914E+02  0.85304734139E+02  0.47000000000E+01 0.  1.
        -11    1    3    3    0    0 -0.22716208791E+02 -0.12576964446E+02 -0.15544429353E+03  0.15759801574E+03  0.00000000000E+00 0. -1.
         11    1    3    3    0    0  0.33485319835E+02 -0.22339727374E+02 -0.24965898344E+02  0.47366930909E+02  0.00000000000E+00 0.  1.
<mgrwt>
<rscale>  0 0.12107264E+03</rscale>
<asrwt>0</asrwt>
<pdfrwt beam="2">  1        1 0.61801019E-01 0.13023413E+03</pdfrwt>
<pdfrwt beam="1">  1       -1 0.50098029E-02 0.13023413E+03</pdfrwt>
<totfact> 0.10005792E+04</totfact>
</mgrwt>
</event>
<event>
 7    1  0.1330601E-005  0.1954112E+03  0.7546771E-02  0.1158128E+00
         -2   -1    0    0    0  501 -0.00000000000E+00  0.00000000000E+00  0.19430513965E+03  0.19430513965E+03  0.00000000000E+00 0.  1.
          2   -1    0    0  501    0  0.00000000000E+00 -0.00000000000E+00 -0.17750074391E+03  0.17750074391E+03  0.00000000000E+00 0. -1.
         23    2    1    2    0    0  0.88005599034E+02 -0.12172503300E+03  0.76316331786E+01  0.17617953351E+03  0.91755201943E+02 0.  0.
          5    1    1    2  502    0 -0.35396325293E+02 -0.19563555010E+02  0.18028316272E+02  0.44527999242E+02  0.47000000000E+01 0. -1.
         -5    1    1    2    0  502 -0.52609273741E+02  0.14128858801E+03 -0.88555537124E+01  0.15109835081E+03  0.47000000000E+01 0. -1.
        -11    1    3    3    0    0  0.13376507681E+02  0.15091083871E+02  0.11058994868E+01  0.20196405220E+02  0.00000000000E+00 0.  1.
         11    1    3    3    0    0  0.74629091353E+02 -0.13681611687E+03  0.65257336918E+01  0.15598312829E+03  0.00000000000E+00 0. -1.
<mgrwt>
<rscale>  0 0.19037020E+03</rscale>
<asrwt>0</asrwt>
<pdfrwt beam="2">  1        2 0.27307807E-01 0.19541118E+03</pdfrwt>
<pdfrwt beam="1">  1       -2 0.29893099E-01 0.19541118E+03</pdfrwt>
<totfact> 0.19786409E+03</totfact>
</mgrwt>
</event>
<event>
 7    1  0.1330601E-005  0.2080389E+03  0.7546771E-02  0.1147367E+00
         -1   -1    0    0    0  501 -0.00000000000E+00  0.00000000000E+00  0.11928722629E+03  0.11928722629E+03  0.00000000000E+00 0.  1.
          1   -1    0    0  501    0  0.00000000000E+00 -0.00000000000E+00 -0.40092708077E+03  0.40092708077E+03  0.00000000000E+00 0. -1.
         23    2    1    2    0    0  0.66425520178E+02 -0.15250439619E+03 -0.24525040721E+03  0.30901679939E+03  0.87599540434E+02 0.  0.
          5    1    1    2  502    0 -0.92917130985E+02  0.15104100317E+03 -0.17427594252E+02  0.17824923256E+03  0.47000000000E+01 0.  1.
         -5    1    1    2    0  502  0.26491610807E+02  0.14633930206E+01 -0.18961853018E+02  0.32948275102E+02  0.47000000000E+01 0.  1.
        -11    1    3    3    0    0 -0.10930586902E+02  0.53435078195E+01 -0.17658468667E+02  0.21444167540E+02  0.00000000000E+00 0. -1.
         11    1    3    3    0    0  0.77356107080E+02 -0.15784790401E+03 -0.22759193854E+03  0.28757263185E+03  0.00000000000E+00 0.  1.
<mgrwt>
<rscale>  0 0.20283707E+03</rscale>
<asrwt>0</asrwt>
<pdfrwt beam="2">  1        1 0.61681089E-01 0.20803893E+03</pdfrwt>
<pdfrwt beam="1">  1       -1 0.18351881E-01 0.20803893E+03</pdfrwt>
<totfact> 0.13964310E+03</totfact>
</mgrwt>
</event>
<event>
 7    1  0.1330601E-005  0.1277619E+03  0.7546771E-02  0.1242453E+00
         -1   -1    0    0    0  501 -0.00000000000E+00  0.00000000000E+00  0.29578888822E+02  0.29578888822E+02  0.00000000000E+00 0.  1.
          1   -1    0    0  501    0  0.00000000000E+00 -0.00000000000E+00 -0.44522583413E+03  0.44522583413E+03  0.00000000000E+00 0. -1.
         23    2    1    2    0    0  0.18419527893E+02 -0.18909964125E+02 -0.16126976761E+03  0.19014553128E+03  0.97213781783E+02 0.  0.
          5    1    1    2  502    0 -0.43178752948E+02  0.19370970187E+02 -0.24674272281E+02  0.53577503719E+02  0.47000000000E+01 0. -1.
         -5    1    1    2    0  502  0.24759225055E+02 -0.46100606210E+00 -0.22970290542E+03  0.23108168796E+03  0.47000000000E+01 0. -1.
        -11    1    3    3    0    0  0.25453855726E+02  0.10638032069E+02 -0.15708001025E+03  0.15948415633E+03  0.00000000000E+00 0. -1.
         11    1    3    3    0    0 -0.70343278336E+01 -0.29547996195E+02 -0.41897573569E+01  0.30661374951E+02  0.00000000000E+00 0.  1.
<mgrwt>
<rscale>  0 0.12039136E+03</rscale>
<asrwt>0</asrwt>
<pdfrwt beam="2">  1        1 0.68496277E-01 0.12776191E+03</pdfrwt>
<pdfrwt beam="1">  1       -1 0.45505986E-02 0.12776191E+03</pdfrwt>
<totfact> 0.10106728E+04</totfact>
</mgrwt>
</event>
<event>
 7    1  0.1330601E-005  0.1281153E+03  0.7546771E-02  0.1245476E+00
          2   -1    0    0  501    0  0.00000000000E+00  0.00000000000E+00  0.11665409072E+03  0.11665409072E+03  0.00000000000E+00 0. -1.
         -2   -1    0    0    0  501 -0.00000000000E+00 -0.00000000000E+00 -0.10719331569E+03  0.10719331569E+03  0.00000000000E+00 0.  1.
         23    2    1    2    0    0  0.13054408324E+02  0.24893487226E+02  0.16974018267E+02  0.95511959589E+02  0.89690098926E+02 0.  0.
          5    1    1    2  502    0 -0.14535921424E+01  0.28926090658E+02  0.43937859616E+02  0.52834242291E+02  0.47000000000E+01 0. -1.
         -5    1    1    2    0  502 -0.11600816182E+02 -0.53819577884E+02 -0.51451102861E+02  0.75501204529E+02  0.47000000000E+01 0. -1.
        -11    1    3    3    0    0 -0.83231533326E+01  0.27287275822E+02  0.49137109358E+02  0.56818358118E+02  0.00000000000E+00 0. -1.
         11    1    3    3    0    0  0.21377561657E+02 -0.23937885963E+01 -0.32163091091E+02  0.38693601471E+02  0.00000000000E+00 0.  1.
<mgrwt>
<rscale>  0 0.11856952E+03</rscale>
<asrwt>0</asrwt>
<pdfrwt beam="1">  1        2 0.17946783E-01 0.12811533E+03</pdfrwt>
<pdfrwt beam="2">  1       -2 0.16491279E-01 0.12811533E+03</pdfrwt>
<totfact> 0.86362755E+03</totfact>
</mgrwt>
</event>
<event>
 7    1  0.1330601E-005  0.1640069E+03  0.7546771E-02  0.1192304E+00
         -3   -1    0    0    0  501 -0.00000000000E+00  0.00000000000E+00  0.68298576057E+02  0.68298576057E+02  0.00000000000E+00 0.  1.
          3   -1    0    0  501    0  0.00000000000E+00 -0.00000000000E+00 -0.51487359989E+03  0.51487359989E+03  0.00000000000E+00 0. -1.
         23    2    1    2    0    0  0.10618859130E+03  0.14597591501E+01 -0.38376688548E+03  0.40755004076E+03  0.86843914638E+02 0.  0.
          5    1    1    2  502    0 -0.12595091479E+03  0.26291963125E+02 -0.56737105451E+02  0.14069857638E+03  0.47000000000E+01 0. -1.
         -5    1    1    2    0  502  0.19762323489E+02 -0.27751722275E+02 -0.60710328940E+01  0.34923558801E+02  0.47000000000E+01 0. -1.
        -11    1    3    3    0    0  0.43749020077E+02 -0.39257488624E+02 -0.21815736478E+03  0.22593752007E+03  0.00000000000E+00 0. -1.
         11    1    3    3    0    0  0.62439571224E+02  0.40717247774E+02 -0.16560952071E+03  0.18161252069E+03  0.00000000000E+00 0.  1.
<mgrwt>
<rscale>  0 0.15684625E+03</rscale>
<asrwt>0</asrwt>
<pdfrwt beam="2">  1        3 0.79211320E-01 0.16400693E+03</pdfrwt>
<pdfrwt beam="1">  1       -3 0.10507474E-01 0.16400693E+03</pdfrwt>
<totfact> 0.24747483E+02</totfact>
</mgrwt>
</event>
<event>
 6    1  0.1330601E-005  0.1493107E+03  0.7546771E-02  0.1221947E+00
          2   -1    0    0  501    0  0.00000000000E+00  0.00000000000E+00  0.36558753917E+03  0.36558753917E+03  0.00000000000E+00 0. -1.
         -2   -1    0    0    0  501 -0.00000000000E+00 -0.00000000000E+00 -0.41233236611E+02  0.41233236611E+02  0.00000000000E+00 0.  1.
          5    1    1    2  502    0 -0.18721621161E+02 -0.54375373007E+02  0.20249317772E+03  0.21055345476E+03  0.47000000000E+01 0.  1.
         -5    1    1    2    0  502  0.21371126039E+02 -0.27200783809E+02 -0.68303145010E+01  0.35571770608E+02  0.47000000000E+01 0.  1.
        -11    1    1    2    0    0 -0.20337296739E+02  0.65299136129E+02  0.72972870971E+02  0.10001311272E+03  0.00000000000E+00 0.  1.
         11    1    1    2    0    0  0.17687791860E+02  0.16277020687E+02  0.55718568368E+02  0.60682437692E+02  0.00000000000E+00 0. -1.
<mgrwt>
<rscale>  0 0.13378385E+03</rscale>
<asrwt>0</asrwt>
<pdfrwt beam="1">  1        2 0.56244234E-01 0.14931065E+03</pdfrwt>
<pdfrwt beam="2">  1       -2 0.63435751E-02 0.14931065E+03</pdfrwt>
<totfact> 0.11401562E+04</totfact>
</mgrwt>
</event>
<event>
 7    1  0.1330601E-005  0.1298182E+03  0.7546771E-02  0.1241428E+00
         -1   -1    0    0    0  501 -0.00000000000E+00  0.00000000000E+00  0.28995509929E+03  0.28995509929E+03  0.00000000000E+00 0.  1.
          1   -1    0    0  501    0  0.00000000000E+00 -0.00000000000E+00 -0.48875787312E+02  0.48875787312E+02  0.00000000000E+00 0. -1.
         23    2    1    2    0    0  0.35037612837E+02  0.61162889265E+00  0.56438013579E+02  0.11312049537E+03  0.91558662572E+02 0.  0.
          5    1    1    2  502    0 -0.55672770336E+02 -0.32952779078E+02  0.17388772187E+03  0.18559195248E+03  0.47000000000E+01 0. -1.
         -5    1    1    2    0  502  0.20635157499E+02  0.32341150185E+02  0.10753576523E+02  0.40118438757E+02  0.47000000000E+01 0. -1.
        -11    1    3    3    0    0 -0.16270315332E+02 -0.24048711882E+02 -0.48894612057E+01  0.29444363384E+02  0.00000000000E+00 0.  1.
         11    1    3    3    0    0  0.51307928169E+02  0.24660340775E+02  0.61327474785E+02  0.83676131983E+02  0.00000000000E+00 0. -1.
<mgrwt>
<rscale>  0 0.12101740E+03</rscale>
<asrwt>0</asrwt>
<pdfrwt beam="2">  1        1 0.75193521E-02 0.12981823E+03</pdfrwt>
<pdfrwt beam="1">  1       -1 0.44608476E-01 0.12981823E+03</pdfrwt>
<totfact> 0.45726690E+03</totfact>
</mgrwt>
</event>
<event>
 7    1  0.1330601E-005  0.1336985E+03  0.7546771E-02  0.1234443E+00
         -1   -1    0    0    0  501 -0.00000000000E+00  0.00000000000E+00  0.47680544437E+02  0.47680544437E+02  0.00000000000E+00 0.  1.
          1   -1    0    0  501    0  0.00000000000E+00 -0.00000000000E+00 -0.29623296706E+03  0.29623296706E+03  0.00000000000E+00 0. -1.
         23    2    1    2    0    0  0.14151690761E+02 -0.45278141290E+02 -0.97220612799E+02  0.14198129916E+03  0.91959019836E+02 0.  0.
          5    1    1    2  502    0 -0.17078285125E+02  0.68020289018E+02 -0.26807820935E+02  0.75227500318E+02  0.47000000000E+01 0. -1.
         -5    1    1    2    0  502  0.29265943640E+01 -0.22742147728E+02 -0.12452398889E+03  0.12670471202E+03  0.47000000000E+01 0. -1.
        -11    1    3    3    0    0 -0.19013421697E+02 -0.50070642081E+02 -0.18904819304E+02  0.56797637239E+02  0.00000000000E+00 0.  1.
         11    1    3    3    0    0  0.33165112458E+02  0.47925007914E+01 -0.78315793494E+02  0.85183661924E+02  0.00000000000E+00 0. -1.
<mgrwt>
<rscale>  0 0.12540149E+03</rscale>
<asrwt>0</asrwt>
<pdfrwt beam="2">  1        1 0.45574304E-01 0.13369855E+03</pdfrwt>
<pdfrwt beam="1">  1       -1 0.73354682E-02 0.13369855E+03</pdfrwt>
<totfact> 0.83031351E+03</totfact>
</mgrwt>
</event>
<event>
 7    1  0.1330601E-005  0.1284348E+03  0.7546771E-02  0.1244803E+00
          4   -1    0    0  501    0  0.00000000000E+00  0.00000000000E+00  0.18868399303E+03  0.18868399303E+03  0.00000000000E+00 0. -1.
         -4   -1    0    0    0  501 -0.00000000000E+00 -0.00000000000E+00 -0.10316593926E+03  0.10316593926E+03  0.00000000000E+00 0.  1.
         23    2    1    2    0    0 -0.27175892858E+02 -0.11496998181E+02  0.12567979449E+03  0.15728224456E+03  0.89841992367E+02 0.  0.
          5    1    1    2  502    0  0.71836808397E+02  0.25289666364E+02 -0.61117227563E+01  0.76547615381E+02  0.47000000000E+01 0.  1.
         -5    1    1    2    0  502 -0.44660915539E+02 -0.13792668183E+02 -0.34050017960E+02  0.58020072349E+02  0.47000000000E+01 0.  1.
        -11    1    3    3    0    0 -0.44419738715E+02 -0.23187274449E+02  0.27988740419E+02  0.57394533486E+02  0.00000000000E+00 0.  1.
         11    1    3    3    0    0  0.17243845856E+02  0.11690276268E+02  0.97691054068E+02  0.99887711077E+02  0.00000000000E+00 0. -1.
<mgrwt>
<rscale>  0 0.11897156E+03</rscale>
<asrwt>0</asrwt>
<pdfrwt beam="1">  1        4 0.29028306E-01 0.12843480E+03</pdfrwt>
<pdfrwt beam="2">  1       -4 0.15871683E-01 0.12843480E+03</pdfrwt>
<totfact> 0.63240965E+02</totfact>
</mgrwt>
</event>
<event>
 7    1  0.1330601E-005  0.1461842E+03  0.7546771E-02  0.1214083E+00
          2   -1    0    0  501    0  0.00000000000E+00  0.00000000000E+00  0.29020047334E+03  0.29020047334E+03  0.00000000000E+00 0. -1.
         -2   -1    0    0    0  501 -0.00000000000E+00 -0.00000000000E+00 -0.61944077772E+02  0.61944077772E+02  0.00000000000E+00 0.  1.
         23    2    1    2    0    0 -0.75644660247E+02 -0.38798823284E+01  0.11816992669E+03  0.16914492781E+03  0.94385946618E+02 0.  0.
          5    1    1    2  502    0  0.10467608687E+02 -0.31101356792E+02  0.10339322414E+03  0.10857768658E+03  0.47000000000E+01 0.  1.
         -5    1    1    2    0  502  0.65177051560E+02  0.34981239121E+02  0.66932447433E+01  0.74421936723E+02  0.47000000000E+01 0.  1.
        -11    1    3    3    0    0 -0.33757072315E+02  0.31550025391E+02  0.91552348139E+01  0.47103740382E+02  0.00000000000E+00 0.  1.
         11    1    3    3    0    0 -0.41887587931E+02 -0.35429907720E+02  0.10901469188E+03  0.12204118743E+03  0.00000000000E+00 0. -1.
<mgrwt>
<rscale>  0 0.13944079E+03</rscale>
<asrwt>0</asrwt>
<pdfrwt beam="1">  1        2 0.44646226E-01 0.14618424E+03</pdfrwt>
<pdfrwt beam="2">  1       -2 0.95298583E-02 0.14618424E+03</pdfrwt>
<totfact> 0.77608719E+03</totfact>
</mgrwt>
</event>
<event>
 7    1  0.1330601E-005  0.2196956E+03  0.7546771E-02  0.1134110E+00
         -2   -1    0    0    0  501 -0.00000000000E+00  0.00000000000E+00  0.56373303739E+02  0.56373303739E+02  0.00000000000E+00 0.  1.
          2   -1    0    0  501    0  0.00000000000E+00 -0.00000000000E+00 -0.21404701142E+03  0.21404701142E+03  0.00000000000E+00 0. -1.
         23    2    1    2    0    0  0.18130535689E+02 -0.98149423370E+01 -0.71348792514E+02  0.11711944787E+03  0.90560838438E+02 0.  0.
          5    1    1    2  502    0 -0.40376456671E+02  0.48503132063E+02 -0.90319909463E+01  0.63925573394E+02  0.47000000000E+01 0. -1.
         -5    1    1    2    0  502  0.22245920982E+02 -0.38688189726E+02 -0.77292924221E+02  0.89375293898E+02  0.47000000000E+01 0. -1.
        -11    1    3    3    0    0  0.48785480106E+02  0.13934855814E+02 -0.55586102512E+02  0.75259670928E+02  0.00000000000E+00 0. -1.
         11    1    3    3    0    0 -0.30654944417E+02 -0.23749798151E+02 -0.15762690002E+02  0.41859776941E+02  0.00000000000E+00 0.  1.
<mgrwt>
<rscale>  0 0.21969558E+03</rscale>
<asrwt>0</asrwt>
<pdfrwt beam="2">  1        2 0.32930310E-01 0.21969558E+03</pdfrwt>
<pdfrwt beam="1">  1       -2 0.86728158E-02 0.21969558E+03</pdfrwt>
<totfact> 0.12837542E+04</totfact>
</mgrwt>
</event>
<event>
 7    1  0.1330601E-005  0.1451776E+03  0.7546771E-02  0.1216591E+00
          1   -1    0    0  501    0  0.00000000000E+00  0.00000000000E+00  0.44976454567E+02  0.44976454567E+02  0.00000000000E+00 0.  1.
         -1   -1    0    0    0  501 -0.00000000000E+00 -0.00000000000E+00 -0.39021421539E+03  0.39021421539E+03  0.00000000000E+00 0. -1.
         23    2    1    2    0    0 -0.60640956502E+02  0.42138398507E+02 -0.18483741307E+03  0.21884649004E+03  0.90972230374E+02 0.  0.
          5    1    1    2  502    0  0.59173598084E+02  0.18109706917E+02 -0.13898880542E+03  0.15221515768E+03  0.47000000000E+01 0.  1.
         -5    1    1    2    0  502  0.14673584172E+01 -0.60248105424E+02 -0.21411542332E+02  0.64129022236E+02  0.47000000000E+01 0.  1.
        -11    1    3    3    0    0 -0.38214834786E+02 -0.22050159509E+02 -0.43268566234E+02  0.61796051298E+02  0.00000000000E+00 0.  1.
         11    1    3    3    0    0 -0.22426121716E+02  0.64188558016E+02 -0.14156884684E+03  0.15705043874E+03  0.00000000000E+00 0. -1.
<mgrwt>
<rscale>  0 0.13760342E+03</rscale>
<asrwt>0</asrwt>
<pdfrwt beam="1">  1        1 0.69194548E-02 0.14517759E+03</pdfrwt>
<pdfrwt beam="2">  1       -1 0.60032954E-01 0.14517759E+03</pdfrwt>
<totfact> 0.29810516E+03</totfact>
</mgrwt>
</event>
<event>
 7    1  0.1330601E-005  0.1432120E+03  0.7546771E-02  0.1219424E+00
          2   -1    0    0  501    0  0.00000000000E+00  0.00000000000E+00  0.11696872358E+03  0.11696872358E+03  0.00000000000E+00 0. -1.
         -2   -1    0    0    0  501 -0.00000000000E+00 -0.00000000000E+00 -0.14417220051E+03  0.14417220051E+03  0.00000000000E+00 0.  1.
         23    2    1    2    0    0  0.55967083943E+02  0.41808969003E+02  0.18928938709E+01  0.11500303262E+03  0.91333510228E+02 0.  0.
          5    1    1    2  502    0  0.17358593421E+02  0.23782977214E+02 -0.36776482357E+02  0.47345014788E+02  0.47000000000E+01 0. -1.
         -5    1    1    2    0  502 -0.73325677364E+02 -0.65591946217E+02  0.76801115642E+01  0.98792876682E+02  0.47000000000E+01 0. -1.
        -11    1    3    3    0    0  0.39010252948E+02  0.19139008307E+02 -0.43513514684E+02  0.61494125201E+02  0.00000000000E+00 0.  1.
         11    1    3    3    0    0  0.16956830995E+02  0.22669960696E+02  0.45406408555E+02  0.53508907420E+02  0.00000000000E+00 0. -1.
<mgrwt>
<rscale>  0 0.13556489E+03</rscale>
<asrwt>0</asrwt>
<pdfrwt beam="1">  1        2 0.17995188E-01 0.14321203E+03</pdfrwt>
<pdfrwt beam="2">  1       -2 0.22180339E-01 0.14321203E+03</pdfrwt>
<totfact> 0.52709112E+03</totfact>
</mgrwt>
</event>
<event>
 7    1  0.1330601E-005  0.1416560E+03  0.7546771E-02  0.1229168E+00
         -1   -1    0    0    0  501 -0.00000000000E+00  0.00000000000E+00  0.74421276908E+03  0.74421276908E+03  0.00000000000E+00 0.  1.
          1   -1    0    0  501    0  0.00000000000E+00 -0.00000000000E+00 -0.33229881485E+02  0.33229881485E+02  0.00000000000E+00 0. -1.
         23    2    1    2    0    0 -0.30289312562E+02 -0.59369228326E+02  0.66528399853E+02  0.11760327820E+03  0.70443987166E+02 0.  0.
          5    1    1    2  502    0  0.67777115404E+02  0.72454974870E+02  0.50928634469E+03  0.51888161621E+03  0.47000000000E+01 0. -1.
         -5    1    1    2    0  502 -0.37487802843E+02 -0.13085746544E+02  0.13516814305E+03  0.14095775616E+03  0.47000000000E+01 0. -1.
        -11    1    3    3    0    0 -0.46664896565E+02 -0.17268468539E+02  0.46804650732E+02  0.68311696709E+02  0.00000000000E+00 0.  1.
         11    1    3    3    0    0  0.16375584003E+02 -0.42100759787E+02  0.19723749120E+02  0.49291581487E+02  0.00000000000E+00 0. -1.
<mgrwt>
<rscale>  0 0.12885258E+03</rscale>
<asrwt>0</asrwt>
<pdfrwt beam="2">  1        1 0.51122900E-02 0.14165596E+03</pdfrwt>
<pdfrwt beam="1">  1       -1 0.11449426E+00 0.14165596E+03</pdfrwt>
<totfact> 0.11710728E+03</totfact>
</mgrwt>
</event>
<event>
 7    1  0.1330601E-005  0.1497502E+03  0.7546771E-02  0.1203767E+00
          1   -1    0    0  501    0  0.00000000000E+00  0.00000000000E+00  0.64428504380E+03  0.64428504380E+03  0.00000000000E+00 0. -1.
         -1   -1    0    0    0  501 -0.00000000000E+00 -0.00000000000E+00 -0.43996246684E+02  0.43996246684E+02  0.00000000000E+00 0.  1.
         23    2    1    2    0    0 -0.95560181223E+02  0.20222431371E+02  0.46754943646E+03  0.48816917091E+03  0.10082642975E+03 0.  0.
          5    1    1    2  502    0  0.31732087292E+01 -0.37776892789E+02  0.10377488740E+01  0.38214261803E+02  0.47000000000E+01 0. -1.
         -5    1    1    2    0  502  0.92386972494E+02  0.17554461418E+02  0.13170161179E+03  0.16189785777E+03  0.47000000000E+01 0.  1.
        -11    1    3    3    0    0  0.86517704506E+01 -0.19816735945E+02  0.32587257575E+02  0.39108637303E+02  0.00000000000E+00 0.  1.
         11    1    3    3    0    0 -0.10421195167E+03  0.40039167317E+02  0.43496217888E+03  0.44906053361E+03  0.00000000000E+00 0. -1.
<mgrwt>
<rscale>  0 0.14735070E+03</rscale>
<asrwt>0</asrwt>
<pdfrwt beam="1">  1        1 0.99120769E-01 0.14975020E+03</pdfrwt>
<pdfrwt beam="2">  1       -1 0.67686538E-02 0.14975020E+03</pdfrwt>
<totfact> 0.34599660E+03</totfact>
</mgrwt>
</event>
<event>
 7    1  0.1330601E-005  0.3290945E+03  0.7546771E-02  0.1072848E+00
         -1   -1    0    0    0  501 -0.00000000000E+00  0.00000000000E+00  0.12508048474E+03  0.12508048474E+03  0.00000000000E+00 0.  1.
          1   -1    0    0  501    0  0.00000000000E+00 -0.00000000000E+00 -0.90880989616E+03  0.90880989616E+03  0.00000000000E+00 0. -1.
         23    2    1    2    0    0 -0.24236524480E+03 -0.18422096795E+03 -0.53203382969E+03  0.61957905050E+03  0.90221543828E+02 0.  0.
          5    1    1    2  502    0  0.54367060597E+02  0.11701258897E+03 -0.90572261041E+02  0.15771223074E+03  0.47000000000E+01 0. -1.
         -5    1    1    2    0  502  0.18799818420E+03  0.67208378984E+02 -0.16112332069E+03  0.25659909965E+03  0.47000000000E+01 0. -1.
        -11    1    3    3    0    0 -0.64534071037E+02 -0.33369245676E+02 -0.20825912944E+03  0.22056749052E+03  0.00000000000E+00 0. -1.
         11    1    3    3    0    0 -0.17783117376E+03 -0.15085172228E+03 -0.32377470025E+03  0.39901155998E+03  0.00000000000E+00 0.  1.
<mgrwt>
<rscale>  0 0.32616163E+03</rscale>
<asrwt>0</asrwt>
<pdfrwt beam="2">  1        1 0.13981691E+00 0.32909453E+03</pdfrwt>
<pdfrwt beam="1">  1       -1 0.19243151E-01 0.32909453E+03</pdfrwt>
<totfact> 0.40395099E+02</totfact>
</mgrwt>
</event>
<event>
 7    1  0.1330601E-005  0.1427945E+03  0.7546771E-02  0.1216130E+00
          1   -1    0    0  501    0  0.00000000000E+00  0.00000000000E+00  0.11290935061E+03  0.11290935061E+03  0.00000000000E+00 0. -1.
         -1   -1    0    0    0  501 -0.00000000000E+00 -0.00000000000E+00 -0.16072320370E+03  0.16072320370E+03  0.00000000000E+00 0.  1.
         23    2    1    2    0    0  0.48066489388E+02 -0.49552751495E+02 -0.45276832477E+01  0.12442146963E+03  0.10341344016E+03 0.  0.
          5    1    1    2  502    0 -0.13237762032E+02  0.88813204702E+02 -0.30938658376E+02  0.95091083994E+02  0.47000000000E+01 0.  1.
         -5    1    1    2    0  502 -0.34828727356E+02 -0.39260453208E+02 -0.12347511471E+02  0.54120000691E+02  0.47000000000E+01 0.  1.
        -11    1    3    3    0    0  0.68955716905E+02  0.49804203320E+00 -0.10898767256E+02  0.69813480557E+02  0.00000000000E+00 0.  1.
         11    1    3    3    0    0 -0.20889227517E+02 -0.50050793528E+02  0.63710840086E+01  0.54607989072E+02  0.00000000000E+00 0. -1.
<mgrwt>
<rscale>  0 0.13793847E+03</rscale>
<asrwt>0</asrwt>
<pdfrwt beam="1">  1        1 0.17370669E-01 0.14279445E+03</pdfrwt>
<pdfrwt beam="2">  1       -1 0.24726647E-01 0.14279445E+03</pdfrwt>
<totfact> 0.41858997E+03</totfact>
</mgrwt>
</event>
<event>
 7    1  0.1330601E-005  0.1318351E+03  0.7546771E-02  0.1238302E+00
          1   -1    0    0  501    0  0.00000000000E+00  0.00000000000E+00  0.66870737289E+03  0.66870737289E+03  0.00000000000E+00 0. -1.
         -1   -1    0    0    0  501 -0.00000000000E+00 -0.00000000000E+00 -0.22010449150E+02  0.22010449150E+02  0.00000000000E+00 0.  1.
         23    2    1    2    0    0 -0.41937646764E+02 -0.62117364215E+01  0.38472163610E+03  0.39744057298E+03  0.90282445043E+02 0.  0.
          5    1    1    2  502    0 -0.40200089293E+02  0.15789437058E+02  0.13373065310E+03  0.14061056533E+03  0.47000000000E+01 0. -1.
         -5    1    1    2    0  502  0.82137736058E+02 -0.95777006363E+01  0.12824463454E+03  0.15266668373E+03  0.47000000000E+01 0.  1.
        -11    1    3    3    0    0  0.11087942633E+02 -0.26939813783E+02  0.49643917812E+02  0.57560530003E+02  0.00000000000E+00 0.  1.
         11    1    3    3    0    0 -0.53025589398E+02  0.20728077361E+02  0.33507771829E+03  0.33988004298E+03  0.00000000000E+00 0. -1.
<mgrwt>
<rscale>  0 0.12295374E+03</rscale>
<asrwt>0</asrwt>
<pdfrwt beam="1">  1        1 0.10287804E+00 0.13183510E+03</pdfrwt>
<pdfrwt beam="2">  1       -1 0.33862235E-02 0.13183510E+03</pdfrwt>
<totfact> 0.90895836E+03</totfact>
</mgrwt>
</event>
<event>
 7    1  0.1330601E-005  0.1308525E+03  0.7546771E-02  0.1239115E+00
          1   -1    0    0  501    0  0.00000000000E+00  0.00000000000E+00  0.18259162405E+03  0.18259162405E+03  0.00000000000E+00 0. -1.
         -1   -1    0    0    0  501 -0.00000000000E+00 -0.00000000000E+00 -0.73324401208E+02  0.73324401208E+02  0.00000000000E+00 0.  1.
         23    2    1    2    0    0  0.21600092868E+02  0.32125415849E+02  0.53124402694E+02  0.11352785976E+03  0.92562230006E+02 0.  0.
          5    1    1    2  502    0 -0.48700932562E+02 -0.61449165202E+02  0.69494075636E+01  0.78855342253E+02  0.47000000000E+01 0. -1.
         -5    1    1    2    0  502  0.27100839693E+02  0.29323749353E+02  0.49193412580E+02  0.63532823245E+02  0.47000000000E+01 0. -1.
        -11    1    3    3    0    0  0.34632930139E+02  0.58230216943E+02  0.49959765521E+02  0.84179428521E+02  0.00000000000E+00 0.  1.
         11    1    3    3    0    0 -0.13032837271E+02 -0.26104801094E+02  0.31646371736E+01  0.29348431235E+02  0.00000000000E+00 0. -1.
<mgrwt>
<rscale>  0 0.12244628E+03</rscale>
<asrwt>0</asrwt>
<pdfrwt beam="1">  1        1 0.28091019E-01 0.13085249E+03</pdfrwt>
<pdfrwt beam="2">  1       -1 0.11280677E-01 0.13085249E+03</pdfrwt>
<totfact> 0.78535363E+03</totfact>
</mgrwt>
</event>
<event>
 7    1  0.1330601E-005  0.1599264E+03  0.7546771E-02  0.1196199E+00
          2   -1    0    0  501    0  0.00000000000E+00  0.00000000000E+00  0.97639573518E+02  0.97639573518E+02  0.00000000000E+00 0. -1.
         -2   -1    0    0    0  501 -0.00000000000E+00 -0.00000000000E+00 -0.25065579518E+03  0.25065579518E+03  0.00000000000E+00 0.  1.
         23    2    1    2    0    0 -0.22041437714E+02  0.97289150506E+02 -0.14300204798E+02  0.13659132927E+03  0.92204618054E+02 0.  0.
          5    1    1    2  502    0  0.51197141175E+02 -0.37142951937E+02 -0.12932883447E+03  0.14404438055E+03  0.47000000000E+01 0. -1.
         -5    1    1    2    0  502 -0.29155703462E+02 -0.60146198569E+02 -0.93871823938E+01  0.67659658881E+02  0.47000000000E+01 0. -1.
        -11    1    3    3    0    0  0.12108035233E+02  0.65896793530E+01 -0.34888627381E+02  0.37513260478E+02  0.00000000000E+00 0.  1.
         11    1    3    3    0    0 -0.34149472947E+02  0.90699471153E+02  0.20588422583E+02  0.99078068787E+02  0.00000000000E+00 0. -1.
<mgrwt>
<rscale>  0 0.15353157E+03</rscale>
<asrwt>0</asrwt>
<pdfrwt beam="1">  1        2 0.15021473E-01 0.15992644E+03</pdfrwt>
<pdfrwt beam="2">  1       -2 0.38562430E-01 0.15992644E+03</pdfrwt>
<totfact> 0.24216530E+03</totfact>
</mgrwt>
</event>
<event>
 7    1  0.1330601E-005  0.1669481E+03  0.7546771E-02  0.1187457E+00
         -1   -1    0    0    0  501 -0.00000000000E+00  0.00000000000E+00  0.10651115753E+03  0.10651115753E+03  0.00000000000E+00 0.  1.
          1   -1    0    0  501    0  0.00000000000E+00 -0.00000000000E+00 -0.25540847895E+03  0.25540847895E+03  0.00000000000E+00 0. -1.
         23    2    1    2    0    0  0.75586317960E+02  0.80825270701E+02 -0.12879206231E+03  0.19376531919E+03  0.93335886772E+02 0.  0.
          5    1    1    2  502    0 -0.57542583745E+02  0.32338727183E+01  0.33403869111E+02  0.66779602787E+02  0.47000000000E+01 0.  1.
         -5    1    1    2    0  502 -0.18043734215E+02 -0.84059143420E+02 -0.53509128229E+02  0.10137471450E+03  0.47000000000E+01 0.  1.
        -11    1    3    3    0    0 -0.14900896164E+02 -0.76398177021E+01 -0.70594001266E+01  0.18172469595E+02  0.00000000000E+00 0. -1.
         11    1    3    3    0    0  0.90487214124E+02  0.88465088403E+02 -0.12173266218E+03  0.17559284959E+03  0.00000000000E+00 0.  1.
<mgrwt>
<rscale>  0 0.16110304E+03</rscale>
<asrwt>0</asrwt>
<pdfrwt beam="2">  1        1 0.39293612E-01 0.16694805E+03</pdfrwt>
<pdfrwt beam="1">  1       -1 0.16386332E-01 0.16694805E+03</pdfrwt>
<totfact> 0.29301188E+03</totfact>
</mgrwt>
</event>
<event>
 7    1  0.1330601E-005  0.1325294E+03  0.7546771E-02  0.1236531E+00
         -1   -1    0    0    0  501 -0.00000000000E+00  0.00000000000E+00  0.27337170466E+02  0.27337170466E+02  0.00000000000E+00 0.  1.
          1   -1    0    0  501    0  0.00000000000E+00 -0.00000000000E+00 -0.52003088006E+03  0.52003088006E+03  0.00000000000E+00 0. -1.
         23    2    1    2    0    0  0.39802197739E+02  0.18849774911E+02 -0.26549840597E+03  0.28434383543E+03  0.91774093378E+02 0.  0.
          5    1    1    2  502    0 -0.47916246087E+01  0.50486522496E+02 -0.12175741074E+03  0.13198032312E+03  0.47000000000E+01 0.  1.
         -5    1    1    2    0  502 -0.35010573130E+02 -0.69336297406E+02 -0.10543789288E+03  0.13104389198E+03  0.47000000000E+01 0.  1.
        -11    1    3    3    0    0  0.68586549544E+02  0.42382450041E+01 -0.16332534157E+03  0.17719267676E+03  0.00000000000E+00 0.  1.
         11    1    3    3    0    0 -0.28784351805E+02  0.14611529907E+02 -0.10217306440E+03  0.10715115867E+03  0.00000000000E+00 0. -1.
<mgrwt>
<rscale>  0 0.12406938E+03</rscale>
<asrwt>0</asrwt>
<pdfrwt beam="2">  1        1 0.80004749E-01 0.13252936E+03</pdfrwt>
<pdfrwt beam="1">  1       -1 0.42057186E-02 0.13252936E+03</pdfrwt>
<totfact> 0.93083161E+03</totfact>
</mgrwt>
</event>
<event>
 7    1  0.1330601E-005  0.1339665E+03  0.7546771E-02  0.1234248E+00
         -2   -1    0    0    0  501 -0.00000000000E+00  0.00000000000E+00  0.57852650149E+02  0.57852650149E+02  0.00000000000E+00 0.  1.
          2   -1    0    0  501    0  0.00000000000E+00 -0.00000000000E+00 -0.33109161659E+03  0.33109161659E+03  0.00000000000E+00 0. -1.
         23    2    1    2    0    0  0.36815922205E+02  0.31674496766E+02 -0.22321088990E+03  0.24594133052E+03  0.91133697472E+02 0.  0.
          5    1    1    2  502    0 -0.32997458812E+02 -0.61820411160E+02 -0.75469742961E+02  0.10309397474E+03  0.47000000000E+01 0.  1.
         -5    1    1    2    0  502 -0.38184633934E+01  0.30145914394E+02  0.25441666413E+02  0.39908961490E+02  0.47000000000E+01 0.  1.
        -11    1    3    3    0    0 -0.10099889497E+02 -0.19452199645E+02 -0.15229255673E+02  0.26689437372E+02  0.00000000000E+00 0.  1.
         11    1    3    3    0    0  0.46915811702E+02  0.51126696411E+02 -0.20798163422E+03  0.21925189315E+03  0.00000000000E+00 0. -1.
<mgrwt>
<rscale>  0 0.12552708E+03</rscale>
<asrwt>0</asrwt>
<pdfrwt beam="2">  1        2 0.50937171E-01 0.13396653E+03</pdfrwt>
<pdfrwt beam="1">  1       -2 0.89004078E-02 0.13396653E+03</pdfrwt>
<totfact> 0.74651988E+03</totfact>
</mgrwt>
</event>
<event>
 7    1  0.1330601E-005  0.1283840E+03  0.7546771E-02  0.1244336E+00
         -2   -1    0    0    0  501 -0.00000000000E+00  0.00000000000E+00  0.53000652487E+02  0.53000652487E+02  0.00000000000E+00 0.  1.
          2   -1    0    0  501    0  0.00000000000E+00 -0.00000000000E+00 -0.29184799813E+03  0.29184799813E+03  0.00000000000E+00 0. -1.
         23    2    1    2    0    0 -0.15749342553E+02 -0.24680411811E+02 -0.17961606876E+03  0.20345980238E+03  0.90976889986E+02 0.  0.
          5    1    1    2  502    0 -0.36446276852E+02  0.55142953071E+02 -0.41671650752E+02  0.78279581285E+02  0.47000000000E+01 0. -1.
         -5    1    1    2    0  502  0.52195619405E+02 -0.30462541260E+02 -0.17559626134E+02  0.63109266951E+02  0.47000000000E+01 0. -1.
        -11    1    3    3    0    0  0.28630920982E+02 -0.75488053534E+01 -0.13510406945E+03  0.13831060581E+03  0.00000000000E+00 0. -1.
         11    1    3    3    0    0 -0.44380263535E+02 -0.17131606457E+02 -0.44511999308E+02  0.65149196569E+02  0.00000000000E+00 0.  1.
<mgrwt>
<rscale>  0 0.11925200E+03</rscale>
<asrwt>0</asrwt>
<pdfrwt beam="2">  1        2 0.44899692E-01 0.12838404E+03</pdfrwt>
<pdfrwt beam="1">  1       -2 0.81539466E-02 0.12838404E+03</pdfrwt>
<totfact> 0.97424521E+03</totfact>
</mgrwt>
</event>
<event>
 7    1  0.1330601E-005  0.1338099E+03  0.7546771E-02  0.1236226E+00
         -1   -1    0    0    0  501 -0.00000000000E+00  0.00000000000E+00  0.52943174923E+02  0.52943174923E+02  0.00000000000E+00 0.  1.
          1   -1    0    0  501    0  0.00000000000E+00 -0.00000000000E+00 -0.31709010527E+03  0.31709010527E+03  0.00000000000E+00 0. -1.
         23    2    1    2    0    0  0.12923918153E+02  0.45969031765E+02 -0.19611835853E+03  0.21992342553E+03  0.87313933616E+02 0.  0.
          5    1    1    2  502    0  0.27039374208E+02 -0.32380831199E+02 -0.92014864130E+02  0.10133346539E+03  0.47000000000E+01 0.  1.
         -5    1    1    2    0  502 -0.39963292361E+02 -0.13588200566E+02  0.23986292317E+02  0.48776389268E+02  0.47000000000E+01 0.  1.
        -11    1    3    3    0    0 -0.35369925754E+02  0.34669939665E+02 -0.10774319157E+03  0.11858175110E+03  0.00000000000E+00 0.  1.
         11    1    3    3    0    0  0.48293843907E+02  0.11299092100E+02 -0.88375166957E+02  0.10134167443E+03  0.00000000000E+00 0. -1.
<mgrwt>
<rscale>  0 0.12426302E+03</rscale>
<asrwt>0</asrwt>
<pdfrwt beam="2">  1        1 0.48783094E-01 0.13380987E+03</pdfrwt>
<pdfrwt beam="1">  1       -1 0.81451037E-02 0.13380987E+03</pdfrwt>
<totfact> 0.65196597E+03</totfact>
</mgrwt>
</event>
<event>
 7    1  0.1330601E-005  0.1943431E+03  0.7546771E-02  0.1158078E+00
          1   -1    0    0  501    0  0.00000000000E+00  0.00000000000E+00  0.24866523431E+03  0.24866523431E+03  0.00000000000E+00 0. -1.
         -1   -1    0    0    0  501 -0.00000000000E+00 -0.00000000000E+00 -0.21083341312E+03  0.21083341312E+03  0.00000000000E+00 0.  1.
         23    2    1    2    0    0 -0.74149289818E+02 -0.13428047338E+03  0.15127499400E+03  0.23446843198E+03  0.92530854725E+02 0.  0.
          5    1    1    2  502    0  0.51898497658E+02 -0.33681393988E+00 -0.57186844645E+02  0.77369197380E+02  0.47000000000E+01 0. -1.
         -5    1    1    2    0  502  0.22250792159E+02  0.13461728732E+03 -0.56256328165E+02  0.14766101807E+03  0.47000000000E+01 0.  1.
        -11    1    3    3    0    0 -0.54377082989E+02 -0.40843077298E+02  0.11235924095E+03  0.13133782069E+03  0.00000000000E+00 0.  1.
         11    1    3    3    0    0 -0.19772206829E+02 -0.93437396084E+02  0.38915753045E+02  0.10313061129E+03  0.00000000000E+00 0. -1.
<mgrwt>
<rscale>  0 0.19042559E+03</rscale>
<asrwt>0</asrwt>
<pdfrwt beam="1">  1        1 0.38256190E-01 0.19434311E+03</pdfrwt>
<pdfrwt beam="2">  1       -1 0.32435910E-01 0.19434311E+03</pdfrwt>
<totfact> 0.99069022E+02</totfact>
</mgrwt>
</event>
<event>
 7    1  0.1330601E-005  0.1601417E+03  0.7546771E-02  0.1196230E+00
         -2   -1    0    0    0  501 -0.00000000000E+00  0.00000000000E+00  0.24720916319E+02  0.24720916319E+02  0.00000000000E+00 0.  1.
          2   -1    0    0  501    0  0.00000000000E+00 -0.00000000000E+00 -0.91456696851E+03  0.91456696851E+03  0.00000000000E+00 0. -1.
         23    2    1    2    0    0 -0.29584999970E+02 -0.95545632146E+02 -0.32055998657E+03  0.34790646046E+03  0.90972304548E+02 0.  0.
          5    1    1    2  502    0  0.77877193135E+02  0.70125243741E+02 -0.35213603442E+03  0.36742929083E+03  0.47000000000E+01 0. -1.
         -5    1    1    2    0  502 -0.48292193166E+02  0.25420388405E+02 -0.21715003120E+03  0.22395213354E+03  0.47000000000E+01 0. -1.
        -11    1    3    3    0    0 -0.60359307065E+02 -0.42767334445E+02 -0.16781744690E+03  0.18339843600E+03  0.00000000000E+00 0.  1.
         11    1    3    3    0    0  0.30774307095E+02 -0.52778297701E+02 -0.15274253967E+03  0.16450802446E+03  0.00000000000E+00 0. -1.
<mgrwt>
<rscale>  0 0.15350621E+03</rscale>
<asrwt>0</asrwt>
<pdfrwt beam="2">  1        2 0.14070261E+00 0.16014170E+03</pdfrwt>
<pdfrwt beam="1">  1       -2 0.38032180E-02 0.16014170E+03</pdfrwt>
<totfact> 0.85841289E+03</totfact>
</mgrwt>
</event>
<event>
 7    1  0.1330601E-005  0.1645199E+03  0.7546771E-02  0.1200118E+00
          1   -1    0    0  501    0  0.00000000000E+00  0.00000000000E+00  0.10462190133E+03  0.10462190133E+03  0.00000000000E+00 0. -1.
         -1   -1    0    0    0  501 -0.00000000000E+00 -0.00000000000E+00 -0.25010500256E+03  0.25010500256E+03  0.00000000000E+00 0.  1.
         23    2    1    2    0    0  0.47274430256E+02 -0.53724243436E+02  0.25582127215E+02  0.11738724150E+03  0.89465932880E+02 0.  0.
          5    1    1    2  502    0  0.42457727625E+02  0.24256111978E+02 -0.93498934139E+01  0.50005280823E+02  0.47000000000E+01 0. -1.
         -5    1    1    2    0  502 -0.89732157881E+02  0.29468131458E+02 -0.16171533504E+03  0.18733438156E+03  0.47000000000E+01 0.  1.
        -11    1    3    3    0    0 -0.98561747569E+01 -0.54718516659E+02  0.23062328149E+02  0.60192451568E+02  0.00000000000E+00 0.  1.
         11    1    3    3    0    0  0.57130605013E+02  0.99427322289E+00  0.25197990664E+01  0.57194789935E+02  0.00000000000E+00 0. -1.
<mgrwt>
<rscale>  0 0.15028914E+03</rscale>
<asrwt>0</asrwt>
<pdfrwt beam="1">  1        1 0.16095677E-01 0.16451992E+03</pdfrwt>
<pdfrwt beam="2">  1       -1 0.38477693E-01 0.16451992E+03</pdfrwt>
<totfact> 0.21999313E+03</totfact>
</mgrwt>
</event>
<event>
 7    1  0.1330601E-005  0.1868973E+03  0.7546771E-02  0.1166325E+00
          2   -1    0    0  501    0  0.00000000000E+00  0.00000000000E+00  0.70138548071E+03  0.70138548071E+03  0.00000000000E+00 0. -1.
         -2   -1    0    0    0  501 -0.00000000000E+00 -0.00000000000E+00 -0.44728774756E+02  0.44728774756E+02  0.00000000000E+00 0.  1.
         23    2    1    2    0    0 -0.11317312213E+03  0.80608365136E+02  0.33715640142E+03  0.37596422937E+03  0.91481138203E+02 0.  0.
          5    1    1    2  502    0 -0.21835664718E+02 -0.67140686521E+01  0.11948996132E+02  0.26205790965E+02  0.47000000000E+01 0.  1.
         -5    1    1    2    0  502  0.13500878685E+03 -0.73894296484E+02  0.30755130841E+03  0.34394423513E+03  0.47000000000E+01 0.  1.
        -11    1    3    3    0    0 -0.47460955227E+02  0.85182857736E+02  0.16533174465E+03  0.19194594893E+03  0.00000000000E+00 0. -1.
         11    1    3    3    0    0 -0.65712166902E+02 -0.45744926000E+01  0.17182465677E+03  0.18401828044E+03  0.00000000000E+00 0.  1.
<mgrwt>
<rscale>  0 0.18153591E+03</rscale>
<asrwt>0</asrwt>
<pdfrwt beam="1">  1        2 0.10790545E+00 0.18689729E+03</pdfrwt>
<pdfrwt beam="2">  1       -2 0.68813505E-02 0.18689729E+03</pdfrwt>
<totfact> 0.49224192E+03</totfact>
</mgrwt>
</event>
<event>
 7    1  0.1330601E-005  0.1644653E+03  0.7546771E-02  0.1190441E+00
         -2   -1    0    0    0  501 -0.00000000000E+00  0.00000000000E+00  0.56347879516E+03  0.56347879516E+03  0.00000000000E+00 0.  1.
          2   -1    0    0  501    0  0.00000000000E+00 -0.00000000000E+00 -0.55070624108E+02  0.55070624108E+02  0.00000000000E+00 0. -1.
         23    2    1    2    0    0  0.81925188886E+02 -0.68658850543E+02  0.87317563268E+02  0.16648070178E+03  0.93089703387E+02 0.  0.
          5    1    1    2  502    0 -0.58907653564E+02 -0.18434680797E+02  0.26170666431E+03  0.26892827529E+03  0.47000000000E+01 0. -1.
         -5    1    1    2    0  502 -0.23017535321E+02  0.87093531340E+02  0.15938394347E+03  0.18314044220E+03  0.47000000000E+01 0. -1.
        -11    1    3    3    0    0 -0.25577286412E+01 -0.42965012834E+02  0.10827512309E+01  0.43054693750E+02  0.00000000000E+00 0. -1.
         11    1    3    3    0    0  0.84482917527E+02 -0.25693837709E+02  0.86234812037E+02  0.12342600803E+03  0.00000000000E+00 0.  1.
<mgrwt>
<rscale>  0 0.15846455E+03</rscale>
<asrwt>0</asrwt>
<pdfrwt beam="2">  1        2 0.84724041E-02 0.16446527E+03</pdfrwt>
<pdfrwt beam="1">  1       -2 0.86689042E-01 0.16446527E+03</pdfrwt>
<totfact> 0.92462699E+02</totfact>
</mgrwt>
</event>
<event>
 7    1  0.1330601E-005  0.1751992E+03  0.7546771E-02  0.1178391E+00
          2   -1    0    0  501    0  0.00000000000E+00  0.00000000000E+00  0.36181810738E+02  0.36181810738E+02  0.00000000000E+00 0. -1.
         -2   -1    0    0    0  501 -0.00000000000E+00 -0.00000000000E+00 -0.80445887853E+03  0.80445887853E+03  0.00000000000E+00 0.  1.
         23    2    1    2    0    0  0.44288923952E+02  0.11440575195E+03 -0.24760733002E+03  0.29128493225E+03  0.92126744294E+02 0.  0.
          5    1    1    2  502    0 -0.88017760028E+02 -0.77742028567E+02 -0.36735751741E+03  0.38570012275E+03  0.47000000000E+01 0.  1.
         -5    1    1    2    0  502  0.43728836077E+02 -0.36663723384E+02 -0.15331222036E+03  0.16365563427E+03  0.47000000000E+01 0.  1.
        -11    1    3    3    0    0  0.63579714106E+02  0.45966714276E+02 -0.16200363674E+03  0.18000138106E+03  0.00000000000E+00 0.  1.
         11    1    3    3    0    0 -0.19290790155E+02  0.68439037674E+02 -0.85603693277E+02  0.11128355119E+03  0.00000000000E+00 0. -1.
<mgrwt>
<rscale>  0 0.16948031E+03</rscale>
<asrwt>0</asrwt>
<pdfrwt beam="1">  1        2 0.55664328E-02 0.17519923E+03</pdfrwt>
<pdfrwt beam="2">  1       -2 0.12376290E+00 0.17519923E+03</pdfrwt>
<totfact> 0.69206698E+02</totfact>
</mgrwt>
</event>
<event>
 7    1  0.1330601E-005  0.1296815E+03  0.7546771E-02  0.1242154E+00
         -1   -1    0    0    0  501 -0.00000000000E+00  0.00000000000E+00  0.91107803685E+02  0.91107803685E+02  0.00000000000E+00 0.  1.
          1   -1    0    0  501    0  0.00000000000E+00 -0.00000000000E+00 -0.15063286289E+03  0.15063286289E+03  0.00000000000E+00 0. -1.
         23    2    1    2    0    0  0.23898102510E+02 -0.24864429326E+02 -0.56175256781E+02  0.11201591189E+03  0.90567907630E+02 0.  0.
          5    1    1    2  502    0  0.33464773789E+02  0.92089968301E+01  0.42078701593E+02  0.54748550986E+02  0.47000000000E+01 0.  1.
         -5    1    1    2    0  502 -0.57362876300E+02  0.15655432496E+02 -0.45428504014E+02  0.74976203698E+02  0.47000000000E+01 0.  1.
        -11    1    3    3    0    0  0.10765297017E+02 -0.55069625475E+02 -0.12801175503E+02  0.57553673767E+02  0.00000000000E+00 0.  1.
         11    1    3    3    0    0  0.13132805494E+02  0.30205196149E+02 -0.43374081279E+02  0.54462238122E+02  0.00000000000E+00 0. -1.
<mgrwt>
<rscale>  0 0.12057374E+03</rscale>
<asrwt>0</asrwt>
<pdfrwt beam="2">  1        1 0.23174286E-01 0.12968150E+03</pdfrwt>
<pdfrwt beam="1">  1       -1 0.14016585E-01 0.12968150E+03</pdfrwt>
<totfact> 0.71384681E+03</totfact>
</mgrwt>
</event>
<event>
 7    1  0.1330601E-005  0.1356752E+03  0.7546771E-02  0.1232846E+00
          2   -1    0    0  501    0  0.00000000000E+00  0.00000000000E+00  0.18340044379E+03  0.18340044379E+03  0.00000000000E+00 0. -1.
         -2   -1    0    0    0  501 -0.00000000000E+00 -0.00000000000E+00 -0.77518226603E+02  0.77518226603E+02  0.00000000000E+00 0.  1.
         23    2    1    2    0    0  0.52610719612E+02 -0.39331603409E+01  0.37387243514E+02  0.10893405141E+03  0.87666778257E+02 0.  0.
          5    1    1    2  502    0 -0.42869495253E+02 -0.54226035087E+02  0.61082499975E+02  0.92365677108E+02  0.47000000000E+01 0.  1.
         -5    1    1    2    0  502 -0.97412243589E+01  0.58159195428E+02  0.74124737027E+01  0.59618941883E+02  0.47000000000E+01 0.  1.
        -11    1    3    3    0    0  0.13724995439E+02 -0.35558644476E+02 -0.10580718849E+02  0.39556849068E+02  0.00000000000E+00 0.  1.
         11    1    3    3    0    0  0.38885724173E+02  0.31625484135E+02  0.47967962362E+02  0.69377202339E+02  0.00000000000E+00 0. -1.
<mgrwt>
<rscale>  0 0.12643363E+03</rscale>
<asrwt>0</asrwt>
<pdfrwt beam="1">  1        2 0.28215453E-01 0.13567521E+03</pdfrwt>
<pdfrwt beam="2">  1       -2 0.11925881E-01 0.13567521E+03</pdfrwt>
<totfact> 0.88584200E+03</totfact>
</mgrwt>
</event>
<event>
 7    1  0.1330601E-005  0.1509688E+03  0.7546771E-02  0.1208356E+00
          1   -1    0    0  501    0  0.00000000000E+00  0.00000000000E+00  0.20557320093E+03  0.20557320093E+03  0.00000000000E+00 0. -1.
         -1   -1    0    0    0  501 -0.00000000000E+00 -0.00000000000E+00 -0.14191707885E+03  0.14191707885E+03  0.00000000000E+00 0.  1.
         23    2    1    2    0    0 -0.13637191142E+02  0.83551396540E+02  0.13249883139E+03  0.18156588316E+03  0.90793285873E+02 0.  0.
          5    1    1    2  502    0 -0.31974041682E+02 -0.65183805728E+02 -0.86897159560E+02  0.11333346465E+03  0.47000000000E+01 0.  1.
         -5    1    1    2    0  502  0.45611232824E+02 -0.18367590812E+02  0.18054450250E+02  0.52590931973E+02  0.47000000000E+01 0.  1.
        -11    1    3    3    0    0  0.26361295749E+01  0.49197579630E+02  0.61835075583E+01  0.49654675372E+02  0.00000000000E+00 0.  1.
         11    1    3    3    0    0 -0.16273320717E+02  0.34353816910E+02  0.12631532384E+03  0.13191120778E+03  0.00000000000E+00 0. -1.
<mgrwt>
<rscale>  0 0.14376117E+03</rscale>
<asrwt>0</asrwt>
<pdfrwt beam="1">  1        1 0.31626646E-01 0.15096883E+03</pdfrwt>
<pdfrwt beam="2">  1       -1 0.21833397E-01 0.15096883E+03</pdfrwt>
<totfact> 0.24127560E+03</totfact>
</mgrwt>
</event>
<event>
 7    1  0.1330601E-005  0.1637134E+03  0.7546771E-02  0.1192092E+00
          2   -1    0    0  501    0  0.00000000000E+00  0.00000000000E+00  0.62206737518E+02  0.62206737518E+02  0.00000000000E+00 0. -1.
         -2   -1    0    0    0  501 -0.00000000000E+00 -0.00000000000E+00 -0.37520777176E+03  0.37520777176E+03  0.00000000000E+00 0.  1.
         23    2    1    2    0    0 -0.97074396913E+02 -0.41873363080E+02 -0.17555881138E+03  0.22365663882E+03  0.89580013190E+02 0.  0.
          5    1    1    2  502    0  0.67979758658E+02 -0.33341913542E+02 -0.97796324362E+02  0.12377052090E+03  0.47000000000E+01 0. -1.
         -5    1    1    2    0  502  0.29094638255E+02  0.75215276622E+02 -0.39645898500E+02  0.89987349558E+02  0.47000000000E+01 0. -1.
        -11    1    3    3    0    0 -0.19905637926E+02 -0.53297496190E+02 -0.49502608714E+02  0.75414625842E+02  0.00000000000E+00 0.  1.
         11    1    3    3    0    0 -0.77168758988E+02  0.11424133110E+02 -0.12605620267E+03  0.14824201298E+03  0.00000000000E+00 0. -1.
<mgrwt>
<rscale>  0 0.15702893E+03</rscale>
<asrwt>0</asrwt>
<pdfrwt beam="1">  1        2 0.95702673E-02 0.16371335E+03</pdfrwt>
<pdfrwt beam="2">  1       -2 0.57724273E-01 0.16371335E+03</pdfrwt>
<totfact> 0.18935931E+03</totfact>
</mgrwt>
</event>
<event>
 7    1  0.1330601E-005  0.1333815E+03  0.7546771E-02  0.1236083E+00
         -2   -1    0    0    0  501 -0.00000000000E+00  0.00000000000E+00  0.50097929340E+02  0.50097929340E+02  0.00000000000E+00 0.  1.
          2   -1    0    0  501    0  0.00000000000E+00 -0.00000000000E+00 -0.43598708227E+03  0.43598708227E+03  0.00000000000E+00 0. -1.
         23    2    1    2    0    0 -0.16034858127E+02  0.43862569607E+02 -0.32350151694E+03  0.33883405460E+03  0.89298619286E+02 0.  0.
          5    1    1    2  502    0 -0.44600539056E+02 -0.39245498986E+01  0.83353941406E+01  0.45784047129E+02  0.47000000000E+01 0.  1.
         -5    1    1    2    0  502  0.60635397184E+02 -0.39938019708E+02 -0.70723030131E+02  0.10146690988E+03  0.47000000000E+01 0.  1.
        -11    1    3    3    0    0  0.35020372539E+02  0.97895607568E+01 -0.16274074662E+03  0.16675374839E+03  0.00000000000E+00 0. -1.
         11    1    3    3    0    0 -0.51055230666E+02  0.34073008850E+02 -0.16076077032E+03  0.17208030621E+03  0.00000000000E+00 0.  1.
<mgrwt>
<rscale>  0 0.12435356E+03</rscale>
<asrwt>0</asrwt>
<pdfrwt beam="2">  1        2 0.67074934E-01 0.13338151E+03</pdfrwt>
<pdfrwt beam="1">  1       -2 0.77073740E-02 0.13338151E+03</pdfrwt>
<totfact> 0.69535687E+03</totfact>
</mgrwt>
</event>
<event>
 7    1  0.1330601E-005  0.2739249E+03  0.7546771E-02  0.1101104E+00
          1   -1    0    0  501    0  0.00000000000E+00  0.00000000000E+00  0.18367908926E+03  0.18367908926E+03  0.00000000000E+00 0. -1.
         -1   -1    0    0    0  501 -0.00000000000E+00 -0.00000000000E+00 -0.40691201536E+03  0.40691201536E+03  0.00000000000E+00 0.  1.
         23    2    1    2    0    0  0.22262710214E+03 -0.99229246659E+02 -0.17305909418E+03  0.31210898833E+03  0.89740183417E+02 0.  0.
          5    1    1    2  502    0 -0.21785959534E+03  0.10459951066E+03 -0.74298818008E+02  0.25287598792E+03  0.47000000000E+01 0. -1.
         -5    1    1    2    0  502 -0.47675068052E+01 -0.53702639964E+01  0.24124986087E+02  0.25606128372E+02  0.47000000000E+01 0. -1.
        -11    1    3    3    0    0  0.14779978782E+03 -0.34617385431E+02 -0.63520754717E+02  0.16455402437E+03  0.00000000000E+00 0.  1.
         11    1    3    3    0    0  0.74827314316E+02 -0.64611861228E+02 -0.10953833946E+03  0.14755496397E+03  0.00000000000E+00 0. -1.
<mgrwt>
<rscale>  0 0.27030654E+03</rscale>
<asrwt>0</asrwt>
<pdfrwt beam="1">  1        1 0.28258322E-01 0.27392495E+03</pdfrwt>
<pdfrwt beam="2">  1       -1 0.62601848E-01 0.27392495E+03</pdfrwt>
<totfact> 0.43921379E+02</totfact>
</mgrwt>
</event>
<event>
 7    1  0.1330601E-005  0.2162113E+03  0.7546771E-02  0.1139993E+00
         -1   -1    0    0    0  501 -0.00000000000E+00  0.00000000000E+00  0.12762460647E+04  0.12762460647E+04  0.00000000000E+00 0.  1.
          1   -1    0    0  501    0  0.00000000000E+00 -0.00000000000E+00 -0.38717649144E+02  0.38717649144E+02  0.00000000000E+00 0. -1.
         23    2    1    2    0    0 -0.15742589204E+03 -0.79557435337E+02  0.36588286964E+03  0.41690286029E+03  0.93943725820E+02 0.  0.
          5    1    1    2  502    0  0.38853748341E+02 -0.12541117227E+01  0.46814628799E+03  0.46978103784E+03  0.47000000000E+01 0.  1.
         -5    1    1    2    0  502  0.11857214370E+03  0.80811547060E+02  0.40349925793E+03  0.42827981571E+03  0.47000000000E+01 0.  1.
        -11    1    3    3    0    0 -0.97557017200E+02 -0.78665619416E+02  0.16445013041E+03  0.20675951411E+03  0.00000000000E+00 0. -1.
         11    1    3    3    0    0 -0.59868874839E+02 -0.89181592138E+00  0.20143273924E+03  0.21014334619E+03  0.00000000000E+00 0.  1.
<mgrwt>
<rscale>  0 0.21199799E+03</rscale>
<asrwt>0</asrwt>
<pdfrwt beam="2">  1        1 0.59565624E-02 0.21621133E+03</pdfrwt>
<pdfrwt beam="1">  1       -1 0.19634552E+00 0.21621133E+03</pdfrwt>
<totfact> 0.23143113E+02</totfact>
</mgrwt>
</event>
<event>
 7    1  0.1330601E-005  0.1387984E+03  0.7546771E-02  0.1226461E+00
          2   -1    0    0  501    0  0.00000000000E+00  0.00000000000E+00  0.48195746254E+03  0.48195746254E+03  0.00000000000E+00 0. -1.
         -2   -1    0    0    0  501 -0.00000000000E+00 -0.00000000000E+00 -0.31898542326E+02  0.31898542326E+02  0.00000000000E+00 0.  1.
         23    2    1    2    0    0 -0.52890917218E+02 -0.28946396721E+02  0.18933942072E+03  0.21849242928E+03  0.90852531096E+02 0.  0.
          5    1    1    2  502    0  0.94500026599E+01 -0.25915193073E+02  0.20189522546E+03  0.20382510112E+03  0.47000000000E+01 0. -1.
         -5    1    1    2    0  502  0.43440914559E+02  0.54861589794E+02  0.58824274037E+02  0.91538474470E+02  0.47000000000E+01 0. -1.
        -11    1    3    3    0    0 -0.16591700278E+02  0.26148651192E+02  0.20288123628E+02  0.37022215461E+02  0.00000000000E+00 0.  1.
         11    1    3    3    0    0 -0.36299216941E+02 -0.55095047913E+02  0.16905129709E+03  0.18147021382E+03  0.00000000000E+00 0. -1.
<mgrwt>
<rscale>  0 0.13067238E+03</rscale>
<asrwt>0</asrwt>
<pdfrwt beam="1">  1        2 0.74147297E-01 0.13879836E+03</pdfrwt>
<pdfrwt beam="2">  1       -2 0.49074684E-02 0.13879836E+03</pdfrwt>
<totfact> 0.12415533E+04</totfact>
</mgrwt>
</event>
<event>
 7    1  0.1330601E-005  0.3135673E+03  0.7546771E-02  0.1080133E+00
         -1   -1    0    0    0  501 -0.00000000000E+00  0.00000000000E+00  0.21799148990E+03  0.21799148990E+03  0.00000000000E+00 0.  1.
          1   -1    0    0  501    0  0.00000000000E+00 -0.00000000000E+00 -0.46254956980E+03  0.46254956980E+03  0.00000000000E+00 0. -1.
         23    2    1    2    0    0 -0.26663759943E+03  0.10771961278E+03 -0.20520858057E+03  0.36451438790E+03  0.89783367272E+02 0.  0.
          5    1    1    2  502    0  0.33179336929E+02  0.31085148234E+01 -0.46565521949E+02  0.57454060760E+02  0.47000000000E+01 0. -1.
         -5    1    1    2    0  502  0.23345826250E+03 -0.11082812761E+03  0.72160226214E+01  0.25857261104E+03  0.47000000000E+01 0. -1.
        -11    1    3    3    0    0 -0.38317411142E+02  0.48563005870E+02 -0.21281669247E+02  0.65417879679E+02  0.00000000000E+00 0. -1.
         11    1    3    3    0    0 -0.22832018829E+03  0.59156606915E+02 -0.18392691132E+03  0.29909650822E+03  0.00000000000E+00 0.  1.
<mgrwt>
<rscale>  0 0.31044526E+03</rscale>
<asrwt>0</asrwt>
<pdfrwt beam="2">  1        1 0.71161472E-01 0.31356734E+03</pdfrwt>
<pdfrwt beam="1">  1       -1 0.33537153E-01 0.31356734E+03</pdfrwt>
<totfact> 0.42372690E+02</totfact>
</mgrwt>
</event>
<event>
 7    1  0.1330601E-005  0.1615480E+03  0.7546771E-02  0.1193740E+00
         -2   -1    0    0    0  501 -0.00000000000E+00  0.00000000000E+00  0.58105147694E+02  0.58105147694E+02  0.00000000000E+00 0.  1.
          2   -1    0    0  501    0  0.00000000000E+00 -0.00000000000E+00 -0.57269556720E+03  0.57269556720E+03  0.00000000000E+00 0. -1.
         23    2    1    2    0    0 -0.10218576119E+03  0.65515272510E+01 -0.42259493387E+03  0.44489502716E+03  0.94128926250E+02 0.  0.
          5    1    1    2  502    0 -0.18298713492E+02  0.29329187828E+02 -0.28162545583E+02  0.44835958201E+02  0.47000000000E+01 0. -1.
         -5    1    1    2    0  502  0.12048447468E+03 -0.35880715079E+02 -0.63832940046E+02  0.14106972953E+03  0.47000000000E+01 0. -1.
        -11    1    3    3    0    0 -0.42815193227E+02  0.40316081764E+02 -0.10802403199E+03  0.12299479138E+03  0.00000000000E+00 0.  1.
         11    1    3    3    0    0 -0.59370567964E+02 -0.33764554513E+02 -0.31457090188E+03  0.32190023578E+03  0.00000000000E+00 0. -1.
<mgrwt>
<rscale>  0 0.15561361E+03</rscale>
<asrwt>0</asrwt>
<pdfrwt beam="2">  1        2 0.88107013E-01 0.16154800E+03</pdfrwt>
<pdfrwt beam="1">  1       -2 0.89392532E-02 0.16154800E+03</pdfrwt>
<totfact> 0.41304956E+03</totfact>
</mgrwt>
</event>
<event>
 7    1  0.1330601E-005  0.1451760E+03  0.7546771E-02  0.1216534E+00
         -1   -1    0    0    0  501 -0.00000000000E+00  0.00000000000E+00  0.48693640624E+02  0.48693640624E+02  0.00000000000E+00 0.  1.
          1   -1    0    0  501    0  0.00000000000E+00 -0.00000000000E+00 -0.40569192438E+03  0.40569192438E+03  0.00000000000E+00 0. -1.
         23    2    1    2    0    0 -0.86768753362E+01  0.73277779206E+02 -0.24287138772E+03  0.26972096067E+03  0.91202875840E+02 0.  0.
          5    1    1    2  502    0 -0.51083281322E+02 -0.35400028230E+02 -0.90572028419E+02  0.10994565003E+03  0.47000000000E+01 0. -1.
         -5    1    1    2    0  502  0.59760156658E+02 -0.37877750976E+02 -0.23554867613E+02  0.74718954296E+02  0.47000000000E+01 0. -1.
        -11    1    3    3    0    0 -0.28914823656E+02  0.13221310247E+02 -0.18970111330E+02  0.37023441163E+02  0.00000000000E+00 0.  1.
         11    1    3    3    0    0  0.20237948320E+02  0.60056468959E+02 -0.22390127639E+03  0.23269751951E+03  0.00000000000E+00 0. -1.
<mgrwt>
<rscale>  0 0.13764479E+03</rscale>
<asrwt>0</asrwt>
<pdfrwt beam="2">  1        1 0.62414143E-01 0.14517599E+03</pdfrwt>
<pdfrwt beam="1">  1       -1 0.74913292E-02 0.14517599E+03</pdfrwt>
<totfact> 0.54603390E+03</totfact>
</mgrwt>
</event>
<event>
 7    1  0.1330601E-005  0.1413335E+03  0.7546771E-02  0.1222949E+00
         -1   -1    0    0    0  501 -0.00000000000E+00  0.00000000000E+00  0.41220786600E+02  0.41220786600E+02  0.00000000000E+00 0.  1.
          1   -1    0    0  501    0  0.00000000000E+00 -0.00000000000E+00 -0.39188442803E+03  0.39188442803E+03  0.00000000000E+00 0. -1.
         23    2    1    2    0    0  0.62620800567E+02 -0.20702138809E+02 -0.17978952867E+03  0.21135509935E+03  0.89424606149E+02 0.  0.
          5    1    1    2  502    0  0.13637903344E+02  0.55073583956E+02 -0.59066621759E+02  0.82036868928E+02  0.47000000000E+01 0.  1.
         -5    1    1    2    0  502 -0.76258703912E+02 -0.34371445147E+02 -0.11180749100E+03  0.13971324636E+03  0.47000000000E+01 0.  1.
        -11    1    3    3    0    0  0.15136357150E+02  0.34864257387E+02 -0.59825379630E+02  0.70878076997E+02  0.00000000000E+00 0. -1.
         11    1    3    3    0    0  0.47484443418E+02 -0.55566396196E+02 -0.11996414904E+03  0.14047702235E+03  0.00000000000E+00 0.  1.
<mgrwt>
<rscale>  0 0.13308455E+03</rscale>
<asrwt>0</asrwt>
<pdfrwt beam="2">  1        1 0.60289911E-01 0.14133348E+03</pdfrwt>
<pdfrwt beam="1">  1       -1 0.63416595E-02 0.14133348E+03</pdfrwt>
<totfact> 0.73127661E+03</totfact>
</mgrwt>
</event>
<event>
 7    1  0.1330601E-005  0.1359765E+03  0.7546771E-02  0.1227566E+00
         -1   -1    0    0    0  501 -0.00000000000E+00  0.00000000000E+00  0.14035264438E+03  0.14035264438E+03  0.00000000000E+00 0.  1.
          1   -1    0    0  501    0  0.00000000000E+00 -0.00000000000E+00 -0.23250718829E+03  0.23250718829E+03  0.00000000000E+00 0. -1.
         23    2    1    2    0    0  0.59470095994E+02 -0.10365944145E+02 -0.17874704635E+03  0.21165231359E+03  0.95927317039E+02 0.  0.
          5    1    1    2  502    0 -0.85187134290E+02  0.32283774198E+02  0.31688562011E+02  0.96567825321E+02  0.47000000000E+01 0. -1.
         -5    1    1    2    0  502  0.25717038296E+02 -0.21917830054E+02  0.54903940432E+02  0.64639693748E+02  0.47000000000E+01 0.  1.
        -11    1    3    3    0    0  0.48010390138E+02 -0.51596932093E+02 -0.10762386141E+03  0.12864733385E+03  0.00000000000E+00 0.  1.
         11    1    3    3    0    0  0.11459705856E+02  0.41230987948E+02 -0.71123184941E+02  0.83004979740E+02  0.00000000000E+00 0. -1.
<mgrwt>
<rscale>  0 0.12992558E+03</rscale>
<asrwt>0</asrwt>
<pdfrwt beam="2">  1        1 0.35770337E-01 0.13597648E+03</pdfrwt>
<pdfrwt beam="1">  1       -1 0.21592715E-01 0.13597648E+03</pdfrwt>
<totfact> 0.20999512E+03</totfact>
</mgrwt>
</event>
<event>
 7    1  0.1330601E-005  0.1298874E+03  0.7546771E-02  0.1254550E+00
         -2   -1    0    0    0  501 -0.00000000000E+00  0.00000000000E+00  0.54924534289E+02  0.54924534289E+02  0.00000000000E+00 0.  1.
          2   -1    0    0  501    0  0.00000000000E+00 -0.00000000000E+00 -0.19254750579E+03  0.19254750579E+03  0.00000000000E+00 0. -1.
         23    2    1    2    0    0 -0.30549031202E+02  0.17648970386E+02 -0.59260090852E+02  0.95776699273E+02  0.66458169496E+02 0.  0.
          5    1    1    2  502    0 -0.44342648898E+01 -0.49686391858E+02 -0.89656225154E+02  0.10270700536E+03  0.47000000000E+01 0. -1.
         -5    1    1    2    0  502  0.34983296092E+02  0.32037421472E+02  0.11293344503E+02  0.48988335449E+02  0.47000000000E+01 0. -1.
        -11    1    3    3    0    0 -0.22632135578E+01  0.38450050648E+02 -0.40800736390E+02  0.56109077879E+02  0.00000000000E+00 0. -1.
         11    1    3    3    0    0 -0.28285817644E+02 -0.20801080262E+02 -0.18459354462E+02  0.39667621394E+02  0.00000000000E+00 0.  1.
<mgrwt>
<rscale>  0 0.11331591E+03</rscale>
<asrwt>0</asrwt>
<pdfrwt beam="2">  1        2 0.29622693E-01 0.12988739E+03</pdfrwt>
<pdfrwt beam="1">  1       -2 0.84499284E-02 0.12988739E+03</pdfrwt>
<totfact> 0.14387552E+04</totfact>
</mgrwt>
</event>
<event>
 7    1  0.1330601E-005  0.1485352E+03  0.7546771E-02  0.1211183E+00
          2   -1    0    0  501    0  0.00000000000E+00  0.00000000000E+00  0.29012991754E+03  0.29012991754E+03  0.00000000000E+00 0. -1.
         -2   -1    0    0    0  501 -0.00000000000E+00 -0.00000000000E+00 -0.72922244172E+02  0.72922244172E+02  0.00000000000E+00 0.  1.
         23    2    1    2    0    0  0.72475534669E+02  0.34537504972E+02  0.16497182565E+03  0.20559968533E+03  0.92790004708E+02 0.  0.
          5    1    1    2  502    0 -0.10483763639E+03 -0.76675356983E+01  0.45315063974E+02  0.11456555385E+03  0.47000000000E+01 0. -1.
         -5    1    1    2    0  502  0.32362101716E+02 -0.26869969273E+02  0.69207837392E+01  0.42886922527E+02  0.47000000000E+01 0. -1.
        -11    1    3    3    0    0  0.10552475545E+02 -0.23826857014E+02  0.84704222161E+02  0.88622114098E+02  0.00000000000E+00 0. -1.
         11    1    3    3    0    0  0.61923059125E+02  0.58364361985E+02  0.80267603493E+02  0.11697757123E+03  0.00000000000E+00 0.  1.
<mgrwt>
<rscale>  0 0.14160676E+03</rscale>
<asrwt>0</asrwt>
<pdfrwt beam="1">  1        2 0.44635371E-01 0.14853518E+03</pdfrwt>
<pdfrwt beam="2">  1       -2 0.11218807E-01 0.14853518E+03</pdfrwt>
<totfact> 0.60059733E+03</totfact>
</mgrwt>
</event>
<event>
 7    1  0.1330601E-005  0.3256763E+03  0.7546771E-02  0.1074376E+00
          1   -1    0    0  501    0  0.00000000000E+00  0.00000000000E+00  0.70016478513E+03  0.70016478513E+03  0.00000000000E+00 0. -1.
         -1   -1    0    0    0  501 -0.00000000000E+00 -0.00000000000E+00 -0.15538205726E+03  0.15538205726E+03  0.00000000000E+00 0.  1.
         23    2    1    2    0    0 -0.25565515461E+03  0.15836751305E+03  0.37167917961E+03  0.48672449597E+03  0.91189336871E+02 0.  0.
          5    1    1    2  502    0  0.48537089658E+02 -0.19570766135E+02 -0.17032340356E+02  0.55236351958E+02  0.47000000000E+01 0. -1.
         -5    1    1    2    0  502  0.20711806495E+03 -0.13879674692E+03  0.19013588863E+03  0.31358599447E+03  0.47000000000E+01 0. -1.
        -11    1    3    3    0    0 -0.24577539907E+03  0.11850388454E+03  0.31522389517E+03  0.41691104750E+03  0.00000000000E+00 0. -1.
         11    1    3    3    0    0 -0.98797555406E+01  0.39863628507E+02  0.56455284433E+02  0.69813448473E+02  0.00000000000E+00 0.  1.
<mgrwt>
<rscale>  0 0.32278231E+03</rscale>
<asrwt>0</asrwt>
<pdfrwt beam="1">  1        1 0.10771766E+00 0.32567635E+03</pdfrwt>
<pdfrwt beam="2">  1       -1 0.23904932E-01 0.32567635E+03</pdfrwt>
<totfact> 0.42386684E+02</totfact>
</mgrwt>
</event>
<event>
 7    1  0.1330601E-005  0.1632279E+03  0.7546771E-02  0.1192417E+00
          3   -1    0    0  501    0  0.00000000000E+00  0.00000000000E+00  0.61599230258E+02  0.61599230258E+02  0.00000000000E+00 0. -1.
         -3   -1    0    0    0  501 -0.00000000000E+00 -0.00000000000E+00 -0.37153448822E+03  0.37153448822E+03  0.00000000000E+00 0.  1.
         23    2    1    2    0    0  0.67753660297E+01 -0.10474898447E+03 -0.12981713140E+03  0.19005781983E+03  0.90836291988E+02 0.  0.
          5    1    1    2  502    0 -0.23870935255E+02  0.12486527234E+03 -0.11061332430E+03  0.16857803920E+03  0.47000000000E+01 0. -1.
         -5    1    1    2    0  502  0.17095569225E+02 -0.20116287869E+02 -0.69504802262E+02  0.74497859448E+02  0.47000000000E+01 0. -1.
        -11    1    3    3    0    0 -0.17921637790E+02 -0.76704342536E+02 -0.13078716756E+03  0.15267620792E+03  0.00000000000E+00 0.  1.
         11    1    3    3    0    0  0.24697003820E+02 -0.28044641935E+02  0.97003616759E+00  0.37381611911E+02  0.00000000000E+00 0. -1.
<mgrwt>
<rscale>  0 0.15674894E+03</rscale>
<asrwt>0</asrwt>
<pdfrwt beam="1">  1        3 0.94768046E-02 0.16322792E+03</pdfrwt>
<pdfrwt beam="2">  1       -3 0.57159152E-01 0.16322792E+03</pdfrwt>
<totfact> 0.58375345E+02</totfact>
</mgrwt>
</event>
<event>
 7    1  0.1330601E-005  0.1258285E+03  0.7546771E-02  0.1249333E+00
         -1   -1    0    0    0  501 -0.00000000000E+00  0.00000000000E+00  0.43802491485E+03  0.43802491485E+03  0.00000000000E+00 0.  1.
          1   -1    0    0  501    0  0.00000000000E+00 -0.00000000000E+00 -0.28988930871E+02  0.28988930871E+02  0.00000000000E+00 0. -1.
         23    2    1    2    0    0 -0.12681325990E+02  0.67846008902E+01  0.11481650008E+03  0.14701708474E+03  0.90688189295E+02 0.  0.
          5    1    1    2  502    0  0.57867650839E+02  0.29299620677E+02  0.18852001128E+03  0.19942170754E+03  0.47000000000E+01 0. -1.
         -5    1    1    2    0  502 -0.45186324849E+02 -0.36084221567E+02  0.10569947262E+03  0.12057505344E+03  0.47000000000E+01 0. -1.
        -11    1    3    3    0    0 -0.15582644261E+02  0.47935562237E+02  0.58754285631E+02  0.77412550721E+02  0.00000000000E+00 0.  1.
         11    1    3    3    0    0  0.29013182703E+01 -0.41150961347E+02  0.56062214449E+02  0.69604534022E+02  0.00000000000E+00 0. -1.
<mgrwt>
<rscale>  0 0.11629754E+03</rscale>
<asrwt>0</asrwt>
<pdfrwt beam="2">  1        1 0.44598359E-02 0.12582854E+03</pdfrwt>
<pdfrwt beam="1">  1       -1 0.67388443E-01 0.12582854E+03</pdfrwt>
<totfact> 0.43014074E+03</totfact>
</mgrwt>
</event>
<event>
 7    1  0.1330601E-005  0.1270166E+03  0.7546771E-02  0.1247220E+00
         -1   -1    0    0    0  501 -0.00000000000E+00  0.00000000000E+00  0.11098473382E+04  0.11098473382E+04  0.00000000000E+00 0.  1.
          1   -1    0    0  501    0  0.00000000000E+00 -0.00000000000E+00 -0.22847022328E+02  0.22847022328E+02  0.00000000000E+00 0. -1.
         23    2    1    2    0    0  0.21198020699E+02  0.81463667203E+01  0.96595076598E+02  0.13417758492E+03  0.90317750740E+02 0.  0.
          5    1    1    2  502    0  0.22347741846E+02  0.31136544065E+02  0.75086140421E+03  0.75185360562E+03  0.47000000000E+01 0.  1.
         -5    1    1    2    0  502 -0.43545762545E+02 -0.39282910786E+02  0.23954383502E+03  0.24666316995E+03  0.47000000000E+01 0.  1.
        -11    1    3    3    0    0 -0.69436649921E+01  0.17478102402E+02  0.10227508936E+03  0.10398986706E+03  0.00000000000E+00 0.  1.
         11    1    3    3    0    0  0.28141685691E+02 -0.93317356822E+01 -0.56800127636E+01  0.30187717857E+02  0.00000000000E+00 0. -1.
<mgrwt>
<rscale>  0 0.11753483E+03</rscale>
<asrwt>0</asrwt>
<pdfrwt beam="2">  1        1 0.35149274E-02 0.12701659E+03</pdfrwt>
<pdfrwt beam="1">  1       -1 0.17074570E+00 0.12701659E+03</pdfrwt>
<totfact> 0.71458345E+02</totfact>
</mgrwt>
</event>
<event>
 7    1  0.1330601E-005  0.1274170E+03  0.7546771E-02  0.1246518E+00
         -1   -1    0    0    0  501 -0.00000000000E+00  0.00000000000E+00  0.31555593761E+02  0.31555593761E+02  0.00000000000E+00 0.  1.
          1   -1    0    0  501    0  0.00000000000E+00 -0.00000000000E+00 -0.40184998441E+03  0.40184998441E+03  0.00000000000E+00 0. -1.
         23    2    1    2    0    0  0.18578364219E+02 -0.16258380462E+02 -0.19919598349E+03  0.22007540207E+03  0.90247726859E+02 0.  0.
          5    1    1    2  502    0 -0.14148506859E+02  0.69491514624E+02 -0.75296420972E+02  0.10354173971E+03  0.47000000000E+01 0.  1.
         -5    1    1    2    0  502 -0.44298573602E+01 -0.53233134162E+02 -0.95801986187E+02  0.10978843640E+03  0.47000000000E+01 0.  1.
        -11    1    3    3    0    0  0.41701360815E+02  0.22294074220E+02 -0.83619900395E+02  0.96064129524E+02  0.00000000000E+00 0.  1.
         11    1    3    3    0    0 -0.23122996596E+02 -0.38552454682E+02 -0.11557608310E+03  0.12401127254E+03  0.00000000000E+00 0. -1.
<mgrwt>
<rscale>  0 0.11794983E+03</rscale>
<asrwt>0</asrwt>
<pdfrwt beam="2">  1        1 0.61823074E-01 0.12741703E+03</pdfrwt>
<pdfrwt beam="1">  1       -1 0.48547068E-02 0.12741703E+03</pdfrwt>
<totfact> 0.10459330E+04</totfact>
</mgrwt>
</event>
<event>
 7    1  0.1330601E-005  0.1509011E+03  0.7546771E-02  0.1210422E+00
          3   -1    0    0  501    0  0.00000000000E+00  0.00000000000E+00  0.52360456401E+03  0.52360456401E+03  0.00000000000E+00 0. -1.
         -3   -1    0    0    0  501 -0.00000000000E+00 -0.00000000000E+00 -0.36536020271E+02  0.36536020271E+02  0.00000000000E+00 0.  1.
         23    2    1    2    0    0  0.78562591495E+02  0.31199856777E+02  0.27734317325E+03  0.30176902330E+03  0.83664782503E+02 0.  0.
          5    1    1    2  502    0 -0.10341963883E+03  0.81548767570E+01  0.15159414871E+03  0.18375255000E+03  0.47000000000E+01 0. -1.
         -5    1    1    2    0  502  0.24857047330E+02 -0.39354733534E+02  0.58131221785E+02  0.74619010980E+02  0.47000000000E+01 0. -1.
        -11    1    3    3    0    0 -0.16883304078E+02  0.13002867642E+02  0.40370717263E+02  0.45649921532E+02  0.00000000000E+00 0.  1.
         11    1    3    3    0    0  0.95445895574E+02  0.18196989134E+02  0.23697245599E+03  0.25611910177E+03  0.00000000000E+00 0. -1.
<mgrwt>
<rscale>  0 0.14218238E+03</rscale>
<asrwt>0</asrwt>
<pdfrwt beam="1">  1        3 0.80554543E-01 0.15090107E+03</pdfrwt>
<pdfrwt beam="2">  1       -3 0.56209266E-02 0.15090107E+03</pdfrwt>
<totfact> 0.65366316E+02</totfact>
</mgrwt>
</event>
<event>
 7    1  0.1330601E-005  0.1262173E+03  0.7546771E-02  0.1248436E+00
         -2   -1    0    0    0  501 -0.00000000000E+00  0.00000000000E+00  0.12157970333E+02  0.12157970333E+02  0.00000000000E+00 0.  1.
          2   -1    0    0  501    0  0.00000000000E+00 -0.00000000000E+00 -0.10274620521E+04  0.10274620521E+04  0.00000000000E+00 0. -1.
         23    2    1    2    0    0  0.70439879395E+01 -0.15957898009E+02 -0.32822103250E+03  0.34104009209E+03  0.90967169671E+02 0.  0.
          5    1    1    2  502    0 -0.10784809519E+02  0.70420139562E+02 -0.39610735638E+03  0.40249029299E+03  0.47000000000E+01 0.  1.
         -5    1    1    2    0  502  0.37408215791E+01 -0.54462241553E+02 -0.29097569287E+03  0.29608963734E+03  0.47000000000E+01 0.  1.
        -11    1    3    3    0    0  0.40286584741E+02  0.89048926430E+01 -0.87175907591E+02  0.96446590854E+02  0.00000000000E+00 0.  1.
         11    1    3    3    0    0 -0.33242596801E+02 -0.24862790652E+02 -0.24104512491E+03  0.24459350123E+03  0.00000000000E+00 0. -1.
<mgrwt>
<rscale>  0 0.11682091E+03</rscale>
<asrwt>0</asrwt>
<pdfrwt beam="2">  1        2 0.15807103E+00 0.12621728E+03</pdfrwt>
<pdfrwt beam="1">  1       -2 0.18704577E-02 0.12621728E+03</pdfrwt>
<totfact> 0.20446003E+04</totfact>
</mgrwt>
</event>
<event>
 7    1  0.1330601E-005  0.1655317E+03  0.7546771E-02  0.1189578E+00
         -1   -1    0    0    0  501 -0.00000000000E+00  0.00000000000E+00  0.38353104660E+02  0.38353104660E+02  0.00000000000E+00 0.  1.
          1   -1    0    0  501    0  0.00000000000E+00 -0.00000000000E+00 -0.86050013026E+03  0.86050013026E+03  0.00000000000E+00 0. -1.
         23    2    1    2    0    0  0.96165634798E+02 -0.50268832061E+02 -0.62767686200E+03  0.64347235343E+03  0.91124320292E+02 0.  0.
          5    1    1    2  502    0 -0.14007648191E+02  0.76007725430E+02 -0.11127925887E+03  0.13556751819E+03  0.47000000000E+01 0.  1.
         -5    1    1    2    0  502 -0.82157986608E+02 -0.25738893369E+02 -0.83190904723E+02  0.11981336329E+03  0.47000000000E+01 0.  1.
        -11    1    3    3    0    0  0.18728977524E+02 -0.60626420945E+02 -0.29446096627E+03  0.30122018221E+03  0.00000000000E+00 0.  1.
         11    1    3    3    0    0  0.77436657275E+02  0.10357588884E+02 -0.33321589573E+03  0.34225217122E+03  0.00000000000E+00 0. -1.
<mgrwt>
<rscale>  0 0.15922165E+03</rscale>
<asrwt>0</asrwt>
<pdfrwt beam="2">  1        1 0.13238465E+00 0.16553172E+03</pdfrwt>
<pdfrwt beam="1">  1       -1 0.59004771E-02 0.16553172E+03</pdfrwt>
<totfact> 0.27823456E+03</totfact>
</mgrwt>
</event>
<event>
 7    1  0.1330601E-005  0.1734879E+03  0.7546771E-02  0.1179863E+00
          1   -1    0    0  501    0  0.00000000000E+00  0.00000000000E+00  0.91000142415E+03  0.91000142415E+03  0.00000000000E+00 0. -1.
         -1   -1    0    0    0  501 -0.00000000000E+00 -0.00000000000E+00 -0.33360955349E+02  0.33360955349E+02  0.00000000000E+00 0.  1.
         23    2    1    2    0    0  0.12015855926E+03 -0.59642377792E+01  0.57914640548E+03  0.59897773352E+03  0.94287405169E+02 0.  0.
          5    1    1    2  502    0 -0.52882934990E+02  0.40094085346E+01  0.26352125778E+03  0.26884609625E+03  0.47000000000E+01 0.  1.
         -5    1    1    2    0  502 -0.67275624273E+02  0.19548292445E+01  0.33972805547E+02  0.75538549731E+02  0.47000000000E+01 0.  1.
        -11    1    3    3    0    0  0.32187066810E+02  0.21896217199E+02  0.58841769777E+02  0.70553564531E+02  0.00000000000E+00 0.  1.
         11    1    3    3    0    0  0.87971492453E+02 -0.27860454979E+02  0.52030463570E+03  0.52842416899E+03  0.00000000000E+00 0. -1.
<mgrwt>
<rscale>  0 0.16808147E+03</rscale>
<asrwt>0</asrwt>
<pdfrwt beam="1">  1        1 0.14000020E+00 0.17348794E+03</pdfrwt>
<pdfrwt beam="2">  1       -1 0.51324553E-02 0.17348794E+03</pdfrwt>
<totfact> 0.31379166E+03</totfact>
</mgrwt>
</event>
<event>
 7    1  0.1330601E-005  0.1630160E+03  0.7546771E-02  0.1193108E+00
          1   -1    0    0  501    0  0.00000000000E+00  0.00000000000E+00  0.56667495263E+03  0.56667495263E+03  0.00000000000E+00 0. -1.
         -1   -1    0    0    0  501 -0.00000000000E+00 -0.00000000000E+00 -0.46262812571E+02  0.46262812571E+02  0.00000000000E+00 0.  1.
         23    2    1    2    0    0 -0.99829232877E+02 -0.31385196132E+02  0.35540032469E+03  0.38098279284E+03  0.88812112786E+02 0.  0.
          5    1    1    2  502    0  0.20406595036E+02 -0.19204405614E+01  0.14081114653E+03  0.14237270174E+03  0.47000000000E+01 0.  1.
         -5    1    1    2    0  502  0.79422637841E+02  0.33305636693E+02  0.24200668835E+02  0.89582270619E+02  0.47000000000E+01 0.  1.
        -11    1    3    3    0    0 -0.62244920265E+02 -0.59713509851E+02  0.27037507318E+03  0.28380065813E+03  0.00000000000E+00 0. -1.
         11    1    3    3    0    0 -0.37584312612E+02  0.28328313719E+02  0.85025251514E+02  0.97182134715E+02  0.00000000000E+00 0.  1.
<mgrwt>
<rscale>  0 0.15615411E+03</rscale>
<asrwt>0</asrwt>
<pdfrwt beam="1">  1        1 0.87180757E-01 0.16301598E+03</pdfrwt>
<pdfrwt beam="2">  1       -1 0.71173562E-02 0.16301598E+03</pdfrwt>
<totfact> 0.38382646E+03</totfact>
</mgrwt>
</event>
<event>
 7    1  0.1330601E-005  0.2160838E+03  0.7546771E-02  0.1139864E+00
          1   -1    0    0  501    0  0.00000000000E+00  0.00000000000E+00  0.78910635555E+03  0.78910635555E+03  0.00000000000E+00 0. -1.
         -1   -1    0    0    0  501 -0.00000000000E+00 -0.00000000000E+00 -0.69687620578E+02  0.69687620578E+02  0.00000000000E+00 0.  1.
         23    2    1    2    0    0  0.10689983788E+02 -0.17593582114E+03  0.54588742633E+03  0.58165621019E+03  0.96245393208E+02 0.  0.
          5    1    1    2  502    0  0.46651432258E+02  0.11228793528E+03  0.13877340231E+03  0.18456728781E+03  0.47000000000E+01 0. -1.
         -5    1    1    2    0  502 -0.57341416047E+02  0.63647885857E+02  0.34757906332E+02  0.92570478128E+02  0.47000000000E+01 0. -1.
        -11    1    3    3    0    0 -0.39324852913E+02 -0.67566169052E+02  0.16655187824E+03  0.18398684573E+03  0.00000000000E+00 0.  1.
         11    1    3    3    0    0  0.50014836702E+02 -0.10836965208E+03  0.37933554808E+03  0.39766936445E+03  0.00000000000E+00 0. -1.
<mgrwt>
<rscale>  0 0.21216386E+03</rscale>
<asrwt>0</asrwt>
<pdfrwt beam="1">  1        1 0.12140097E+00 0.21608384E+03</pdfrwt>
<pdfrwt beam="2">  1       -1 0.10721173E-01 0.21608384E+03</pdfrwt>
<totfact> 0.12869760E+03</totfact>
</mgrwt>
</event>
<event>
 7    1  0.1330601E-005  0.1265685E+03  0.7546771E-02  0.1247694E+00
          1   -1    0    0  501    0  0.00000000000E+00  0.00000000000E+00  0.36483534647E+02  0.36483534647E+02  0.00000000000E+00 0. -1.
         -1   -1    0    0    0  501 -0.00000000000E+00 -0.00000000000E+00 -0.35208446574E+03  0.35208446574E+03  0.00000000000E+00 0.  1.
         23    2    1    2    0    0 -0.19653630153E+02  0.29657692430E+01 -0.88328149081E+02  0.12842858717E+03  0.91087755030E+02 0.  0.
          5    1    1    2  502    0 -0.22036012970E+02  0.48740070826E+02 -0.62364606690E+02  0.82295896248E+02  0.47000000000E+01 0.  1.
         -5    1    1    2    0  502  0.41689643123E+02 -0.51705840069E+02 -0.16490817532E+03  0.17784351697E+03  0.47000000000E+01 0.  1.
        -11    1    3    3    0    0  0.66290263129E+01 -0.41252504566E+02 -0.40514003238E+02  0.58198776458E+02  0.00000000000E+00 0.  1.
         11    1    3    3    0    0 -0.26282656466E+02  0.44218273809E+02 -0.47814145843E+02  0.70229810710E+02  0.00000000000E+00 0. -1.
<mgrwt>
<rscale>  0 0.11725586E+03</rscale>
<asrwt>0</asrwt>
<pdfrwt beam="1">  1        1 0.56128516E-02 0.12656855E+03</pdfrwt>
<pdfrwt beam="2">  1       -1 0.54166840E-01 0.12656855E+03</pdfrwt>
<totfact> 0.47619453E+03</totfact>
</mgrwt>
</event>
<event>
 7    1  0.1330601E-005  0.1288573E+03  0.7546771E-02  0.1243809E+00
          2   -1    0    0  501    0  0.00000000000E+00  0.00000000000E+00  0.17631994799E+02  0.17631994799E+02  0.00000000000E+00 0. -1.
         -2   -1    0    0    0  501 -0.00000000000E+00 -0.00000000000E+00 -0.71531218973E+03  0.71531218973E+03  0.00000000000E+00 0.  1.
         23    2    1    2    0    0  0.25817598258E+02 -0.17683434530E+02 -0.28109121971E+03  0.29688159288E+03  0.90261587376E+02 0.  0.
          5    1    1    2  502    0  0.12307424526E+02 -0.26557311513E+01 -0.37709334823E+03  0.37733275618E+03  0.47000000000E+01 0.  1.
         -5    1    1    2    0  502 -0.38125022785E+02  0.20339165681E+02 -0.39495626989E+02  0.58729835468E+02  0.47000000000E+01 0.  1.
        -11    1    3    3    0    0 -0.21901280140E+02 -0.10816476918E+02 -0.20560997898E+02  0.31928308431E+02  0.00000000000E+00 0. -1.
         11    1    3    3    0    0  0.47718878398E+02 -0.68669576120E+01 -0.26053022181E+03  0.26495328445E+03  0.00000000000E+00 0.  1.
<mgrwt>
<rscale>  0 0.11956919E+03</rscale>
<asrwt>0</asrwt>
<pdfrwt beam="1">  1        2 0.27126142E-02 0.12885732E+03</pdfrwt>
<pdfrwt beam="2">  1       -2 0.11004805E+00 0.12885732E+03</pdfrwt>
<totfact> 0.23425536E+03</totfact>
</mgrwt>
</event>
<event>
 7    1  0.1330601E-005  0.1907295E+03  0.7546771E-02  0.1165897E+00
         -3   -1    0    0    0  501 -0.00000000000E+00  0.00000000000E+00  0.27768620533E+03  0.27768620533E+03  0.00000000000E+00 0.  1.
          3   -1    0    0  501    0  0.00000000000E+00 -0.00000000000E+00 -0.12553147318E+03  0.12553147318E+03  0.00000000000E+00 0. -1.
         23    2    1    2    0    0  0.46056567282E+02 -0.13650702982E+03 -0.18265592544E+01  0.15808918569E+03  0.65065180642E+02 0.  0.
          5    1    1    2  502    0 -0.56002926146E+02  0.68405087587E+02  0.15225417035E+03  0.17612213414E+03  0.47000000000E+01 0.  1.
         -5    1    1    2    0  502  0.99463588634E+01  0.68101942237E+02  0.17271210522E+01  0.69006358680E+02  0.47000000000E+01 0.  1.
        -11    1    3    3    0    0  0.75611553375E+01 -0.12098085971E+02 -0.22087091911E+02  0.26293998998E+02  0.00000000000E+00 0. -1.
         11    1    3    3    0    0  0.38495411945E+02 -0.12440894385E+03  0.20260532657E+02  0.13179518669E+03  0.00000000000E+00 0.  1.
<mgrwt>
<rscale>  0 0.18198336E+03</rscale>
<asrwt>0</asrwt>
<pdfrwt beam="2">  1        3 0.19312534E-01 0.19072949E+03</pdfrwt>
<pdfrwt beam="1">  1       -3 0.42720954E-01 0.19072949E+03</pdfrwt>
<totfact> 0.31672889E+02</totfact>
</mgrwt>
</event>
<event>
 7    1  0.1330601E-005  0.1778745E+03  0.7546771E-02  0.1175725E+00
         -1   -1    0    0    0  501 -0.00000000000E+00  0.00000000000E+00  0.17909002688E+03  0.17909002688E+03  0.00000000000E+00 0.  1.
          1   -1    0    0  501    0  0.00000000000E+00 -0.00000000000E+00 -0.15950591177E+03  0.15950591177E+03  0.00000000000E+00 0. -1.
         23    2    1    2    0    0  0.43576451576E+02  0.11880258059E+03 -0.18174463510E+02  0.15675792288E+03  0.90718107216E+02 0.  0.
          5    1    1    2  502    0  0.12785804476E+02 -0.11949952736E+03  0.34763207447E+02  0.12519658313E+03  0.47000000000E+01 0.  1.
         -5    1    1    2    0  502 -0.56362256052E+02  0.69694677697E+00  0.29953711780E+01  0.56641432632E+02  0.47000000000E+01 0.  1.
        -11    1    3    3    0    0  0.11655023207E+02  0.12292404506E+03 -0.15835756259E+02  0.12448667236E+03  0.00000000000E+00 0. -1.
         11    1    3    3    0    0  0.31921428370E+02 -0.41214644724E+01 -0.23387072512E+01  0.32271250520E+02  0.00000000000E+00 0.  1.
<mgrwt>
<rscale>  0 0.17205134E+03</rscale>
<asrwt>0</asrwt>
<pdfrwt beam="2">  1        1 0.24539371E-01 0.17787454E+03</pdfrwt>
<pdfrwt beam="1">  1       -1 0.27552312E-01 0.17787454E+03</pdfrwt>
<totfact> 0.22754865E+03</totfact>
</mgrwt>
</event>
<event>
 7    1  0.1330601E-005  0.1299634E+03  0.7546771E-02  0.1245918E+00
         -3   -1    0    0    0  501 -0.00000000000E+00  0.00000000000E+00  0.22003579035E+02  0.22003579035E+02  0.00000000000E+00 0.  1.
          3   -1    0    0  501    0  0.00000000000E+00 -0.00000000000E+00 -0.55400695678E+03  0.55400695678E+03  0.00000000000E+00 0. -1.
         23    2    1    2    0    0  0.35031811756E+02 -0.61731062143E+01 -0.18314286502E+03  0.20372820514E+03  0.81844593504E+02 0.  0.
          5    1    1    2  502    0 -0.44135209156E+00  0.26820484408E+02 -0.32307773918E+03  0.32422345493E+03  0.47000000000E+01 0. -1.
         -5    1    1    2    0  502 -0.34590459664E+02 -0.20647378194E+02 -0.25782773548E+02  0.48058875745E+02  0.47000000000E+01 0. -1.
        -11    1    3    3    0    0  0.60835313599E+02 -0.22936084036E+01 -0.14737417452E+03  0.15945326380E+03  0.00000000000E+00 0. -1.
         11    1    3    3    0    0 -0.25803501844E+02 -0.38794978107E+01 -0.35768690503E+02  0.44274941343E+02  0.00000000000E+00 0.  1.
<mgrwt>
<rscale>  0 0.11830586E+03</rscale>
<asrwt>0</asrwt>
<pdfrwt beam="2">  1        3 0.85231837E-01 0.12996337E+03</pdfrwt>
<pdfrwt beam="1">  1       -3 0.33851661E-02 0.12996337E+03</pdfrwt>
<totfact> 0.12536218E+03</totfact>
</mgrwt>
</event>
<event>
 7    1  0.1330601E-005  0.1531047E+03  0.7546771E-02  0.1205181E+00
          1   -1    0    0  501    0  0.00000000000E+00  0.00000000000E+00  0.18559636956E+03  0.18559636956E+03  0.00000000000E+00 0. -1.
         -1   -1    0    0    0  501 -0.00000000000E+00 -0.00000000000E+00 -0.18029648201E+03  0.18029648201E+03  0.00000000000E+00 0.  1.
         23    2    1    2    0    0 -0.56483802999E+02 -0.68013290320E+02  0.11966064624E+03  0.17479228831E+03  0.91746640978E+02 0.  0.
          5    1    1    2  502    0  0.93778702212E+02  0.27504441779E+02 -0.73195334846E+02  0.12219077850E+03  0.47000000000E+01 0. -1.
         -5    1    1    2    0  502 -0.37294899213E+02  0.40508848541E+02 -0.41165423837E+02  0.68909784770E+02  0.47000000000E+01 0. -1.
        -11    1    3    3    0    0 -0.40371713412E+02 -0.54925345464E+01  0.22559088629E+01  0.40806032696E+02  0.00000000000E+00 0.  1.
         11    1    3    3    0    0 -0.16112089587E+02 -0.62520755773E+02  0.11740473738E+03  0.13398625561E+03  0.00000000000E+00 0. -1.
<mgrwt>
<rscale>  0 0.14623235E+03</rscale>
<asrwt>0</asrwt>
<pdfrwt beam="1">  1        1 0.28553288E-01 0.15310468E+03</pdfrwt>
<pdfrwt beam="2">  1       -1 0.27737920E-01 0.15310468E+03</pdfrwt>
<totfact> 0.18499084E+03</totfact>
</mgrwt>
</event>
<event>
 7    1  0.1330601E-005  0.1374771E+03  0.7546771E-02  0.1227362E+00
         -3   -1    0    0    0  501 -0.00000000000E+00  0.00000000000E+00  0.59416958535E+03  0.59416958535E+03  0.00000000000E+00 0.  1.
          3   -1    0    0  501    0  0.00000000000E+00 -0.00000000000E+00 -0.34486262017E+02  0.34486262017E+02  0.00000000000E+00 0. -1.
         23    2    1    2    0    0  0.16007354345E+02  0.54940291256E+02  0.99668306893E+02  0.14853735317E+03  0.94100493577E+02 0.  0.
          5    1    1    2  502    0  0.15130102610E+02 -0.66539093428E+02  0.11746220729E+03  0.13592582941E+03  0.47000000000E+01 0.  1.
         -5    1    1    2    0  502 -0.31137456955E+02  0.11598802172E+02  0.34255280915E+03  0.34419266479E+03  0.47000000000E+01 0.  1.
        -11    1    3    3    0    0 -0.29124529282E+02  0.57855542424E+02  0.55040584525E+02  0.84999811411E+02  0.00000000000E+00 0. -1.
         11    1    3    3    0    0  0.45131883626E+02 -0.29152511675E+01  0.44627722369E+02  0.63537541760E+02  0.00000000000E+00 0.  1.
<mgrwt>
<rscale>  0 0.13006291E+03</rscale>
<asrwt>0</asrwt>
<pdfrwt beam="2">  1        3 0.53055792E-02 0.13747710E+03</pdfrwt>
<pdfrwt beam="1">  1       -3 0.91410698E-01 0.13747710E+03</pdfrwt>
<totfact> 0.53447947E+02</totfact>
</mgrwt>
</event>
<event>
 7    1  0.1330601E-005  0.1847516E+03  0.7546771E-02  0.1168512E+00
         -1   -1    0    0    0  501 -0.00000000000E+00  0.00000000000E+00  0.20214109189E+03  0.20214109189E+03  0.00000000000E+00 0.  1.
          1   -1    0    0  501    0  0.00000000000E+00 -0.00000000000E+00 -0.15949319605E+03  0.15949319605E+03  0.00000000000E+00 0. -1.
         23    2    1    2    0    0  0.12537587139E+03  0.54645988315E+02 -0.23373780810E+02  0.16544042523E+03  0.90104980471E+02 0.  0.
          5    1    1    2  502    0 -0.11751255693E+03 -0.89182579983E+02  0.62518724401E+02  0.16029165452E+03  0.47000000000E+01 0.  1.
         -5    1    1    2    0  502 -0.78633144602E+01  0.34536591668E+02  0.35029522459E+01  0.35902208188E+02  0.47000000000E+01 0.  1.
        -11    1    3    3    0    0 -0.68044094531E+01  0.23074600960E+02 -0.16877453690E+02  0.29386827671E+02  0.00000000000E+00 0.  1.
         11    1    3    3    0    0  0.13218028084E+03  0.31571387355E+02 -0.64963271200E+01  0.13605359756E+03  0.00000000000E+00 0. -1.
<mgrwt>
<rscale>  0 0.17926978E+03</rscale>
<asrwt>0</asrwt>
<pdfrwt beam="2">  1        1 0.24537415E-01 0.18475164E+03</pdfrwt>
<pdfrwt beam="1">  1       -1 0.31098630E-01 0.18475164E+03</pdfrwt>
<totfact> 0.18577502E+03</totfact>
</mgrwt>
</event>
<event>
 7    1  0.1330601E-005  0.1384377E+03  0.7546771E-02  0.1226618E+00
         -1   -1    0    0    0  501 -0.00000000000E+00  0.00000000000E+00  0.24978841853E+03  0.24978841853E+03  0.00000000000E+00 0.  1.
          1   -1    0    0  501    0  0.00000000000E+00 -0.00000000000E+00 -0.63151871178E+02  0.63151871178E+02  0.00000000000E+00 0. -1.
         23    2    1    2    0    0 -0.30321016382E+02 -0.51161367378E+02  0.57912053422E+02  0.12390329695E+03  0.91985713658E+02 0.  0.
          5    1    1    2  502    0 -0.44293146920E+02  0.22817151406E+02  0.19579683585E+02  0.53739736431E+02  0.47000000000E+01 0.  1.
         -5    1    1    2    0  502  0.74614163302E+02  0.28344215972E+02  0.10914481034E+03  0.13529725632E+03  0.47000000000E+01 0.  1.
        -11    1    3    3    0    0 -0.12784635400E+02  0.26747838363E+02  0.17013224437E+02  0.34181041019E+02  0.00000000000E+00 0. -1.
         11    1    3    3    0    0 -0.17536380982E+02 -0.77909205741E+02  0.40898828985E+02  0.89722255931E+02  0.00000000000E+00 0.  1.
<mgrwt>
<rscale>  0 0.13056607E+03</rscale>
<asrwt>0</asrwt>
<pdfrwt beam="2">  1        1 0.97156727E-02 0.13843767E+03</pdfrwt>
<pdfrwt beam="1">  1       -1 0.38428987E-01 0.13843767E+03</pdfrwt>
<totfact> 0.42403096E+03</totfact>
</mgrwt>
</event>
<event>
 7    1  0.1330601E-005  0.2115973E+03  0.7546771E-02  0.1144136E+00
         -1   -1    0    0    0  501 -0.00000000000E+00  0.00000000000E+00  0.32134214713E+03  0.32134214713E+03  0.00000000000E+00 0.  1.
          1   -1    0    0  501    0  0.00000000000E+00 -0.00000000000E+00 -0.13115609543E+03  0.13115609543E+03  0.00000000000E+00 0. -1.
         23    2    1    2    0    0 -0.11223585307E+03 -0.12864292840E+03  0.52377513623E+02  0.19998166243E+03  0.90018729363E+02 0.  0.
          5    1    1    2  502    0  0.45404167753E+02  0.12553652868E+03  0.12750057353E+03  0.18466034965E+03  0.47000000000E+01 0. -1.
         -5    1    1    2    0  502  0.66831685313E+02  0.31063997128E+01  0.10307964549E+02  0.67856230473E+02  0.47000000000E+01 0. -1.
        -11    1    3    3    0    0  0.69009479917E+01 -0.23565918556E+02  0.31226977942E+02  0.39725303674E+02  0.00000000000E+00 0.  1.
         11    1    3    3    0    0 -0.11913680106E+03 -0.10507700984E+03  0.21150535682E+02  0.16025635876E+03  0.00000000000E+00 0. -1.
<mgrwt>
<rscale>  0 0.20678658E+03</rscale>
<asrwt>0</asrwt>
<pdfrwt beam="2">  1        1 0.20177861E-01 0.21159733E+03</pdfrwt>
<pdfrwt beam="1">  1       -1 0.49437253E-01 0.21159733E+03</pdfrwt>
<totfact> 0.10553450E+03</totfact>
</mgrwt>
</event>
<event>
 7    1  0.1330601E-005  0.1747006E+03  0.7546771E-02  0.1178693E+00
          2   -1    0    0  501    0  0.00000000000E+00  0.00000000000E+00  0.36695470658E+03  0.36695470658E+03  0.00000000000E+00 0. -1.
         -2   -1    0    0    0  501 -0.00000000000E+00 -0.00000000000E+00 -0.74682705135E+02  0.74682705135E+02  0.00000000000E+00 0.  1.
         23    2    1    2    0    0  0.91240248487E+02  0.81047281860E+02  0.16504398108E+03  0.22551878941E+03  0.93411797148E+02 0.  0.
          5    1    1    2  502    0 -0.26961560748E+02  0.32037116709E+02  0.47433508324E+02  0.63445490911E+02  0.47000000000E+01 0. -1.
         -5    1    1    2    0  502 -0.64278687738E+02 -0.11308439857E+03  0.79794512040E+02  0.15267313139E+03  0.47000000000E+01 0. -1.
        -11    1    3    3    0    0  0.17986754206E+02 -0.44845984459E+01  0.85896332012E+02  0.87873857336E+02  0.00000000000E+00 0. -1.
         11    1    3    3    0    0  0.73253494280E+02  0.85531880306E+02  0.79147649064E+02  0.13764493207E+03  0.00000000000E+00 0.  1.
<mgrwt>
<rscale>  0 0.16919164E+03</rscale>
<asrwt>0</asrwt>
<pdfrwt beam="1">  1        2 0.56454569E-01 0.17470057E+03</pdfrwt>
<pdfrwt beam="2">  1       -2 0.11489647E-01 0.17470057E+03</pdfrwt>
<totfact> 0.45395652E+03</totfact>
</mgrwt>
</event>
<event>
 7    1  0.1330601E-005  0.1318311E+03  0.7546771E-02  0.1230889E+00
         -1   -1    0    0    0  501 -0.00000000000E+00  0.00000000000E+00  0.31265574292E+03  0.31265574292E+03  0.00000000000E+00 0.  1.
          1   -1    0    0  501    0  0.00000000000E+00 -0.00000000000E+00 -0.49246341482E+02  0.49246341482E+02  0.00000000000E+00 0. -1.
         23    2    1    2    0    0  0.94620794028E+01 -0.58071227014E+02  0.11571795061E+03  0.16393190706E+03  0.10010608226E+03 0.  0.
          5    1    1    2  502    0  0.16251082850E+02 -0.20088407666E+02 -0.27777239316E+01  0.26409232602E+02  0.47000000000E+01 0. -1.
         -5    1    1    2    0  502 -0.25713162253E+02  0.78159634680E+02  0.15046917477E+03  0.17156094475E+03  0.47000000000E+01 0.  1.
        -11    1    3    3    0    0 -0.94125122225E+01 -0.29038121320E+02 -0.11092332857E+02  0.32478419364E+02  0.00000000000E+00 0. -1.
         11    1    3    3    0    0  0.18874591625E+02 -0.29033105694E+02  0.12681028346E+03  0.13145348770E+03  0.00000000000E+00 0.  1.
<mgrwt>
<rscale>  0 0.12771347E+03</rscale>
<asrwt>0</asrwt>
<pdfrwt beam="2">  1        1 0.75763604E-02 0.13183105E+03</pdfrwt>
<pdfrwt beam="1">  1       -1 0.48100882E-01 0.13183105E+03</pdfrwt>
<totfact> 0.39570106E+03</totfact>
</mgrwt>
</event>
<event>
 7    1  0.1330601E-005  0.1780989E+03  0.7546771E-02  0.1184993E+00
          1   -1    0    0  501    0  0.00000000000E+00  0.00000000000E+00  0.76084543993E+03  0.76084543993E+03  0.00000000000E+00 0. -1.
         -1   -1    0    0    0  501 -0.00000000000E+00 -0.00000000000E+00 -0.58549457539E+02  0.58549457539E+02  0.00000000000E+00 0.  1.
         23    2    1    2    0    0  0.19579016220E+02 -0.83502049370E+02  0.60191976436E+03  0.61495760845E+03  0.92247099358E+02 0.  0.
          5    1    1    2  502    0 -0.43017357129E+01  0.12303418752E+03  0.10456393238E+03  0.16159090997E+03  0.47000000000E+01 0. -1.
         -5    1    1    2    0  502 -0.15277280507E+02 -0.39532138151E+02 -0.41877143473E+01  0.42846379053E+02  0.47000000000E+01 0.  1.
        -11    1    3    3    0    0  0.44457802308E+02 -0.89403441681E+02  0.50068146351E+03  0.51054030152E+03  0.00000000000E+00 0. -1.
         11    1    3    3    0    0 -0.24878786088E+02  0.59013923109E+01  0.10123830084E+03  0.10441730693E+03  0.00000000000E+00 0.  1.
<mgrwt>
<rscale>  0 0.16332494E+03</rscale>
<asrwt>0</asrwt>
<pdfrwt beam="1">  1        1 0.11705314E+00 0.17809891E+03</pdfrwt>
<pdfrwt beam="2">  1       -1 0.90076094E-02 0.17809891E+03</pdfrwt>
<totfact> 0.17744910E+03</totfact>
</mgrwt>
</event>
<event>
 7    1  0.1330601E-005  0.1458332E+03  0.7546771E-02  0.1207105E+00
          2   -1    0    0  501    0  0.00000000000E+00  0.00000000000E+00  0.35149491920E+03  0.35149491920E+03  0.00000000000E+00 0. -1.
         -2   -1    0    0    0  501 -0.00000000000E+00 -0.00000000000E+00 -0.63592708430E+02  0.63592708430E+02  0.00000000000E+00 0.  1.
         23    2    1    2    0    0 -0.45452919970E+02  0.59798524286E+02  0.19945972876E+03  0.24453147596E+03  0.11987338278E+03 0.  0.
          5    1    1    2  502    0 -0.41291846208E+02 -0.29280245794E+02  0.48250941100E+02  0.70089889956E+02  0.47000000000E+01 0.  1.
         -5    1    1    2    0  502  0.86744766178E+02 -0.30518278492E+02  0.40191540907E+02  0.10046626171E+03  0.47000000000E+01 0.  1.
        -11    1    3    3    0    0  0.29565665294E+01  0.41297878943E+02  0.31801783315E+01  0.41525529799E+02  0.00000000000E+00 0.  1.
         11    1    3    3    0    0 -0.48409486500E+02  0.18500645342E+02  0.19627955043E+03  0.20300594616E+03  0.00000000000E+00 0. -1.
<mgrwt>
<rscale>  0 0.14472788E+03</rscale>
<asrwt>0</asrwt>
<pdfrwt beam="1">  1        2 0.54076141E-01 0.14583322E+03</pdfrwt>
<pdfrwt beam="2">  1       -2 0.97834937E-02 0.14583322E+03</pdfrwt>
<totfact> 0.60742325E+03</totfact>
</mgrwt>
</event>
<event>
 7    1  0.1330601E-005  0.1283019E+03  0.7546771E-02  0.1244315E+00
          1   -1    0    0  501    0  0.00000000000E+00  0.00000000000E+00  0.21645712141E+02  0.21645712141E+02  0.00000000000E+00 0. -1.
         -1   -1    0    0    0  501 -0.00000000000E+00 -0.00000000000E+00 -0.87145354210E+03  0.87145354210E+03  0.00000000000E+00 0.  1.
         23    2    1    2    0    0  0.25896267532E+02  0.12352337954E+02 -0.12746067436E+03  0.15944620477E+03  0.91398423306E+02 0.  0.
          5    1    1    2  502    0 -0.23172305732E+02  0.47225037421E+02 -0.16846474351E+03  0.17654919914E+03  0.47000000000E+01 0. -1.
         -5    1    1    2    0  502 -0.27239618006E+01 -0.59577375375E+02 -0.55388241210E+03  0.55710385033E+03  0.47000000000E+01 0. -1.
        -11    1    3    3    0    0 -0.84364394757E+01  0.22437672319E+02 -0.12066531174E+03  0.12302333156E+03  0.00000000000E+00 0.  1.
         11    1    3    3    0    0  0.34332707008E+02 -0.10085334365E+02 -0.67953626138E+01  0.36422873209E+02  0.00000000000E+00 0. -1.
<mgrwt>
<rscale>  0 0.11926464E+03</rscale>
<asrwt>0</asrwt>
<pdfrwt beam="1">  1        1 0.33301093E-02 0.12830192E+03</pdfrwt>
<pdfrwt beam="2">  1       -1 0.13406979E+00 0.12830192E+03</pdfrwt>
<totfact> 0.14441111E+03</totfact>
</mgrwt>
</event>
<event>
 7    1  0.1330601E-005  0.1305368E+03  0.7546771E-02  0.1239538E+00
         -2   -1    0    0    0  501 -0.00000000000E+00  0.00000000000E+00  0.80934392732E+02  0.80934392732E+02  0.00000000000E+00 0.  1.
          2   -1    0    0  501    0  0.00000000000E+00 -0.00000000000E+00 -0.16720659739E+03  0.16720659739E+03  0.00000000000E+00 0. -1.
         23    2    1    2    0    0  0.12295033182E+02  0.35539087844E+02 -0.53361072565E+02  0.11351933031E+03  0.92871091751E+02 0.  0.
          5    1    1    2  502    0  0.40729931412E+02 -0.39100663764E+02  0.19417374281E+02  0.59890847744E+02  0.47000000000E+01 0. -1.
         -5    1    1    2    0  502 -0.53024964594E+02  0.35615759200E+01 -0.52328506378E+02  0.74730812072E+02  0.47000000000E+01 0. -1.
        -11    1    3    3    0    0  0.52490789371E+02  0.26278286325E+02 -0.35230619924E+02  0.68461871733E+02  0.00000000000E+00 0.  1.
         11    1    3    3    0    0 -0.40195756189E+02  0.92608015187E+01 -0.18130452641E+02  0.45057458576E+02  0.00000000000E+00 0. -1.
<mgrwt>
<rscale>  0 0.12218340E+03</rscale>
<asrwt>0</asrwt>
<pdfrwt beam="2">  1        2 0.25724092E-01 0.13053677E+03</pdfrwt>
<pdfrwt beam="1">  1       -2 0.12451445E-01 0.13053677E+03</pdfrwt>
<totfact> 0.91213322E+03</totfact>
</mgrwt>
</event>
<event>
 7    1  0.1330601E-005  0.1383163E+03  0.7546771E-02  0.1223517E+00
          2   -1    0    0  501    0  0.00000000000E+00  0.00000000000E+00  0.24351483232E+03  0.24351483232E+03  0.00000000000E+00 0. -1.
         -2   -1    0    0    0  501 -0.00000000000E+00 -0.00000000000E+00 -0.68741620303E+02  0.68741620303E+02  0.00000000000E+00 0.  1.
         23    2    1    2    0    0 -0.13472092513E+02 -0.66858877163E+02  0.55567204897E+02  0.12965999159E+03  0.95249107221E+02 0.  0.
          5    1    1    2  502    0  0.26937463995E+01  0.59883824679E+01  0.12031997956E+03  0.12059064837E+03  0.47000000000E+01 0. -1.
         -5    1    1    2    0  502  0.10778346113E+02  0.60870494695E+02 -0.11139724380E+01  0.62005812662E+02  0.47000000000E+01 0.  1.
        -11    1    3    3    0    0 -0.16497469421E+02 -0.91110948649E+02  0.41575436996E+02  0.10149821881E+03  0.00000000000E+00 0.  1.
         11    1    3    3    0    0  0.30253769083E+01  0.24252071486E+02  0.13991767901E+02  0.28161772775E+02  0.00000000000E+00 0. -1.
<mgrwt>
<rscale>  0 0.13269058E+03</rscale>
<asrwt>0</asrwt>
<pdfrwt beam="1">  1        2 0.37463820E-01 0.13831629E+03</pdfrwt>
<pdfrwt beam="2">  1       -2 0.10575634E-01 0.13831629E+03</pdfrwt>
<totfact> 0.79097392E+03</totfact>
</mgrwt>
</event>
<event>
 7    1  0.1330601E-005  0.1362958E+03  0.7546771E-02  0.1230833E+00
         -1   -1    0    0    0  501 -0.00000000000E+00  0.00000000000E+00  0.47472707536E+02  0.47472707536E+02  0.00000000000E+00 0.  1.
          1   -1    0    0  501    0  0.00000000000E+00 -0.00000000000E+00 -0.33632016475E+03  0.33632016475E+03  0.00000000000E+00 0. -1.
         23    2    1    2    0    0  0.32513486919E+02 -0.43470548405E+02 -0.18355816598E+03  0.21156519889E+03  0.90107811393E+02 0.  0.
          5    1    1    2  502    0 -0.42581323586E+02  0.42665810822E+02 -0.13096035784E+03  0.14424370301E+03  0.47000000000E+01 0.  1.
         -5    1    1    2    0  502  0.10067836667E+02  0.80473758330E+00  0.25671066608E+02  0.27983970385E+02  0.47000000000E+01 0.  1.
        -11    1    3    3    0    0  0.61834866388E+02 -0.38661413909E+02 -0.14969821136E+03  0.16651669619E+03  0.00000000000E+00 0. -1.
         11    1    3    3    0    0 -0.29321379469E+02 -0.48091344962E+01 -0.33859954619E+02  0.45048502698E+02  0.00000000000E+00 0.  1.
<mgrwt>
<rscale>  0 0.12775025E+03</rscale>
<asrwt>0</asrwt>
<pdfrwt beam="2">  1        1 0.51741565E-01 0.13629577E+03</pdfrwt>
<pdfrwt beam="1">  1       -1 0.73034933E-02 0.13629577E+03</pdfrwt>
<totfact> 0.71497916E+03</totfact>
</mgrwt>
</event>
<event>
 7    1  0.1330601E-005  0.3949954E+03  0.7546771E-02  0.1096127E+00
         -3   -1    0    0    0  501 -0.00000000000E+00  0.00000000000E+00  0.14756589467E+04  0.14756589467E+04  0.00000000000E+00 0.  1.
          3   -1    0    0  501    0  0.00000000000E+00 -0.00000000000E+00 -0.62947639115E+02  0.62947639115E+02  0.00000000000E+00 0. -1.
         23    2    1    2    0    0 -0.30195727155E+02 -0.19614671990E+02  0.33797078364E+02  0.10423361551E+03  0.91792629335E+02 0.  0.
          5    1    1    2  502    0 -0.13818477355E+02 -0.68906415144E+02  0.21910021690E+02  0.73764377683E+02  0.47000000000E+01 0. -1.
         -5    1    1    2    0  502  0.44014204510E+02  0.88521087134E+02  0.13570042076E+04  0.13606085927E+04  0.47000000000E+01 0.  1.
        -11    1    3    3    0    0  0.60017889126E+01  0.28038650258E+02 -0.96814675986E+01  0.30264140386E+02  0.00000000000E+00 0.  1.
         11    1    3    3    0    0 -0.36197516067E+02 -0.47653322248E+02  0.43478545963E+02  0.73969475122E+02  0.00000000000E+00 0. -1.
<mgrwt>
<rscale>  0 0.27920021E+03</rscale>
<asrwt>0</asrwt>
<pdfrwt beam="2">  1        3 0.96842533E-02 0.39499540E+03</pdfrwt>
<pdfrwt beam="1">  1       -3 0.22702443E+00 0.39499540E+03</pdfrwt>
<totfact> 0.21578412E+01</totfact>
</mgrwt>
</event>
<event>
 7    1  0.1330601E-005  0.1326027E+03  0.7546771E-02  0.1239030E+00
          1   -1    0    0  501    0  0.00000000000E+00  0.00000000000E+00  0.15015275112E+02  0.15015275112E+02  0.00000000000E+00 0. -1.
         -1   -1    0    0    0  501 -0.00000000000E+00 -0.00000000000E+00 -0.87636595202E+03  0.87636595202E+03  0.00000000000E+00 0.  1.
         23    2    1    2    0    0 -0.40518347164E+02 -0.17823043114E+02 -0.34280234016E+03  0.35614683737E+03  0.85835470687E+02 0.  0.
          5    1    1    2  502    0  0.43157120736E+02 -0.36727281063E+02 -0.11838059525E+03  0.13132968277E+03  0.47000000000E+01 0. -1.
         -5    1    1    2    0  502 -0.26387735723E+01  0.54550324177E+02 -0.40016774150E+03  0.40390470699E+03  0.47000000000E+01 0. -1.
        -11    1    3    3    0    0 -0.49665211291E+02  0.15470849082E+02 -0.27693734689E+03  0.28178054313E+03  0.00000000000E+00 0.  1.
         11    1    3    3    0    0  0.91468641270E+01 -0.33293892195E+02 -0.65864993270E+02  0.74366294242E+02  0.00000000000E+00 0. -1.
<mgrwt>
<rscale>  0 0.12249905E+03</rscale>
<asrwt>0</asrwt>
<pdfrwt beam="1">  1        1 0.23100428E-02 0.13260269E+03</pdfrwt>
<pdfrwt beam="2">  1       -1 0.13482550E+00 0.13260269E+03</pdfrwt>
<totfact> 0.23682063E+03</totfact>
</mgrwt>
</event>
<event>
 7    1  0.1330601E-005  0.1396214E+03  0.7546771E-02  0.1225447E+00
          1   -1    0    0  501    0  0.00000000000E+00  0.00000000000E+00  0.32689695284E+02  0.32689695284E+02  0.00000000000E+00 0. -1.
         -1   -1    0    0    0  501 -0.00000000000E+00 -0.00000000000E+00 -0.52342132939E+03  0.52342132939E+03  0.00000000000E+00 0.  1.
         23    2    1    2    0    0  0.62090649909E+02 -0.40599212075E+01 -0.13374824106E+03  0.17279485696E+03  0.89987437127E+02 0.  0.
          5    1    1    2  502    0 -0.17901333286E+02 -0.30825967611E+02 -0.19044986138E+02  0.40687829993E+02  0.47000000000E+01 0.  1.
         -5    1    1    2    0  502 -0.44189316623E+02  0.34885888818E+02 -0.33793840691E+03  0.34262833772E+03  0.47000000000E+01 0.  1.
        -11    1    3    3    0    0 -0.13654771466E+02 -0.26921530726E+02 -0.33714641554E+02  0.45253714273E+02  0.00000000000E+00 0. -1.
         11    1    3    3    0    0  0.75745421375E+02  0.22861609519E+02 -0.10003359951E+03  0.12754114269E+03  0.00000000000E+00 0.  1.
<mgrwt>
<rscale>  0 0.13136311E+03</rscale>
<asrwt>0</asrwt>
<pdfrwt beam="1">  1        1 0.50291840E-02 0.13962142E+03</pdfrwt>
<pdfrwt beam="2">  1       -1 0.80526357E-01 0.13962142E+03</pdfrwt>
<totfact> 0.25719700E+03</totfact>
</mgrwt>
</event>
<event>
 7    1  0.1330601E-005  0.1664894E+03  0.7546771E-02  0.1188670E+00
         -1   -1    0    0    0  501 -0.00000000000E+00  0.00000000000E+00  0.46149967101E+02  0.46149967101E+02  0.00000000000E+00 0.  1.
          1   -1    0    0  501    0  0.00000000000E+00 -0.00000000000E+00 -0.56829272246E+03  0.56829272246E+03  0.00000000000E+00 0. -1.
         23    2    1    2    0    0 -0.87557725185E+02  0.66550356330E+02 -0.33540784178E+03  0.36426548581E+03  0.89975655926E+02 0.  0.
          5    1    1    2  502    0  0.10597975352E+02 -0.75098187862E+02 -0.14086935323E+03  0.16005723846E+03  0.47000000000E+01 0.  1.
         -5    1    1    2    0  502  0.76959749833E+02  0.85478315319E+01 -0.45865560341E+02  0.90119965289E+02  0.47000000000E+01 0.  1.
        -11    1    3    3    0    0 -0.36073033572E+02  0.69438156123E+02 -0.12372589487E+03  0.14639336849E+03  0.00000000000E+00 0.  1.
         11    1    3    3    0    0 -0.51484691614E+02 -0.28877997926E+01 -0.21168194692E+03  0.21787211733E+03  0.00000000000E+00 0. -1.
<mgrwt>
<rscale>  0 0.16002373E+03</rscale>
<asrwt>0</asrwt>
<pdfrwt beam="2">  1        1 0.87429651E-01 0.16648935E+03</pdfrwt>
<pdfrwt beam="1">  1       -1 0.70999948E-02 0.16648935E+03</pdfrwt>
<totfact> 0.38407560E+03</totfact>
</mgrwt>
</event>
<event>
 7    1  0.1330601E-005  0.1846569E+03  0.7546771E-02  0.1168732E+00
         -1   -1    0    0    0  501 -0.00000000000E+00  0.00000000000E+00  0.76285461551E+03  0.76285461551E+03  0.00000000000E+00 0.  1.
          1   -1    0    0  501    0  0.00000000000E+00 -0.00000000000E+00 -0.65647328370E+02  0.65647328370E+02  0.00000000000E+00 0. -1.
         23    2    1    2    0    0 -0.13579742034E+03 -0.56767634839E+01  0.75264300229E+02  0.17972521152E+03  0.90350825975E+02 0.  0.
          5    1    1    2  502    0  0.66283817959E+02 -0.52964130490E+02  0.20331727480E+03  0.22036049527E+03  0.47000000000E+01 0. -1.
         -5    1    1    2    0  502  0.69513602378E+02  0.58640893974E+02  0.41862571210E+03  0.42841623708E+03  0.47000000000E+01 0. -1.
        -11    1    3    3    0    0 -0.14817887521E+03 -0.16382721153E+01  0.60565818265E+02  0.16008710547E+03  0.00000000000E+00 0. -1.
         11    1    3    3    0    0  0.12381454876E+02 -0.40384913686E+01  0.14698481964E+02  0.19638106055E+02  0.00000000000E+00 0.  1.
<mgrwt>
<rscale>  0 0.17904354E+03</rscale>
<asrwt>0</asrwt>
<pdfrwt beam="2">  1        1 0.10099590E-01 0.18465690E+03</pdfrwt>
<pdfrwt beam="1">  1       -1 0.11736224E+00 0.18465690E+03</pdfrwt>
<totfact> 0.44191518E+02</totfact>
</mgrwt>
</event>
<event>
 7    1  0.1330601E-005  0.1274911E+03  0.7546771E-02  0.1246028E+00
         -2   -1    0    0    0  501 -0.00000000000E+00  0.00000000000E+00  0.42326206199E+03  0.42326206199E+03  0.00000000000E+00 0. -1.
          2   -1    0    0  501    0  0.00000000000E+00 -0.00000000000E+00 -0.45266322751E+02  0.45266322751E+02  0.00000000000E+00 0.  1.
         23    2    1    2    0    0  0.25020747068E+02  0.73038348921E+00  0.31699008304E+02  0.99508858454E+02  0.90942919128E+02 0.  0.
          5    1    1    2  502    0 -0.31556767558E+02  0.57731867500E+02  0.21881781356E+03  0.22854348303E+03  0.47000000000E+01 0. -1.
         -5    1    1    2    0  502  0.65360204904E+01 -0.58462250989E+02  0.12747891738E+03  0.14047604326E+03  0.47000000000E+01 0. -1.
        -11    1    3    3    0    0  0.35848303639E+00 -0.31870232719E+02 -0.16841758143E+02  0.36048371129E+02  0.00000000000E+00 0.  1.
         11    1    3    3    0    0  0.24662264031E+02  0.32600616209E+02  0.48540766447E+02  0.63460487325E+02  0.00000000000E+00 0. -1.
<mgrwt>
<rscale>  0 0.11824057E+03</rscale>
<asrwt>0</asrwt>
<pdfrwt beam="2">  1        2 0.69640499E-02 0.12749112E+03</pdfrwt>
<pdfrwt beam="1">  1       -2 0.65117238E-01 0.12749112E+03</pdfrwt>
<totfact> 0.21706180E+03</totfact>
</mgrwt>
</event>
<event>
 7    1  0.1330601E-005  0.1495233E+03  0.7546771E-02  0.1210433E+00
         -3   -1    0    0    0  501 -0.00000000000E+00  0.00000000000E+00  0.13080800677E+03  0.13080800677E+03  0.00000000000E+00 0.  1.
          3   -1    0    0  501    0  0.00000000000E+00 -0.00000000000E+00 -0.17059294025E+03  0.17059294025E+03  0.00000000000E+00 0. -1.
         23    2    1    2    0    0  0.89154821890E+00 -0.82045880306E+02 -0.80601038906E+02  0.14640684591E+03  0.90587613512E+02 0.  0.
          5    1    1    2  502    0  0.13390656090E+02  0.99887587461E+00 -0.38228130466E+02  0.40789549917E+02  0.47000000000E+01 0.  1.
         -5    1    1    2    0  502 -0.14282204309E+02  0.81047004431E+02  0.79044235895E+02  0.11420455120E+03  0.47000000000E+01 0.  1.
        -11    1    3    3    0    0 -0.15705576936E+02 -0.78025492062E+02 -0.95095889265E+02  0.12400754297E+03  0.00000000000E+00 0. -1.
         11    1    3    3    0    0  0.16597125155E+02 -0.40203882438E+01  0.14494850359E+02  0.22399302935E+02  0.00000000000E+00 0.  1.
<mgrwt>
<rscale>  0 0.14217387E+03</rscale>
<asrwt>0</asrwt>
<pdfrwt beam="2">  1        3 0.26245068E-01 0.14952330E+03</pdfrwt>
<pdfrwt beam="1">  1       -3 0.20124309E-01 0.14952330E+03</pdfrwt>
<totfact> 0.71577737E+02</totfact>
</mgrwt>
</event>
<event>
 7    1  0.1330601E-005  0.1603829E+03  0.7546771E-02  0.1196068E+00
          2   -1    0    0  501    0  0.00000000000E+00  0.00000000000E+00  0.92489056536E+03  0.92489056536E+03  0.00000000000E+00 0.  1.
         -2   -1    0    0    0  501 -0.00000000000E+00 -0.00000000000E+00 -0.26703457480E+02  0.26703457480E+02  0.00000000000E+00 0. -1.
         23    2    1    2    0    0  0.55626966856E+02  0.83659163463E+02  0.57688761649E+03  0.59248952524E+03  0.90284552293E+02 0.  0.
          5    1    1    2  502    0 -0.33422331190E+01 -0.90047907409E+01 -0.10497554812E+02  0.14984840191E+02  0.47000000000E+01 0.  1.
         -5    1    1    2    0  502 -0.52284733737E+02 -0.74654372722E+02  0.33179704620E+03  0.34411965741E+03  0.47000000000E+01 0.  1.
        -11    1    3    3    0    0  0.76496337177E+02  0.71385009072E+02  0.52371120612E+03  0.53406079854E+03  0.00000000000E+00 0.  1.
         11    1    3    3    0    0 -0.20869370321E+02  0.12274154391E+02  0.53176410376E+02  0.58428726703E+02  0.00000000000E+00 0. -1.
<mgrwt>
<rscale>  0 0.15364205E+03</rscale>
<asrwt>0</asrwt>
<pdfrwt beam="1">  1        2 0.14229083E+00 0.16038291E+03</pdfrwt>
<pdfrwt beam="2">  1       -2 0.41082249E-02 0.16038291E+03</pdfrwt>
<totfact> 0.75384218E+03</totfact>
</mgrwt>
</event>
<event>
 7    1  0.1330601E-005  0.2314951E+03  0.7546771E-02  0.1125592E+00
         -1   -1    0    0    0  501 -0.00000000000E+00  0.00000000000E+00  0.55774264649E+03  0.55774264649E+03  0.00000000000E+00 0.  1.
          1   -1    0    0  501    0  0.00000000000E+00 -0.00000000000E+00 -0.24020932453E+02  0.24020932453E+02  0.00000000000E+00 0. -1.
         23    2    1    2    0    0 -0.93001543563E+01  0.32579972222E+02  0.17876034016E+03  0.20238698747E+03  0.88641333601E+02 0.  0.
          5    1    1    2  502    0  0.13020083195E+02  0.49513796546E+02  0.14600081219E+03  0.15478845492E+03  0.47000000000E+01 0. -1.
         -5    1    1    2    0  502 -0.37199288391E+01 -0.82093768768E+02  0.20896056169E+03  0.22458813656E+03  0.47000000000E+01 0.  1.
        -11    1    3    3    0    0 -0.57018105720E+01  0.53946991691E+02  0.56900955691E+02  0.78616202623E+02  0.00000000000E+00 0. -1.
         11    1    3    3    0    0 -0.35983437843E+01 -0.21367019469E+02  0.12185938447E+03  0.12377078485E+03  0.00000000000E+00 0.  1.
<mgrwt>
<rscale>  0 0.23149513E+03</rscale>
<asrwt>0</asrwt>
<pdfrwt beam="2">  1        1 0.36955285E-02 0.23149513E+03</pdfrwt>
<pdfrwt beam="1">  1       -1 0.85806551E-01 0.23149513E+03</pdfrwt>
<totfact> 0.35409350E+03</totfact>
</mgrwt>
</event>
<event>
 7    1  0.1330601E-005  0.1315248E+03  0.7546771E-02  0.1238503E+00
         -1   -1    0    0    0  501 -0.00000000000E+00  0.00000000000E+00  0.53305356278E+02  0.53305356278E+02  0.00000000000E+00 0.  1.
          1   -1    0    0  501    0  0.00000000000E+00 -0.00000000000E+00 -0.30397149368E+03  0.30397149368E+03  0.00000000000E+00 0. -1.
         23    2    1    2    0    0  0.39760110499E+02  0.10892503875E+02 -0.18489631415E+03  0.21022433543E+03  0.91148840885E+02 0.  0.
          5    1    1    2  502    0  0.12381106008E+02 -0.16052100809E+02  0.30748752750E+02  0.37128661732E+02  0.47000000000E+01 0.  1.
         -5    1    1    2    0  502 -0.52141216506E+02  0.51595969335E+01 -0.96518576005E+02  0.10992385279E+03  0.47000000000E+01 0.  1.
        -11    1    3    3    0    0  0.35669674552E+01 -0.38145674491E+02 -0.58949383199E+02  0.70305373328E+02  0.00000000000E+00 0.  1.
         11    1    3    3    0    0  0.36193143043E+02  0.49038178366E+02 -0.12594693095E+03  0.13991896210E+03  0.00000000000E+00 0. -1.
<mgrwt>
<rscale>  0 0.12282792E+03</rscale>
<asrwt>0</asrwt>
<pdfrwt beam="2">  1        1 0.46764846E-01 0.13152480E+03</pdfrwt>
<pdfrwt beam="1">  1       -1 0.82008240E-02 0.13152480E+03</pdfrwt>
<totfact> 0.67919698E+03</totfact>
</mgrwt>
</event>
<event>
 7    1  0.1330601E-005  0.1496576E+03  0.7546771E-02  0.1209519E+00
          1   -1    0    0  501    0  0.00000000000E+00  0.00000000000E+00  0.31679136376E+03  0.31679136376E+03  0.00000000000E+00 0. -1.
         -1   -1    0    0    0  501 -0.00000000000E+00 -0.00000000000E+00 -0.63724719171E+02  0.63724719171E+02  0.00000000000E+00 0.  1.
         23    2    1    2    0    0 -0.10767587084E+02 -0.81584735388E+02  0.16598346246E+03  0.20736624050E+03  0.93157060440E+02 0.  0.
          5    1    1    2  502    0  0.14155868712E+02  0.66991201139E+02  0.11911734417E+03  0.13747451157E+03  0.47000000000E+01 0.  1.
         -5    1    1    2    0  502 -0.33882816287E+01  0.14593534249E+02 -0.32034162041E+02  0.35675330860E+02  0.47000000000E+01 0.  1.
        -11    1    3    3    0    0 -0.19095368746E+02 -0.39091422510E+02  0.15729597889E+03  0.16320170770E+03  0.00000000000E+00 0. -1.
         11    1    3    3    0    0  0.83277816620E+01 -0.42493312878E+02  0.86874835689E+01  0.44164532801E+02  0.00000000000E+00 0.  1.
<mgrwt>
<rscale>  0 0.14286997E+03</rscale>
<asrwt>0</asrwt>
<pdfrwt beam="1">  1        1 0.48737132E-01 0.14965757E+03</pdfrwt>
<pdfrwt beam="2">  1       -1 0.98038031E-02 0.14965757E+03</pdfrwt>
<totfact> 0.49584319E+03</totfact>
</mgrwt>
</event>
<event>
 7    1  0.1330601E-005  0.2520426E+03  0.7546771E-02  0.1114412E+00
         -2   -1    0    0    0  501 -0.00000000000E+00  0.00000000000E+00  0.27319713707E+02  0.27319713707E+02  0.00000000000E+00 0.  1.
          2   -1    0    0  501    0  0.00000000000E+00 -0.00000000000E+00 -0.21927337662E+04  0.21927337662E+04  0.00000000000E+00 0. -1.
         23    2    1    2    0    0 -0.21674759069E+03  0.30458562824E+02 -0.10157173383E+04  0.10430538958E+04  0.91501235590E+02 0.  0.
          5    1    1    2  502    0  0.19703504144E+03 -0.65362836274E+02 -0.87182817551E+03  0.89621513351E+03  0.47000000000E+01 0. -1.
         -5    1    1    2    0  502  0.19712549248E+02  0.34904273450E+02 -0.27786853861E+03  0.28078445052E+03  0.47000000000E+01 0. -1.
        -11    1    3    3    0    0 -0.67460545569E+01  0.81706028379E+01 -0.75611875051E+01  0.13016895148E+02  0.00000000000E+00 0.  1.
         11    1    3    3    0    0 -0.21000153613E+03  0.22287959986E+02 -0.10081561508E+04  0.10300370007E+04  0.00000000000E+00 0. -1.
<mgrwt>
<rscale>  0 0.24825585E+03</rscale>
<asrwt>0</asrwt>
<pdfrwt beam="2">  1        2 0.33734370E+00 0.25204263E+03</pdfrwt>
<pdfrwt beam="1">  1       -2 0.42030323E-02 0.25204263E+03</pdfrwt>
<totfact> 0.15005227E+03</totfact>
</mgrwt>
</event>
<event>
 7    1  0.1330601E-005  0.1283581E+03  0.7546771E-02  0.1245932E+00
         -1   -1    0    0    0  501 -0.00000000000E+00  0.00000000000E+00  0.69420569710E+02  0.69420569710E+02  0.00000000000E+00 0.  1.
          1   -1    0    0  501    0  0.00000000000E+00 -0.00000000000E+00 -0.17648691898E+03  0.17648691898E+03  0.00000000000E+00 0. -1.
         23    2    1    2    0    0 -0.51782772114E+01  0.28682974708E+02 -0.52301842028E+02  0.10635481321E+03  0.87899579178E+02 0.  0.
          5    1    1    2  502    0 -0.38267240218E+01 -0.15876434263E+02 -0.94798804477E+02  0.96309959568E+02  0.47000000000E+01 0.  1.
         -5    1    1    2    0  502  0.90050012332E+01 -0.12806540445E+02  0.40034297230E+02  0.43242715919E+02  0.47000000000E+01 0.  1.
        -11    1    3    3    0    0 -0.40721985865E+01 -0.10393961261E+02 -0.64456666906E+02  0.65416199375E+02  0.00000000000E+00 0. -1.
         11    1    3    3    0    0 -0.11060786249E+01  0.39076935969E+02  0.12154824878E+02  0.40938613832E+02  0.00000000000E+00 0.  1.
<mgrwt>
<rscale>  0 0.11829793E+03</rscale>
<asrwt>0</asrwt>
<pdfrwt beam="2">  1        1 0.27151834E-01 0.12835808E+03</pdfrwt>
<pdfrwt beam="1">  1       -1 0.10680088E-01 0.12835808E+03</pdfrwt>
<totfact> 0.88970093E+03</totfact>
</mgrwt>
</event>
<event>
 7    1  0.1330601E-005  0.1387474E+03  0.7546771E-02  0.1226449E+00
          2   -1    0    0  501    0  0.00000000000E+00  0.00000000000E+00  0.10063794876E+03  0.10063794876E+03  0.00000000000E+00 0. -1.
         -2   -1    0    0    0  501 -0.00000000000E+00 -0.00000000000E+00 -0.22269304123E+03  0.22269304123E+03  0.00000000000E+00 0.  1.
         23    2    1    2    0    0 -0.44724489149E+02 -0.40298354437E+02  0.34150518809E+02  0.11440269447E+03  0.91090511401E+02 0.  0.
          5    1    1    2  502    0  0.39385315609E+01  0.42702777959E+02  0.41903004684E+01  0.43343833405E+02  0.47000000000E+01 0. -1.
         -5    1    1    2    0  502  0.40785957588E+02 -0.24044235217E+01 -0.16039591174E+03  0.16558446211E+03  0.47000000000E+01 0. -1.
        -11    1    3    3    0    0 -0.43961784981E+02 -0.55920621412E+02 -0.59297577948E+01  0.71378683550E+02  0.00000000000E+00 0.  1.
         11    1    3    3    0    0 -0.76270416855E+00  0.15622266975E+02  0.40080276603E+02  0.43024010921E+02  0.00000000000E+00 0. -1.
<mgrwt>
<rscale>  0 0.13068056E+03</rscale>
<asrwt>0</asrwt>
<pdfrwt beam="1">  1        2 0.15482761E-01 0.13874740E+03</pdfrwt>
<pdfrwt beam="2">  1       -2 0.34260468E-01 0.13874740E+03</pdfrwt>
<totfact> 0.28923222E+03</totfact>
</mgrwt>
</event>
<event>
 7    1  0.1330601E-005  0.1255421E+03  0.7546771E-02  0.1249422E+00
         -1   -1    0    0    0  501 -0.00000000000E+00  0.00000000000E+00  0.71532533896E+02  0.71532533896E+02  0.00000000000E+00 0.  1.
          1   -1    0    0  501    0  0.00000000000E+00 -0.00000000000E+00 -0.17676888879E+03  0.17676888879E+03  0.00000000000E+00 0. -1.
         23    2    1    2    0    0 -0.11132022891E+02  0.32117705359E+01 -0.75623964723E+02  0.11931417120E+03  0.91556812992E+02 0.  0.
          5    1    1    2  502    0  0.56110688970E+02 -0.12874341475E+02 -0.51900161657E+02  0.77652268899E+02  0.47000000000E+01 0.  1.
         -5    1    1    2    0  502 -0.44978666079E+02  0.96625709391E+01  0.22287771485E+02  0.51334982587E+02  0.47000000000E+01 0.  1.
        -11    1    3    3    0    0  0.30044006311E+02  0.17282369460E+02 -0.66299241920E+02  0.74812512914E+02  0.00000000000E+00 0. -1.
         11    1    3    3    0    0 -0.41176029202E+02 -0.14070598924E+02 -0.93247228035E+01  0.44501658287E+02  0.00000000000E+00 0.  1.
<mgrwt>
<rscale>  0 0.11624576E+03</rscale>
<asrwt>0</asrwt>
<pdfrwt beam="2">  1        1 0.27195214E-01 0.12554209E+03</pdfrwt>
<pdfrwt beam="1">  1       -1 0.11005005E-01 0.12554209E+03</pdfrwt>
<totfact> 0.84665334E+03</totfact>
</mgrwt>
</event>
<event>
 7    1  0.1363872E-005  0.2528288E+03  0.7546771E-02  0.1114065E+00
         -2   -1    0    0    0  501 -0.00000000000E+00  0.00000000000E+00  0.49272605358E+02  0.49272605358E+02  0.00000000000E+00 0. -1.
          2   -1    0    0  501    0  0.00000000000E+00 -0.00000000000E+00 -0.13684515460E+04  0.13684515460E+04  0.00000000000E+00 0.  1.
         23    2    1    2    0    0  0.18860336333E+03  0.11281190492E+03 -0.87578216333E+03  0.90730948735E+03  0.88985131749E+02 0.  0.
          5    1    1    2  502    0 -0.12364561280E+03 -0.10326658536E+03 -0.19265862205E+03  0.25118053241E+03  0.47000000000E+01 0. -1.
         -5    1    1    2    0  502 -0.64957750529E+02 -0.95453195637E+01 -0.25073815529E+03  0.25923413163E+03  0.47000000000E+01 0. -1.
        -11    1    3    3    0    0  0.15530706920E+03  0.54144614559E+02 -0.69911281058E+03  0.71819958712E+03  0.00000000000E+00 0.  1.
         11    1    3    3    0    0  0.33296294130E+02  0.58667290361E+02 -0.17666935276E+03  0.18910990023E+03  0.00000000000E+00 0. -1.
<mgrwt>
<rscale>  0 0.24880126E+03</rscale>
<asrwt>0</asrwt>
<pdfrwt beam="2">  1        2 0.21053098E+00 0.25282885E+03</pdfrwt>
<pdfrwt beam="1">  1       -2 0.75804017E-02 0.25282885E+03</pdfrwt>
<totfact> 0.16564104E+03</totfact>
</mgrwt>
</event>
<event>
 7    1  0.1330601E-005  0.1511502E+03  0.7546771E-02  0.1208387E+00
          1   -1    0    0  501    0  0.00000000000E+00  0.00000000000E+00  0.16162648862E+03  0.16162648862E+03  0.00000000000E+00 0. -1.
         -1   -1    0    0    0  501 -0.00000000000E+00 -0.00000000000E+00 -0.11709863868E+03  0.11709863868E+03  0.00000000000E+00 0.  1.
         23    2    1    2    0    0  0.84599518461E+02 -0.80603885590E+01  0.12691456728E+02  0.12425849200E+03  0.89761079390E+02 0.  0.
          5    1    1    2  502    0 -0.27510340392E+01  0.18119224733E+02  0.63308971746E+02  0.66075641478E+02  0.47000000000E+01 0.  1.
         -5    1    1    2    0  502 -0.81848484422E+02 -0.10058836174E+02 -0.31472578535E+02  0.88390993811E+02  0.47000000000E+01 0.  1.
        -11    1    3    3    0    0 -0.17616475397E+02 -0.14922775543E+01 -0.85716883724E+01  0.19647924553E+02  0.00000000000E+00 0.  1.
         11    1    3    3    0    0  0.10221599386E+03 -0.65681110048E+01  0.21263145100E+02  0.10461056745E+03  0.00000000000E+00 0. -1.
<mgrwt>
<rscale>  0 0.14373707E+03</rscale>
<asrwt>0</asrwt>
<pdfrwt beam="1">  1        1 0.24865614E-01 0.15115021E+03</pdfrwt>
<pdfrwt beam="2">  1       -1 0.18015175E-01 0.15115021E+03</pdfrwt>
<totfact> 0.44422923E+03</totfact>
</mgrwt>
</event>
<event>
 7    1  0.1330601E-005  0.1904503E+03  0.7546771E-02  0.1163512E+00
         -2   -1    0    0    0  501 -0.00000000000E+00  0.00000000000E+00  0.24321096811E+02  0.24321096811E+02  0.00000000000E+00 0.  1.
          2   -1    0    0  501    0  0.00000000000E+00 -0.00000000000E+00 -0.13189912674E+04  0.13189912674E+04  0.00000000000E+00 0. -1.
         23    2    1    2    0    0 -0.34715598653E+01 -0.14364535987E+03 -0.60714474177E+03  0.62989626285E+03  0.86594014578E+02 0.  0.
          5    1    1    2  502    0 -0.31210071492E+02  0.11044529828E+03 -0.61927629481E+03  0.62983922694E+03  0.47000000000E+01 0. -1.
         -5    1    1    2    0  502  0.34681631357E+02  0.33200061586E+02 -0.68249133962E+02  0.83576874370E+02  0.47000000000E+01 0. -1.
        -11    1    3    3    0    0  0.40962123855E+02 -0.56725285463E+02 -0.23938363309E+03  0.24939963391E+03  0.00000000000E+00 0.  1.
         11    1    3    3    0    0 -0.44433683720E+02 -0.86920074408E+02 -0.36776110868E+03  0.38049662895E+03  0.00000000000E+00 0. -1.
<mgrwt>
<rscale>  0 0.18450603E+03</rscale>
<asrwt>0</asrwt>
<pdfrwt beam="2">  1        2 0.20292169E+00 0.19045030E+03</pdfrwt>
<pdfrwt beam="1">  1       -2 0.37417081E-02 0.19045030E+03</pdfrwt>
<totfact> 0.51616803E+03</totfact>
</mgrwt>
</event>
<event>
 7    1  0.1330601E-005  0.2255610E+03  0.7546771E-02  0.1132982E+00
         -1   -1    0    0    0  501 -0.00000000000E+00  0.00000000000E+00  0.81232598805E+02  0.81232598805E+02  0.00000000000E+00 0.  1.
          1   -1    0    0  501    0  0.00000000000E+00 -0.00000000000E+00 -0.83818337042E+03  0.83818337042E+03  0.00000000000E+00 0. -1.
         23    2    1    2    0    0  0.11957919018E+03 -0.14475141722E+03 -0.62314383792E+03  0.65715263074E+03  0.91044944064E+02 0.  0.
          5    1    1    2  502    0 -0.10800868475E+03  0.36861592581E+02 -0.88875970313E+02  0.14472622806E+03  0.47000000000E+01 0. -1.
         -5    1    1    2    0  502 -0.11570505431E+02  0.10788982464E+03 -0.44930963390E+02  0.11753711043E+03  0.47000000000E+01 0. -1.
        -11    1    3    3    0    0  0.65678725551E+02 -0.16004985936E+02 -0.16807007628E+03  0.18115574820E+03  0.00000000000E+00 0.  1.
         11    1    3    3    0    0  0.53900464633E+02 -0.12874643129E+03 -0.45507376164E+03  0.47599688254E+03  0.00000000000E+00 0. -1.
<mgrwt>
<rscale>  0 0.22121304E+03</rscale>
<asrwt>0</asrwt>
<pdfrwt beam="2">  1        1 0.12895129E+00 0.22556100E+03</pdfrwt>
<pdfrwt beam="1">  1       -1 0.12497323E-01 0.22556100E+03</pdfrwt>
<totfact> 0.92329267E+02</totfact>
</mgrwt>
</event>
<event>
 7    1  0.1330601E-005  0.1915775E+03  0.7546771E-02  0.1161874E+00
         -1   -1    0    0    0  501 -0.00000000000E+00  0.00000000000E+00  0.12229736191E+04  0.12229736191E+04  0.00000000000E+00 0.  1.
          1   -1    0    0  501    0  0.00000000000E+00 -0.00000000000E+00 -0.32090338194E+02  0.32090338194E+02  0.00000000000E+00 0. -1.
         23    2    1    2    0    0 -0.42538692620E+02 -0.13881352294E+03  0.31540592152E+03  0.35887060057E+03  0.90710959105E+02 0.  0.
          5    1    1    2  502    0 -0.18866142160E+02 -0.15398175901E+02  0.14245917687E+03  0.14460201318E+03  0.47000000000E+01 0.  1.
         -5    1    1    2    0  502  0.61404834780E+02  0.15421169884E+03  0.73301818248E+03  0.75159134351E+03  0.47000000000E+01 0.  1.
        -11    1    3    3    0    0  0.18602508691E+02 -0.90716756026E+02  0.15405147682E+03  0.17974270684E+03  0.00000000000E+00 0. -1.
         11    1    3    3    0    0 -0.61141201312E+02 -0.48096766913E+02  0.16135444470E+03  0.17912789372E+03  0.00000000000E+00 0.  1.
<mgrwt>
<rscale>  0 0.18626452E+03</rscale>
<asrwt>0</asrwt>
<pdfrwt beam="2">  1        1 0.49369761E-02 0.19157747E+03</pdfrwt>
<pdfrwt beam="1">  1       -1 0.18814975E+00 0.19157747E+03</pdfrwt>
<totfact> 0.34076347E+02</totfact>
</mgrwt>
</event>
<event>
 7    1  0.1330601E-005  0.1450033E+03  0.7546771E-02  0.1216546E+00
         -2   -1    0    0    0  501 -0.00000000000E+00  0.00000000000E+00  0.25838677627E+02  0.25838677627E+02  0.00000000000E+00 0.  1.
          2   -1    0    0  501    0  0.00000000000E+00 -0.00000000000E+00 -0.73874713208E+03  0.73874713208E+03  0.00000000000E+00 0. -1.
         23    2    1    2    0    0  0.70907186213E+02  0.19330266823E+02 -0.44090214977E+03  0.45634341351E+03  0.91940834823E+02 0.  0.
          5    1    1    2  502    0 -0.10550313365E+03 -0.24711809533E+02 -0.18681866694E+03  0.21602057554E+03  0.47000000000E+01 0. -1.
         -5    1    1    2    0  502  0.34595947438E+02  0.53815427101E+01 -0.85187637753E+02  0.92221820667E+02  0.47000000000E+01 0. -1.
        -11    1    3    3    0    0  0.49519243222E+02 -0.32210883177E+02 -0.27613787873E+03  0.28238594957E+03  0.00000000000E+00 0. -1.
         11    1    3    3    0    0  0.21387942991E+02  0.51541150000E+02 -0.16476427104E+03  0.17395746393E+03  0.00000000000E+00 0.  1.
<mgrwt>
<rscale>  0 0.13763617E+03</rscale>
<asrwt>0</asrwt>
<pdfrwt beam="2">  1        2 0.11365339E+00 0.14500326E+03</pdfrwt>
<pdfrwt beam="1">  1       -2 0.39751816E-02 0.14500326E+03</pdfrwt>
<totfact> 0.10470620E+04</totfact>
</mgrwt>
</event>
<event>
 7    1  0.1330601E-005  0.1671869E+03  0.7546771E-02  0.1187693E+00
          3   -1    0    0  501    0  0.00000000000E+00  0.00000000000E+00  0.18194090776E+03  0.18194090776E+03  0.00000000000E+00 0. -1.
         -3   -1    0    0    0  501 -0.00000000000E+00 -0.00000000000E+00 -0.13543692199E+03  0.13543692199E+03  0.00000000000E+00 0.  1.
         23    2    1    2    0    0 -0.77049846746E+02  0.79937698049E+02 -0.16160094991E+01  0.14340375531E+03  0.90748614850E+02 0.  0.
          5    1    1    2  502    0  0.22067609176E+02  0.28748381025E+02  0.36300396097E+02  0.51509781043E+02  0.47000000000E+01 0.  1.
         -5    1    1    2    0  502  0.54982237570E+02 -0.10868607907E+03  0.11819599169E+02  0.12246429340E+03  0.47000000000E+01 0.  1.
        -11    1    3    3    0    0  0.61632290696E+01  0.52516210771E+02  0.13311374342E+02  0.54526419956E+02  0.00000000000E+00 0. -1.
         11    1    3    3    0    0 -0.83213075816E+02  0.27421487278E+02 -0.14927383841E+02  0.88877335354E+02  0.00000000000E+00 0.  1.
<mgrwt>
<rscale>  0 0.16089214E+03</rscale>
<asrwt>0</asrwt>
<pdfrwt beam="1">  1        3 0.27990909E-01 0.16718686E+03</pdfrwt>
<pdfrwt beam="2">  1       -3 0.20836450E-01 0.16718686E+03</pdfrwt>
<totfact> 0.60760011E+02</totfact>
</mgrwt>
</event>
<event>
 7    1  0.1330601E-005  0.1979539E+03  0.7546771E-02  0.1155277E+00
          1   -1    0    0  501    0  0.00000000000E+00  0.00000000000E+00  0.24534800117E+03  0.24534800117E+03  0.00000000000E+00 0. -1.
         -1   -1    0    0    0  501 -0.00000000000E+00 -0.00000000000E+00 -0.17420520123E+03  0.17420520123E+03  0.00000000000E+00 0.  1.
         23    2    1    2    0    0 -0.24970617630E+02  0.15145470111E+03  0.11807340839E+03  0.21611225615E+03  0.95922464816E+02 0.  0.
          5    1    1    2  502    0  0.29871013131E+02 -0.10301500867E+03 -0.88588826097E+02  0.13919209584E+03  0.47000000000E+01 0. -1.
         -5    1    1    2    0  502 -0.49003955011E+01 -0.48439692447E+02  0.41658217648E+02  0.64248850402E+02  0.47000000000E+01 0. -1.
        -11    1    3    3    0    0 -0.59279685855E+02  0.10144839374E+03  0.59111939045E+02  0.13152976501E+03  0.00000000000E+00 0.  1.
         11    1    3    3    0    0  0.34309068225E+02  0.50006307377E+02  0.58961469347E+02  0.84582491140E+02  0.00000000000E+00 0. -1.
<mgrwt>
<rscale>  0 0.19357366E+03</rscale>
<asrwt>0</asrwt>
<pdfrwt beam="1">  1        1 0.37745847E-01 0.19795387E+03</pdfrwt>
<pdfrwt beam="2">  1       -1 0.26800800E-01 0.19795387E+03</pdfrwt>
<totfact> 0.13917111E+03</totfact>
</mgrwt>
</event>
